 Gaussian 09, Revision D.01,
 Gaussian 09:  ES64L-G09RevD.01 24-Apr-2013

 ----------------------------
 #P AM1(Input,print) Opt Freq
 ----------------------------

 -----------------
 AM1-Reparam Input
 -----------------
 Symbolic Z-matrix:
 Charge =  0 Multiplicity = 1

 SCF Done:  E(RAM1) =  -3.86823181069     A.U. after   14 cycles
 SCF Done:  E(RAM1) =  -3.89013633095     A.U. after   13 cycles
 SCF Done:  E(RAM1) =  -3.89288257194     A.U. after   12 cycles
 SCF Done:  E(RAM1) =  -3.89325765294     A.U. after   12 cycles
 SCF Done:  E(RAM1) =  -3.89331047816     A.U. after   11 cycles
 SCF Done:  E(RAM1) =  -3.89334699325     A.U. after   12 cycles
 SCF Done:  E(RAM1) =  -3.89335070749     A.U. after   11 cycles
 SCF Done:  E(RAM1) =  -3.89335099708     A.U. after   11 cycles
 Optimization completed.
    -- Stationary point found.
 Normal termination of Gaussian 09 at Mon Dec  7 14:51:13 2015.

 -------------------------------------------------------------
 #P Geom=AllCheck Guess=TCheck SCRF=Check GenChk RAM1/ZDO Freq
 -------------------------------------------------------------

 Structure from the checkpoint file:  "/home/Applications/g09/scratch/Gau-10488.chk"
 -----------------
 AM1-Reparam Input
 -----------------
 Charge =  0 Multiplicity = 1

                         Standard orientation:
 ---------------------------------------------------------------------
 Center     Atomic      Atomic             Coordinates (Angstroms)
 Number     Number       Type             X           Y           Z
 ---------------------------------------------------------------------
      1          6           0       -0.727187    0.922255   -0.000430
      2          6           0       -1.126380   -0.321988    0.000210
      3          8           0       -0.000608   -1.124658    0.000048
      4          6           0        1.125993   -0.323065   -0.000310
      5          6           0        0.728206    0.921659    0.000482
      6          1           0        1.327438    1.811805    0.000526
      7          1           0        1.988038   -0.911650   -0.000513
      8          1           0       -1.988971   -0.909477    0.000461
      9          1           0       -1.325429    1.813417   -0.000579
 ---------------------------------------------------------------------

 SCF Done:  E(RAM1) =  -3.89335099708     A.U. after    2 cycles

 The electronic state is 1-A.
 Alpha  occ. eigenvalues --   -1.63494  -1.26558  -1.16566  -0.97827  -0.93944
 Alpha  occ. eigenvalues --   -0.86501  -0.84814  -0.67137  -0.66376  -0.64108
 Alpha  occ. eigenvalues --   -0.61336  -0.59586  -0.47855
 Alpha virt. eigenvalues --    0.00213   0.03959   0.07679   0.10545   0.15717
 Alpha virt. eigenvalues --    0.16512   0.19224   0.19948   0.24050   0.27347
 Alpha virt. eigenvalues --    0.30466

 Mulliken charges:
               1
     1  C   -0.563241
     2  C    0.982792
     3  O   -1.071373
     4  C    0.982743
     5  C   -0.563139
     6  H    0.183393
     7  H   -0.067300
     8  H   -0.067331
     9  H    0.183457
 Sum of Mulliken charges =   0.00000

 Dipole moment (field-independent basis, Debye):
    X=              0.0005    Y=              1.4771    Z=             -0.0009  Tot=              1.4771
 N-N= 1.046888127828D+02 E-N=-1.742615843928D+02  KE=-2.018069407690D+01
  Exact polarizability:  26.338   0.002  34.103  -0.014   0.002   5.887
 Approx polarizability:  17.878   0.006  30.222  -0.005   0.001   4.292
 Leave Link  601 at Mon Dec  7 14:51:14 2015, MaxMem=    33554432 cpu:         0.0
 (Enter /home/Applications/g09/g09/l701.exe)
 Compute integral second derivatives.
 ... and contract with generalized density number  0.
 Leave Link  701 at Mon Dec  7 14:51:14 2015, MaxMem=    33554432 cpu:         0.0
 (Enter /home/Applications/g09/g09/l702.exe)
 L702 exits ... SP integral derivatives will be done elsewhere.

                      1                      2                      3
                      A                      A                      A
 Frequencies --    570.3892               598.0612               748.7879
 Red. masses --      1.7760                 2.5002                 5.8843
 Frc consts  --      0.3404                 0.5269                 1.9438
 IR Inten    --      0.0003                73.5901                34.8706

                      4                      5                      6
                      A                      A                      A
 Frequencies --    851.8580               965.5020               994.1483
 Red. masses --      7.3772                 1.1565                 1.1585
 Frc consts  --      3.1541                 0.6352                 0.6746
 IR Inten    --     21.0614                58.9912                14.2855

                      7                      8                      9
                      A                      A                      A
 Frequencies --   1011.6292              1055.2892              1087.0305
 Red. masses --      1.0694                 1.2942                 1.2076
 Frc consts  --      0.6448                 0.8492                 0.8407
 IR Inten    --     58.1327                 0.0002                12.4438

                     10                     11                     12
                      A                      A                      A
 Frequencies --   1168.6805              1171.2804              1172.1158
 Red. masses --      1.8497                 1.7089                 4.9106
 Frc consts  --      1.4885                 1.3813                 3.9749
 IR Inten    --      0.2024               233.3939               135.4932

                     13                     14                     15
                      A                      A                      A
 Frequencies --   1214.2719              1381.1029              1567.9711
 Red. masses --      1.2749                 4.4865                 5.6009
 Frc consts  --      1.1075                 5.0420                 8.1131
 IR Inten    --    111.2108               209.2213                90.0654

                     16                     17                     18
                      A                      A                      A
 Frequencies --   1847.6607              1850.2814              2958.4022
 Red. masses --      7.2268                 6.2263                 1.1004
 Frc consts  --     14.5358                12.5591                 5.6746
 IR Inten    --    188.7262                 7.8860                68.7858

                     19                     20                     21
                      A                      A                      A
 Frequencies --   2983.0744              3086.5905              3092.7928
 Red. masses --      1.1111                 1.1119                 1.1186
 Frc consts  --      5.8255                 6.2416                 6.3043
 IR Inten    --    202.6795                22.3974                34.7738

 - Thermochemistry -
 -------------------
 Temperature   298.150 Kelvin.  Pressure   1.00000 Atm.
 Atom     1 has atomic number  6 and mass  12.00000

 Molecular mass:    68.02621 amu.
 Principal axes and moments of inertia in atomic units:
                           1         2         3
     Eigenvalues --   183.46308 195.21125 378.67427
           X            1.00000  -0.00058  -0.00001
           Y            0.00058   1.00000   0.00000
           Z            0.00001   0.00000   1.00000
 This molecule is an asymmetric top.
 Rotational symmetry number  1.
 Rotational temperatures (Kelvin)      0.47210     0.44369     0.22873
 Rotational constants (GHZ):           9.83708     9.24507     4.76595
 Zero-point vibrational energy     187675.7 (Joules/Mol)
                                   44.85556 (Kcal/Mol)
 Warning -- explicit consideration of   2 degrees of freedom as
           vibrations may cause significant error
 Vibrational temperatures:    820.66   860.48  1077.34  1225.63  1389.14
          (Kelvin)           1430.36  1455.51  1518.32  1563.99  1681.47
                             1685.21  1686.41  1747.06  1987.10  2255.96
                             2658.37  2662.14  4256.48  4291.97  4440.91
                             4449.83

 Zero-point correction=                           0.071482 (Hartree/Particle)
 Thermal correction to Energy=                    0.075069
 Thermal correction to Enthalpy=                  0.076013
 Thermal correction to Gibbs Free Energy=         0.045265
 Sum of electronic and zero-point Energies=             -3.821869
 Sum of electronic and thermal Energies=                -3.818282
 Sum of electronic and thermal Enthalpies=              -3.817338
 Sum of electronic and thermal Free Energies=           -3.848086

                     E (Thermal)             CV                S
                      KCal/Mol        Cal/Mol-Kelvin    Cal/Mol-Kelvin
 Total                   47.107             12.262             64.715
 Electronic               0.000              0.000              0.000
 Translational            0.889              2.981             38.570
 Rotational               0.889              2.981             24.121
 Vibrational             45.329              6.301              2.024
 Vibration     1          0.926              1.095              0.503
 Vibration     2          0.956              1.036              0.453

 Optimization completed.
    -- Stationary point found.
 Normal termination of Gaussian 09 at Mon Dec  7 14:51:14 2015.
