 Gaussian 09, Revision D.01,
 Gaussian 09:  ES64L-G09RevD.01 24-Apr-2013

 ----------------------------
 #P AM1(Input,print) Opt Freq
 ----------------------------

 -----------------
 AM1-Reparam Input
 -----------------
 Symbolic Z-matrix:
 Charge =  0 Multiplicity = 1

 SCF Done:  E(RAM1) =  -3.87221119308     A.U. after   14 cycles
 SCF Done:  E(RAM1) =  -3.88977814363     A.U. after   13 cycles
 SCF Done:  E(RAM1) =  -3.89288061421     A.U. after   12 cycles
 SCF Done:  E(RAM1) =  -3.89329670821     A.U. after   12 cycles
 SCF Done:  E(RAM1) =  -3.89334242225     A.U. after   10 cycles
 SCF Done:  E(RAM1) =  -3.89334570461     A.U. after   12 cycles
 SCF Done:  E(RAM1) =  -3.89335108164     A.U. after   11 cycles
 Optimization completed.
    -- Stationary point found.
 Normal termination of Gaussian 09 at Mon Dec  7 14:51:17 2015.

 -------------------------------------------------------------
 #P Geom=AllCheck Guess=TCheck SCRF=Check GenChk RAM1/ZDO Freq
 -------------------------------------------------------------

 Structure from the checkpoint file:  "/home/Applications/g09/scratch/Gau-10494.chk"
 -----------------
 AM1-Reparam Input
 -----------------
 Charge =  0 Multiplicity = 1

                         Standard orientation:
 ---------------------------------------------------------------------
 Center     Atomic      Atomic             Coordinates (Angstroms)
 Number     Number       Type             X           Y           Z
 ---------------------------------------------------------------------
      1          6           0        0.727951    0.921951   -0.000014
      2          6           0        1.126029   -0.322908    0.000109
      3          8           0       -0.000226   -1.124576   -0.000084
      4          6           0       -1.126428   -0.322255   -0.000007
      5          6           0       -0.727444    0.922231    0.000009
      6          1           0       -1.325832    1.813184    0.000077
      7          1           0       -1.988037   -0.911445    0.000190
      8          1           0        1.988228   -0.911858    0.000059
      9          1           0        1.326807    1.812613   -0.000242
 ---------------------------------------------------------------------

 SCF Done:  E(RAM1) =  -3.89335108164     A.U. after    2 cycles

 The electronic state is 1-A.
 Alpha  occ. eigenvalues --   -1.63489  -1.26551  -1.16550  -0.97829  -0.93936
 Alpha  occ. eigenvalues --   -0.86499  -0.84808  -0.67135  -0.66369  -0.64104
 Alpha  occ. eigenvalues --   -0.61338  -0.59584  -0.47849
 Alpha virt. eigenvalues --    0.00210   0.03956   0.07680   0.10545   0.15716
 Alpha virt. eigenvalues --    0.16508   0.19222   0.19950   0.24055   0.27344
 Alpha virt. eigenvalues --    0.30464

 Mulliken charges:
               1
     1  C   -0.563336
     2  C    0.982764
     3  O   -1.071301
     4  C    0.982242
     5  C   -0.562776
     6  H    0.183362
     7  H   -0.067113
     8  H   -0.067245
     9  H    0.183403
 Sum of Mulliken charges =   0.00000

 Dipole moment (field-independent basis, Debye):
    X=             -0.0015    Y=              1.4764    Z=              0.0006  Tot=              1.4764
 N-N= 1.046859773876D+02 E-N=-1.742576092107D+02  KE=-2.018020385993D+01
  Exact polarizability:  26.343   0.005  34.117   0.000  -0.001   5.887
 Approx polarizability:  17.880   0.006  30.238   0.000  -0.001   4.292
 Leave Link  601 at Mon Dec  7 14:51:17 2015, MaxMem=    33554432 cpu:         0.0
 (Enter /home/Applications/g09/g09/l701.exe)
 Compute integral second derivatives.
 ... and contract with generalized density number  0.
 Leave Link  701 at Mon Dec  7 14:51:17 2015, MaxMem=    33554432 cpu:         0.0
 (Enter /home/Applications/g09/g09/l702.exe)
 L702 exits ... SP integral derivatives will be done elsewhere.

                      1                      2                      3
                      A                      A                      A
 Frequencies --    570.7950               598.3918               749.0569
 Red. masses --      1.7765                 2.5036                 5.8879
 Frc consts  --      0.3410                 0.5282                 1.9464
 IR Inten    --      0.0010                73.6665                34.7815

                      4                      5                      6
                      A                      A                      A
 Frequencies --    851.9384               965.8326               994.4080
 Red. masses --      7.3887                 1.1564                 1.1586
 Frc consts  --      3.1596                 0.6355                 0.6750
 IR Inten    --     21.1405                59.2083                14.2996

                      7                      8                      9
                      A                      A                      A
 Frequencies --   1011.9137              1055.7764              1087.8468
 Red. masses --      1.0691                 1.2948                 1.2084
 Frc consts  --      0.6450                 0.8504                 0.8426
 IR Inten    --     58.1075                 0.0031                12.6705

                     10                     11                     12
                      A                      A                      A
 Frequencies --   1169.0719              1171.8624              1172.6038
 Red. masses --      1.8455                 1.6884                 5.1696
 Frc consts  --      1.4861                 1.3661                 4.1880
 IR Inten    --      3.6948               231.3523               134.9407

                     13                     14                     15
                      A                      A                      A
 Frequencies --   1215.0529              1381.3468              1568.1023
 Red. masses --      1.2703                 4.4794                 5.5953
 Frc consts  --      1.1050                 5.0359                 8.1063
 IR Inten    --    109.5629               208.6563                90.2029

                     16                     17                     18
                      A                      A                      A
 Frequencies --   1847.1879              1849.8592              2958.0972
 Red. masses --      7.2260                 6.2256                 1.1004
 Frc consts  --     14.5268                12.5518                 5.6732
 IR Inten    --    188.4197                 7.9162                68.5792

                     19                     20                     21
                      A                      A                      A
 Frequencies --   2982.7093              3085.1689              3091.8383
 Red. masses --      1.1111                 1.1122                 1.1184
 Frc consts  --      5.8239                 6.2371                 6.2989
 IR Inten    --    202.6333                22.7805                34.3784

 - Thermochemistry -
 -------------------
 Temperature   298.150 Kelvin.  Pressure   1.00000 Atm.
 Atom     1 has atomic number  6 and mass  12.00000

 Molecular mass:    68.02621 amu.
 Principal axes and moments of inertia in atomic units:
                           1         2         3
     Eigenvalues --   183.49886 195.20663 378.70549
           X            1.00000   0.00001  -0.00001
           Y           -0.00001   1.00000  -0.00001
           Z            0.00001   0.00001   1.00000
 This molecule is an asymmetric top.
 Rotational symmetry number  1.
 Rotational temperatures (Kelvin)      0.47201     0.44370     0.22871
 Rotational constants (GHZ):           9.83516     9.24529     4.76555
 Zero-point vibrational energy     187687.3 (Joules/Mol)
                                   44.85833 (Kcal/Mol)
 Warning -- explicit consideration of   2 degrees of freedom as
           vibrations may cause significant error
 Vibrational temperatures:    821.25   860.95  1077.72  1225.75  1389.62
          (Kelvin)           1430.73  1455.92  1519.02  1565.17  1682.03
                             1686.05  1687.11  1748.19  1987.45  2256.15
                             2657.69  2661.53  4256.04  4291.45  4438.86
                             4448.46

 Zero-point correction=                           0.071486 (Hartree/Particle)
 Thermal correction to Energy=                    0.075072
 Thermal correction to Enthalpy=                  0.076017
 Thermal correction to Gibbs Free Energy=         0.045270
 Sum of electronic and zero-point Energies=             -3.821865
 Sum of electronic and thermal Energies=                -3.818279
 Sum of electronic and thermal Enthalpies=              -3.817334
 Sum of electronic and thermal Free Energies=           -3.848081

                     E (Thermal)             CV                S
                      KCal/Mol        Cal/Mol-Kelvin    Cal/Mol-Kelvin
 Total                   47.109             12.256             64.712
 Electronic               0.000              0.000              0.000
 Translational            0.889              2.981             38.570
 Rotational               0.889              2.981             24.121
 Vibrational             45.331              6.295              2.022
 Vibration     1          0.927              1.094              0.503
 Vibration     2          0.956              1.035              0.452

 Optimization completed.
    -- Stationary point found.
 Normal termination of Gaussian 09 at Mon Dec  7 14:51:17 2015.
