 Gaussian 09, Revision D.01,
 Gaussian 09:  ES64L-G09RevD.01 24-Apr-2013

 ----------------------------
 #P AM1(Input,print) Opt Freq
 ----------------------------

 -----------------
 AM1-Reparam Input
 -----------------
 Symbolic Z-matrix:
 Charge =  0 Multiplicity = 1

 SCF Done:  E(RAM1) =  -5.11227649714     A.U. after   13 cycles
 SCF Done:  E(RAM1) =  -5.13556966560     A.U. after   13 cycles
 SCF Done:  E(RAM1) =  -5.13716532882     A.U. after   12 cycles
 SCF Done:  E(RAM1) =  -5.13719049700     A.U. after   11 cycles
 SCF Done:  E(RAM1) =  -5.13725176096     A.U. after   11 cycles
 SCF Done:  E(RAM1) =  -5.13726642946     A.U. after   11 cycles
 SCF Done:  E(RAM1) =  -5.13726920785     A.U. after   10 cycles
 SCF Done:  E(RAM1) =  -5.13726954978     A.U. after    9 cycles
 Optimization completed.
    -- Stationary point found.
 Normal termination of Gaussian 09 at Mon Dec  7 13:25:20 2015.

 -------------------------------------------------------------
 #P Geom=AllCheck Guess=TCheck SCRF=Check GenChk RAM1/ZDO Freq
 -------------------------------------------------------------

 Structure from the checkpoint file:  "/home/Applications/g09/scratch/Gau-7350.chk"
 -----------------
 AM1-Reparam Input
 -----------------
 Charge =  0 Multiplicity = 1

                         Standard orientation:
 ---------------------------------------------------------------------
 Center     Atomic      Atomic             Coordinates (Angstroms)
 Number     Number       Type             X           Y           Z
 ---------------------------------------------------------------------
      1          6           0        0.751429    0.964585   -0.000151
      2          6           0        1.105992   -0.355888   -0.000008
      3          8           0       -0.000372   -1.162280    0.000037
      4          6           0       -1.106205   -0.355237   -0.000123
      5          6           0       -0.750858    0.965017    0.000130
      6          1           0       -1.384703    1.837087    0.000223
      7          1           0       -2.090841   -0.842433   -0.000004
      8          1           0        2.090481   -0.843511    0.000356
      9          1           0        1.385891    1.836237    0.000040
 ---------------------------------------------------------------------

 SCF Done:  E(RAM1) =  -5.13726954978     A.U. after    2 cycles

 The electronic state is 1-A.
 Alpha  occ. eigenvalues --   -1.65866  -1.27515  -1.20623  -1.04252  -0.98569
 Alpha  occ. eigenvalues --   -0.89167  -0.81009  -0.61680  -0.60464  -0.53339
 Alpha  occ. eigenvalues --   -0.50924  -0.48968  -0.37082
 Alpha virt. eigenvalues --    0.08069   0.13739   0.18627   0.21002   0.24049
 Alpha virt. eigenvalues --    0.24257   0.29042   0.30435   0.32747   0.36516
 Alpha virt. eigenvalues --    0.39632

 Mulliken charges:
               1
     1  C   -0.129134
     2  C    0.381128
     3  O   -0.977828
     4  C    0.381165
     5  C   -0.129158
     6  H    0.113407
     7  H    0.123499
     8  H    0.123507
     9  H    0.113414
 Sum of Mulliken charges =   0.00000

 Dipole moment (field-independent basis, Debye):
    X=              0.0011    Y=              2.8396    Z=              0.0000  Tot=              2.8396
 N-N= 1.034272255990D+02 E-N=-1.764896059661D+02  KE=-1.865022630698D+01
  Exact polarizability:  34.406   0.002  37.889   0.004   0.002   7.254
 Approx polarizability:  22.607   0.003  32.651   0.002   0.002   5.112
 Leave Link  601 at Mon Dec  7 13:25:20 2015, MaxMem=    33554432 cpu:         0.0
 (Enter /home/Applications/g09/g09/l701.exe)
 Compute integral second derivatives.
 ... and contract with generalized density number  0.
 Leave Link  701 at Mon Dec  7 13:25:20 2015, MaxMem=    33554432 cpu:         0.0
 (Enter /home/Applications/g09/g09/l702.exe)
 L702 exits ... SP integral derivatives will be done elsewhere.

                      1                      2                      3
                      A                      A                      A
 Frequencies --    641.2349               643.6101               886.8419
 Red. masses --      2.4102                 2.0699                 7.0835
 Frc consts  --      0.5839                 0.5052                 3.2824
 IR Inten    --     66.4409                 0.0223                 5.3495

                      4                      5                      6
                      A                      A                      A
 Frequencies --    924.0468              1041.1285              1096.3670
 Red. masses --      5.8422                 1.1727                 1.4341
 Frc consts  --      2.9391                 0.7490                 1.0157
 IR Inten    --     39.3441                17.6808                 0.0002

                      7                      8                      9
                      A                      A                      A
 Frequencies --   1107.0139              1114.6727              1125.2647
 Red. masses --      1.6650                 1.4468                 1.4705
 Frc consts  --      1.2022                 1.0592                 1.0970
 IR Inten    --      1.5094                 5.8686                 0.0000

                     10                     11                     12
                      A                      A                      A
 Frequencies --   1206.2669              1270.7081              1360.5103
 Red. masses --      1.1116                 2.2158                 1.2761
 Frc consts  --      0.9530                 2.1080                 1.3917
 IR Inten    --      9.0414                22.9673                47.6663

                     13                     14                     15
                      A                      A                      A
 Frequencies --   1413.9516              1649.9321              1727.7300
 Red. masses --      1.2203                 6.6962                 5.7869
 Frc consts  --      1.4374                10.7401                10.1776
 IR Inten    --      2.3266                 3.3661                31.6078

                     16                     17                     18
                      A                      A                      A
 Frequencies --   1742.6008              1749.9979              3389.9342
 Red. masses --     11.6778                 7.4869                 1.0718
 Frc consts  --     20.8932                13.5092                 7.2569
 IR Inten    --     89.8333               298.3552                46.1862

                     19                     20                     21
                      A                      A                      A
 Frequencies --   3396.5950              3518.8713              3523.7121
 Red. masses --      1.0775                 1.0767                 1.0819
 Frc consts  --      7.3240                 7.8553                 7.9151
 IR Inten    --     37.2491                16.2983                77.4871

 - Thermochemistry -
 -------------------
 Temperature   298.150 Kelvin.  Pressure   1.00000 Atm.
 Atom     1 has atomic number  6 and mass  12.00000

 Molecular mass:    68.02621 amu.
 Principal axes and moments of inertia in atomic units:
                           1         2         3
     Eigenvalues --   196.96843 198.48821 395.45663
           X            1.00000  -0.00215   0.00001
           Y            0.00215   1.00000   0.00000
           Z           -0.00001   0.00000   1.00000
 This molecule is an asymmetric top.
 Rotational symmetry number  1.
 Rotational temperatures (Kelvin)      0.43973     0.43637     0.21902
 Rotational constants (GHZ):           9.16259     9.09244     4.56369
 Zero-point vibrational energy     206541.2 (Joules/Mol)
                                   49.36453 (Kcal/Mol)
 Vibrational temperatures:    922.59   926.01  1275.97  1329.50  1497.95
          (Kelvin)           1577.43  1592.74  1603.76  1619.00  1735.55
                             1828.26  1957.47  2034.36  2373.88  2485.82
                             2507.21  2517.85  4877.35  4886.94  5062.86
                             5069.83

 Zero-point correction=                           0.078667 (Hartree/Particle)
 Thermal correction to Energy=                    0.082062
 Thermal correction to Enthalpy=                  0.083006
 Thermal correction to Gibbs Free Energy=         0.052453
 Sum of electronic and zero-point Energies=             -5.058602
 Sum of electronic and thermal Energies=                -5.055208
 Sum of electronic and thermal Enthalpies=              -5.054263
 Sum of electronic and thermal Free Energies=           -5.084817

                     E (Thermal)             CV                S
                      KCal/Mol        Cal/Mol-Kelvin    Cal/Mol-Kelvin
 Total                   51.495             10.977             64.305
 Electronic               0.000              0.000              0.000
 Translational            0.889              2.981             38.570
 Rotational               0.889              2.981             24.251
 Vibrational             49.717              5.016              1.485

 Optimization completed.
    -- Stationary point found.
 Normal termination of Gaussian 09 at Mon Dec  7 13:25:20 2015.
