 Gaussian 09, Revision D.01,
 Gaussian 09:  ES64L-G09RevD.01 24-Apr-2013

 ----------------------------
 #P AM1(Input,print) Opt Freq
 ----------------------------

 -----------------
 AM1-Reparam Input
 -----------------
 Symbolic Z-matrix:
 Charge =  0 Multiplicity = 1

 SCF Done:  E(RAM1) =  -5.11814075872     A.U. after   13 cycles
 SCF Done:  E(RAM1) =  -5.13460457851     A.U. after   12 cycles
 SCF Done:  E(RAM1) =  -5.13668178169     A.U. after   12 cycles
 SCF Done:  E(RAM1) =  -5.13712639764     A.U. after   12 cycles
 SCF Done:  E(RAM1) =  -5.13720467670     A.U. after   11 cycles
 SCF Done:  E(RAM1) =  -5.13726008439     A.U. after   11 cycles
 SCF Done:  E(RAM1) =  -5.13726924734     A.U. after   10 cycles
 Optimization completed.
    -- Stationary point found.
 Normal termination of Gaussian 09 at Mon Dec  7 13:25:24 2015.

 -------------------------------------------------------------
 #P Geom=AllCheck Guess=TCheck SCRF=Check GenChk RAM1/ZDO Freq
 -------------------------------------------------------------

 Structure from the checkpoint file:  "/home/Applications/g09/scratch/Gau-7360.chk"
 -----------------
 AM1-Reparam Input
 -----------------
 Charge =  0 Multiplicity = 1

                         Standard orientation:
 ---------------------------------------------------------------------
 Center     Atomic      Atomic             Coordinates (Angstroms)
 Number     Number       Type             X           Y           Z
 ---------------------------------------------------------------------
      1          6           0       -0.750192    0.965532    0.000074
      2          6           0       -1.106654   -0.354621    0.000088
      3          8           0       -0.001275   -1.162127   -0.000017
      4          6           0        1.105932   -0.356771    0.000063
      5          6           0        0.752359    0.964171   -0.000216
      6          1           0        1.387374    1.835533    0.000464
      7          1           0        2.089743   -0.845552    0.000017
      8          1           0       -2.091659   -0.840605   -0.000332
      9          1           0       -1.383937    1.837782   -0.000070
 ---------------------------------------------------------------------

 SCF Done:  E(RAM1) =  -5.13726924734     A.U. after    2 cycles

 The electronic state is 1-A.
 Alpha  occ. eigenvalues --   -1.65854  -1.27523  -1.20609  -1.04252  -0.98557
 Alpha  occ. eigenvalues --   -0.89154  -0.81010  -0.61685  -0.60457  -0.53327
 Alpha  occ. eigenvalues --   -0.50925  -0.48971  -0.37080
 Alpha virt. eigenvalues --    0.08069   0.13736   0.18627   0.21008   0.24050
 Alpha virt. eigenvalues --    0.24260   0.29042   0.30434   0.32749   0.36513
 Alpha virt. eigenvalues --    0.39626

 Mulliken charges:
               1
     1  C   -0.129162
     2  C    0.381131
     3  O   -0.977806
     4  C    0.381134
     5  C   -0.129129
     6  H    0.113411
     7  H    0.123538
     8  H    0.123526
     9  H    0.113357
 Sum of Mulliken charges =   0.00000

 Dipole moment (field-independent basis, Debye):
    X=              0.0029    Y=              2.8376    Z=              0.0004  Tot=              2.8376
 N-N= 1.034235913743D+02 E-N=-1.764839033339D+02  KE=-1.864974487684D+01
  Exact polarizability:  34.412   0.001  37.896   0.005  -0.002   7.255
 Approx polarizability:  22.613   0.010  32.656   0.002  -0.004   5.112
 Leave Link  601 at Mon Dec  7 13:25:25 2015, MaxMem=    33554432 cpu:         0.0
 (Enter /home/Applications/g09/g09/l701.exe)
 Compute integral second derivatives.
 ... and contract with generalized density number  0.
 Leave Link  701 at Mon Dec  7 13:25:25 2015, MaxMem=    33554432 cpu:         0.0
 (Enter /home/Applications/g09/g09/l702.exe)
 L702 exits ... SP integral derivatives will be done elsewhere.

                      1                      2                      3
                      A                      A                      A
 Frequencies --    641.1606               643.8819               886.6936
 Red. masses --      2.4069                 2.0697                 7.0832
 Frc consts  --      0.5830                 0.5056                 3.2812
 IR Inten    --     66.3775                 0.0897                 5.3384

                      4                      5                      6
                      A                      A                      A
 Frequencies --    923.6452              1041.5369              1095.9494
 Red. masses --      5.8518                 1.1729                 1.4339
 Frc consts  --      2.9414                 0.7497                 1.0147
 IR Inten    --     39.3431                17.6544                 0.0018

                      7                      8                      9
                      A                      A                      A
 Frequencies --   1106.6931              1114.3841              1125.6337
 Red. masses --      1.6659                 1.4514                 1.4710
 Frc consts  --      1.2021                 1.0619                 1.0982
 IR Inten    --      1.5475                 5.6901                 0.0000

                     10                     11                     12
                      A                      A                      A
 Frequencies --   1206.3780              1270.4854              1360.0831
 Red. masses --      1.1116                 2.2071                 1.2752
 Frc consts  --      0.9532                 2.0990                 1.3899
 IR Inten    --      9.0305                23.1437                47.6752

                     13                     14                     15
                      A                      A                      A
 Frequencies --   1413.7166              1649.2176              1727.2033
 Red. masses --      1.2203                 6.6885                 5.8189
 Frc consts  --      1.4369                10.7184                10.2276
 IR Inten    --      2.3286                 3.5046                29.0631

                     16                     17                     18
                      A                      A                      A
 Frequencies --   1742.6206              1749.6813              3390.8927
 Red. masses --     11.5285                 7.4995                 1.0719
 Frc consts  --     20.6266                13.5269                 7.2614
 IR Inten    --     92.9207               297.4139                46.1346

                     19                     20                     21
                      A                      A                      A
 Frequencies --   3397.6823              3518.0497              3522.8900
 Red. masses --      1.0774                 1.0767                 1.0819
 Frc consts  --      7.3283                 7.8517                 7.9114
 IR Inten    --     37.4702                16.3450                77.3081

 - Thermochemistry -
 -------------------
 Temperature   298.150 Kelvin.  Pressure   1.00000 Atm.
 Atom     1 has atomic number  6 and mass  12.00000

 Molecular mass:    68.02621 amu.
 Principal axes and moments of inertia in atomic units:
                           1         2         3
     Eigenvalues --   196.96584 198.55091 395.51674
           X            0.99992  -0.01225   0.00003
           Y            0.01225   0.99992   0.00002
           Z           -0.00003  -0.00002   1.00000
 This molecule is an asymmetric top.
 Rotational symmetry number  1.
 Rotational temperatures (Kelvin)      0.43974     0.43623     0.21899
 Rotational constants (GHZ):           9.16271     9.08956     4.56300
 Zero-point vibrational energy     206526.2 (Joules/Mol)
                                   49.36094 (Kcal/Mol)
 Vibrational temperatures:    922.49   926.40  1275.75  1328.92  1498.54
          (Kelvin)           1576.82  1592.28  1603.35  1619.53  1735.71
                             1827.94  1956.85  2034.02  2372.85  2485.06
                             2507.24  2517.40  4878.73  4888.50  5061.68
                             5068.65

 Zero-point correction=                           0.078662 (Hartree/Particle)
 Thermal correction to Energy=                    0.082056
 Thermal correction to Enthalpy=                  0.083000
 Thermal correction to Gibbs Free Energy=         0.052447
 Sum of electronic and zero-point Energies=             -5.058608
 Sum of electronic and thermal Energies=                -5.055213
 Sum of electronic and thermal Enthalpies=              -5.054269
 Sum of electronic and thermal Free Energies=           -5.084822

                     E (Thermal)             CV                S
                      KCal/Mol        Cal/Mol-Kelvin    Cal/Mol-Kelvin
 Total                   51.491             10.978             64.306
 Electronic               0.000              0.000              0.000
 Translational            0.889              2.981             38.570
 Rotational               0.889              2.981             24.251
 Vibrational             49.714              5.017              1.485

 Optimization completed.
    -- Stationary point found.
 Normal termination of Gaussian 09 at Mon Dec  7 13:25:25 2015.
