 Gaussian 09, Revision D.01,
 Gaussian 09:  ES64L-G09RevD.01 24-Apr-2013

 ----------------------------
 #P AM1(Input,print) Opt Freq
 ----------------------------

 -----------------
 AM1-Reparam Input
 -----------------
 Symbolic Z-matrix:
 Charge =  0 Multiplicity = 1

 SCF Done:  E(RAM1) =  -3.88232919512     A.U. after   14 cycles
 SCF Done:  E(RAM1) =  -3.89176496860     A.U. after   13 cycles
 SCF Done:  E(RAM1) =  -3.89305231506     A.U. after   13 cycles
 SCF Done:  E(RAM1) =  -3.89321833100     A.U. after   12 cycles
 SCF Done:  E(RAM1) =  -3.89334475077     A.U. after   12 cycles
 SCF Done:  E(RAM1) =  -3.89334945895     A.U. after   11 cycles
 SCF Done:  E(RAM1) =  -3.89335066699     A.U. after   11 cycles
 SCF Done:  E(RAM1) =  -3.89335143678     A.U. after   10 cycles
 Optimization completed.
    -- Stationary point found.
 Normal termination of Gaussian 09 at Mon Dec  7 14:51:15 2015.

 -------------------------------------------------------------
 #P Geom=AllCheck Guess=TCheck SCRF=Check GenChk RAM1/ZDO Freq
 -------------------------------------------------------------

 Structure from the checkpoint file:  "/home/Applications/g09/scratch/Gau-10491.chk"
 -----------------
 AM1-Reparam Input
 -----------------
 Charge =  0 Multiplicity = 1

                         Standard orientation:
 ---------------------------------------------------------------------
 Center     Atomic      Atomic             Coordinates (Angstroms)
 Number     Number       Type             X           Y           Z
 ---------------------------------------------------------------------
      1          6           0        0.727456    0.922166    0.000017
      2          6           0        1.126478   -0.322199   -0.000002
      3          8           0        0.000381   -1.124617    0.000011
      4          6           0       -1.126279   -0.322855    0.000027
      5          6           0       -0.728063    0.921758    0.000016
      6          1           0       -1.326962    1.812324   -0.000185
      7          1           0       -1.988283   -0.911562   -0.000118
      8          1           0        1.988907   -0.910331   -0.000161
      9          1           0        1.325738    1.813297    0.000027
 ---------------------------------------------------------------------

 SCF Done:  E(RAM1) =  -3.89335143678     A.U. after    2 cycles

 The electronic state is 1-A.
 Alpha  occ. eigenvalues --   -1.63474  -1.26545  -1.16558  -0.97820  -0.93941
 Alpha  occ. eigenvalues --   -0.86491  -0.84809  -0.67130  -0.66375  -0.64104
 Alpha  occ. eigenvalues --   -0.61338  -0.59587  -0.47856
 Alpha virt. eigenvalues --    0.00213   0.03958   0.07677   0.10542   0.15715
 Alpha virt. eigenvalues --    0.16510   0.19222   0.19947   0.24049   0.27348
 Alpha virt. eigenvalues --    0.30466

 Mulliken charges:
               1
     1  C   -0.563152
     2  C    0.982691
     3  O   -1.071451
     4  C    0.982614
     5  C   -0.563033
     6  H    0.183391
     7  H   -0.067234
     8  H   -0.067249
     9  H    0.183422
 Sum of Mulliken charges =   0.00000

 Dipole moment (field-independent basis, Debye):
    X=             -0.0006    Y=              1.4781    Z=             -0.0001  Tot=              1.4781
 N-N= 1.046846467118D+02 E-N=-1.742553199424D+02  KE=-2.018013530897D+01
  Exact polarizability:  26.344  -0.002  34.108   0.001   0.000   5.887
 Approx polarizability:  17.883  -0.004  30.227   0.000   0.000   4.292
 Leave Link  601 at Mon Dec  7 14:51:15 2015, MaxMem=    33554432 cpu:         0.0
 (Enter /home/Applications/g09/g09/l701.exe)
 Compute integral second derivatives.
 ... and contract with generalized density number  0.
 Leave Link  701 at Mon Dec  7 14:51:15 2015, MaxMem=    33554432 cpu:         0.0
 (Enter /home/Applications/g09/g09/l702.exe)
 L702 exits ... SP integral derivatives will be done elsewhere.

                      1                      2                      3
                      A                      A                      A
 Frequencies --    570.6730               598.3551               749.0204
 Red. masses --      1.7765                 2.5020                 5.8853
 Frc consts  --      0.3409                 0.5278                 1.9454
 IR Inten    --      0.0000                73.6591                34.7995

                      4                      5                      6
                      A                      A                      A
 Frequencies --    851.9949               965.8262               994.4217
 Red. masses --      7.3868                 1.1564                 1.1588
 Frc consts  --      3.1592                 0.6356                 0.6752
 IR Inten    --     21.1190                59.0872                14.2081

                      7                      8                      9
                      A                      A                      A
 Frequencies --   1011.9162              1055.6593              1087.1359
 Red. masses --      1.0694                 1.2944                 1.2082
 Frc consts  --      0.6452                 0.8499                 0.8413
 IR Inten    --     58.2091                 0.0001                12.5375

                     10                     11                     12
                      A                      A                      A
 Frequencies --   1168.9777              1171.6190              1171.7882
 Red. masses --      1.8487                 1.6866                 5.1116
 Frc consts  --      1.4884                 1.3641                 4.1352
 IR Inten    --      0.1154               235.2012               134.0216

                     13                     14                     15
                      A                      A                      A
 Frequencies --   1214.5527              1380.9647              1567.7698
 Red. masses --      1.2737                 4.4777                 5.5981
 Frc consts  --      1.1070                 5.0312                 8.1069
 IR Inten    --    110.8130               209.0086                90.0134

                     16                     17                     18
                      A                      A                      A
 Frequencies --   1847.5539              1850.2152              2957.9847
 Red. masses --      7.2239                 6.2242                 1.1004
 Frc consts  --     14.5284                12.5538                 5.6729
 IR Inten    --    188.7012                 7.8039                68.6065

                     19                     20                     21
                      A                      A                      A
 Frequencies --   2982.5990              3085.8432              3091.9636
 Red. masses --      1.1111                 1.1119                 1.1187
 Frc consts  --      5.8236                 6.2384                 6.3015
 IR Inten    --    202.7476                22.2436                34.9117

 - Thermochemistry -
 -------------------
 Temperature   298.150 Kelvin.  Pressure   1.00000 Atm.
 Atom     1 has atomic number  6 and mass  12.00000

 Molecular mass:    68.02621 amu.
 Principal axes and moments of inertia in atomic units:
                           1         2         3
     Eigenvalues --   183.46898 195.25705 378.72603
           X            1.00000   0.00028   0.00000
           Y           -0.00028   1.00000   0.00000
           Z            0.00000   0.00000   1.00000
 This molecule is an asymmetric top.
 Rotational symmetry number  1.
 Rotational temperatures (Kelvin)      0.47209     0.44359     0.22870
 Rotational constants (GHZ):           9.83676     9.24290     4.76529
 Zero-point vibrational energy     187675.1 (Joules/Mol)
                                   44.85544 (Kcal/Mol)
 Warning -- explicit consideration of   2 degrees of freedom as
           vibrations may cause significant error
 Vibrational temperatures:    821.07   860.90  1077.67  1225.83  1389.61
          (Kelvin)           1430.75  1455.92  1518.86  1564.14  1681.90
                             1685.70  1685.94  1747.47  1986.90  2255.67
                             2658.21  2662.04  4255.87  4291.29  4439.83
                             4448.64

 Zero-point correction=                           0.071482 (Hartree/Particle)
 Thermal correction to Energy=                    0.075068
 Thermal correction to Enthalpy=                  0.076012
 Thermal correction to Gibbs Free Energy=         0.045265
 Sum of electronic and zero-point Energies=             -3.821870
 Sum of electronic and thermal Energies=                -3.818283
 Sum of electronic and thermal Enthalpies=              -3.817339
 Sum of electronic and thermal Free Energies=           -3.848086

                     E (Thermal)             CV                S
                      KCal/Mol        Cal/Mol-Kelvin    Cal/Mol-Kelvin
 Total                   47.106             12.259             64.713
 Electronic               0.000              0.000              0.000
 Translational            0.889              2.981             38.570
 Rotational               0.889              2.981             24.121
 Vibrational             45.329              6.297              2.022
 Vibration     1          0.927              1.095              0.503
 Vibration     2          0.956              1.035              0.452

 Optimization completed.
    -- Stationary point found.
 Normal termination of Gaussian 09 at Mon Dec  7 14:51:15 2015.
