 Gaussian 09, Revision D.01,
 Gaussian 09:  ES64L-G09RevD.01 24-Apr-2013

 ----------------------------
 #P AM1(Input,print) Opt Freq
 ----------------------------

 -----------------
 AM1-Reparam Input
 -----------------
 Symbolic Z-matrix:
 Charge =  0 Multiplicity = 1

 SCF Done:  E(RAM1) =  -5.11499788951     A.U. after   14 cycles
 SCF Done:  E(RAM1) =  -5.13214979124     A.U. after   13 cycles
 SCF Done:  E(RAM1) =  -5.13661937282     A.U. after   12 cycles
 SCF Done:  E(RAM1) =  -5.13714859049     A.U. after   11 cycles
 SCF Done:  E(RAM1) =  -5.13724500991     A.U. after   11 cycles
 SCF Done:  E(RAM1) =  -5.13723780247     A.U. after   11 cycles
 SCF Done:  E(RAM1) =  -5.13726919486     A.U. after   10 cycles
 Optimization completed.
    -- Stationary point found.
 Normal termination of Gaussian 09 at Mon Dec  7 13:25:23 2015.

 -------------------------------------------------------------
 #P Geom=AllCheck Guess=TCheck SCRF=Check GenChk RAM1/ZDO Freq
 -------------------------------------------------------------

 Structure from the checkpoint file:  "/home/Applications/g09/scratch/Gau-7357.chk"
 -----------------
 AM1-Reparam Input
 -----------------
 Charge =  0 Multiplicity = 1

                         Standard orientation:
 ---------------------------------------------------------------------
 Center     Atomic      Atomic             Coordinates (Angstroms)
 Number     Number       Type             X           Y           Z
 ---------------------------------------------------------------------
      1          6           0       -0.752525    0.963900    0.000032
      2          6           0       -1.105696   -0.356961    0.000002
      3          8           0        0.001552   -1.162274   -0.000139
      4          6           0        1.106573   -0.354310    0.000125
      5          6           0        0.749684    0.965711   -0.000150
      6          1           0        1.383781    1.837841   -0.000375
      7          1           0        2.092223   -0.839613    0.000746
      8          1           0       -2.089464   -0.845347    0.000110
      9          1           0       -1.387174    1.835272    0.000583
 ---------------------------------------------------------------------

 SCF Done:  E(RAM1) =  -5.13726919486     A.U. after    2 cycles

 The electronic state is 1-A.
 Alpha  occ. eigenvalues --   -1.65865  -1.27516  -1.20621  -1.04253  -0.98567
 Alpha  occ. eigenvalues --   -0.89166  -0.81011  -0.61684  -0.60463  -0.53337
 Alpha  occ. eigenvalues --   -0.50921  -0.48969  -0.37079
 Alpha virt. eigenvalues --    0.08067   0.13739   0.18626   0.21008   0.24049
 Alpha virt. eigenvalues --    0.24259   0.29042   0.30436   0.32746   0.36514
 Alpha virt. eigenvalues --    0.39632

 Mulliken charges:
               1
     1  C   -0.129097
     2  C    0.381121
     3  O   -0.977761
     4  C    0.381082
     5  C   -0.129149
     6  H    0.113362
     7  H    0.123525
     8  H    0.123491
     9  H    0.113427
 Sum of Mulliken charges =   0.00000

 Dipole moment (field-independent basis, Debye):
    X=             -0.0025    Y=              2.8392    Z=              0.0013  Tot=              2.8392
 N-N= 1.034268225659D+02 E-N=-1.764889845505D+02  KE=-1.865015436384D+01
  Exact polarizability:  34.415  -0.004  37.884   0.001  -0.002   7.254
 Approx polarizability:  22.614  -0.013  32.648   0.001  -0.002   5.112
 Leave Link  601 at Mon Dec  7 13:25:23 2015, MaxMem=    33554432 cpu:         0.0
 (Enter /home/Applications/g09/g09/l701.exe)
 Compute integral second derivatives.
 ... and contract with generalized density number  0.
 Leave Link  701 at Mon Dec  7 13:25:23 2015, MaxMem=    33554432 cpu:         0.0
 (Enter /home/Applications/g09/g09/l702.exe)
 L702 exits ... SP integral derivatives will be done elsewhere.

                      1                      2                      3
                      A                      A                      A
 Frequencies --    641.2040               643.6679               886.8657
 Red. masses --      2.4066                 2.0704                 7.0836
 Frc consts  --      0.5830                 0.5054                 3.2826
 IR Inten    --     66.2325                 0.2221                 5.3356

                      4                      5                      6
                      A                      A                      A
 Frequencies --    924.0477              1041.2326              1095.9785
 Red. masses --      5.8409                 1.1729                 1.4343
 Frc consts  --      2.9385                 0.7492                 1.0150
 IR Inten    --     39.3291                17.6472                 0.0044

                      7                      8                      9
                      A                      A                      A
 Frequencies --   1106.7245              1114.7982              1125.3885
 Red. masses --      1.6649                 1.4466                 1.4712
 Frc consts  --      1.2015                 1.0592                 1.0978
 IR Inten    --      1.5302                 5.8682                 0.0010

                     10                     11                     12
                      A                      A                      A
 Frequencies --   1206.3149              1270.8445              1360.4069
 Red. masses --      1.1117                 2.2134                 1.2771
 Frc consts  --      0.9531                 2.1062                 1.3926
 IR Inten    --      9.0385                22.8978                47.7057

                     13                     14                     15
                      A                      A                      A
 Frequencies --   1413.8494              1649.6716              1727.4866
 Red. masses --      1.2203                 6.6923                 5.8019
 Frc consts  --      1.4372                10.7305                10.2012
 IR Inten    --      2.3198                 3.4569                30.5085

                     16                     17                     18
                      A                      A                      A
 Frequencies --   1742.5963              1749.9115              3390.6993
 Red. masses --     11.6022                 7.5000                 1.0719
 Frc consts  --     20.7580                13.5314                 7.2610
 IR Inten    --     91.4367               297.6137                45.9942

                     19                     20                     21
                      A                      A                      A
 Frequencies --   3397.7301              3518.3294              3523.6283
 Red. masses --      1.0773                 1.0769                 1.0817
 Frc consts  --      7.3279                 7.8545                 7.9131
 IR Inten    --     37.5559                18.9055                74.7665

 - Thermochemistry -
 -------------------
 Temperature   298.150 Kelvin.  Pressure   1.00000 Atm.
 Atom     1 has atomic number  6 and mass  12.00000

 Molecular mass:    68.02621 amu.
 Principal axes and moments of inertia in atomic units:
                           1         2         3
     Eigenvalues --   196.96392 198.49990 395.46381
           X            0.99987   0.01606   0.00000
           Y           -0.01606   0.99987  -0.00001
           Z            0.00000   0.00001   1.00000
 This molecule is an asymmetric top.
 Rotational symmetry number  1.
 Rotational temperatures (Kelvin)      0.43974     0.43634     0.21902
 Rotational constants (GHZ):           9.16280     9.09190     4.56361
 Zero-point vibrational energy     206543.5 (Joules/Mol)
                                   49.36508 (Kcal/Mol)
 Vibrational temperatures:    922.55   926.09  1276.00  1329.50  1498.10
          (Kelvin)           1576.87  1592.33  1603.94  1619.18  1735.62
                             1828.46  1957.32  2034.21  2373.51  2485.46
                             2507.20  2517.73  4878.45  4888.57  5062.08
                             5069.71

 Zero-point correction=                           0.078668 (Hartree/Particle)
 Thermal correction to Energy=                    0.082063
 Thermal correction to Enthalpy=                  0.083007
 Thermal correction to Gibbs Free Energy=         0.052454
 Sum of electronic and zero-point Energies=             -5.058601
 Sum of electronic and thermal Energies=                -5.055206
 Sum of electronic and thermal Enthalpies=              -5.054262
 Sum of electronic and thermal Free Energies=           -5.084816

                     E (Thermal)             CV                S
                      KCal/Mol        Cal/Mol-Kelvin    Cal/Mol-Kelvin
 Total                   51.495             10.978             64.305
 Electronic               0.000              0.000              0.000
 Translational            0.889              2.981             38.570
 Rotational               0.889              2.981             24.251
 Vibrational             49.718              5.016              1.485

 Optimization completed.
    -- Stationary point found.
 Normal termination of Gaussian 09 at Mon Dec  7 13:25:23 2015.
