 Gaussian 09, Revision D.01,
 Gaussian 09:  ES64L-G09RevD.01 24-Apr-2013

 ----------------------------
 #P AM1(Input,print) Opt Freq
 ----------------------------

 -----------------
 AM1-Reparam Input
 -----------------
 Symbolic Z-matrix:
 Charge =  0 Multiplicity = 1

 SCF Done:  E(RAM1) =  -5.10860407453     A.U. after   13 cycles
 SCF Done:  E(RAM1) =  -5.13179018148     A.U. after   13 cycles
 SCF Done:  E(RAM1) =  -5.13637759870     A.U. after   11 cycles
 SCF Done:  E(RAM1) =  -5.13712185858     A.U. after   12 cycles
 SCF Done:  E(RAM1) =  -5.13721084744     A.U. after   11 cycles
 SCF Done:  E(RAM1) =  -5.13725432202     A.U. after   11 cycles
 SCF Done:  E(RAM1) =  -5.13726843877     A.U. after   10 cycles
 SCF Done:  E(RAM1) =  -5.13726762124     A.U. after   10 cycles
 SCF Done:  E(RAM1) =  -5.13726960426     A.U. after    9 cycles
 Optimization completed.
    -- Stationary point found.
 Normal termination of Gaussian 09 at Mon Dec  7 13:25:21 2015.

 -------------------------------------------------------------
 #P Geom=AllCheck Guess=TCheck SCRF=Check GenChk RAM1/ZDO Freq
 -------------------------------------------------------------

 Structure from the checkpoint file:  "/home/Applications/g09/scratch/Gau-7354.chk"
 -----------------
 AM1-Reparam Input
 -----------------
 Charge =  0 Multiplicity = 1

                         Standard orientation:
 ---------------------------------------------------------------------
 Center     Atomic      Atomic             Coordinates (Angstroms)
 Number     Number       Type             X           Y           Z
 ---------------------------------------------------------------------
      1          6           0        0.750873    0.965006   -0.000001
      2          6           0        1.106190   -0.355327   -0.000017
      3          8           0        0.000290   -1.162280    0.000007
      4          6           0       -1.106001   -0.355865   -0.000008
      5          6           0       -0.751351    0.964645   -0.000025
      6          1           0       -1.385889    1.836271   -0.000021
      7          1           0       -2.090426   -0.843291    0.000131
      8          1           0        2.090789   -0.842448   -0.000016
      9          1           0        1.384945    1.836958    0.000163
 ---------------------------------------------------------------------

 SCF Done:  E(RAM1) =  -5.13726960426     A.U. after    2 cycles

 The electronic state is 1-A.
 Alpha  occ. eigenvalues --   -1.65868  -1.27518  -1.20624  -1.04254  -0.98567
 Alpha  occ. eigenvalues --   -0.89167  -0.81010  -0.61682  -0.60464  -0.53338
 Alpha  occ. eigenvalues --   -0.50922  -0.48970  -0.37080
 Alpha virt. eigenvalues --    0.08068   0.13738   0.18627   0.21005   0.24050
 Alpha virt. eigenvalues --    0.24259   0.29042   0.30435   0.32747   0.36515
 Alpha virt. eigenvalues --    0.39631

 Mulliken charges:
               1
     1  C   -0.129138
     2  C    0.381126
     3  O   -0.977783
     4  C    0.381115
     5  C   -0.129130
     6  H    0.113406
     7  H    0.123499
     8  H    0.123502
     9  H    0.113403
 Sum of Mulliken charges =   0.00000

 Dipole moment (field-independent basis, Debye):
    X=             -0.0007    Y=              2.8393    Z=              0.0001  Tot=              2.8393
 N-N= 1.034274012070D+02 E-N=-1.764898330955D+02  KE=-1.865025751428D+01
  Exact polarizability:  34.408  -0.002  37.888   0.000   0.000   7.254
 Approx polarizability:  22.609  -0.003  32.651   0.000   0.000   5.112
 Leave Link  601 at Mon Dec  7 13:25:22 2015, MaxMem=    33554432 cpu:         0.0
 (Enter /home/Applications/g09/g09/l701.exe)
 Compute integral second derivatives.
 ... and contract with generalized density number  0.
 Leave Link  701 at Mon Dec  7 13:25:22 2015, MaxMem=    33554432 cpu:         0.0
 (Enter /home/Applications/g09/g09/l702.exe)
 L702 exits ... SP integral derivatives will be done elsewhere.

                      1                      2                      3
                      A                      A                      A
 Frequencies --    641.1038               643.6229               886.8574
 Red. masses --      2.4081                 2.0694                 7.0833
 Frc consts  --      0.5832                 0.5051                 3.2824
 IR Inten    --     66.4512                 0.0008                 5.3398

                      4                      5                      6
                      A                      A                      A
 Frequencies --    924.0520              1041.2192              1096.0246
 Red. masses --      5.8403                 1.1729                 1.4338
 Frc consts  --      2.9382                 0.7492                 1.0148
 IR Inten    --     39.3524                17.6545                 0.0000

                      7                      8                      9
                      A                      A                      A
 Frequencies --   1106.7341              1114.7805              1125.3618
 Red. masses --      1.6658                 1.4466                 1.4711
 Frc consts  --      1.2022                 1.0592                 1.0977
 IR Inten    --      1.5353                 5.8687                 0.0000

                     10                     11                     12
                      A                      A                      A
 Frequencies --   1206.2853              1270.8070              1360.3631
 Red. masses --      1.1116                 2.2139                 1.2770
 Frc consts  --      0.9530                 2.1065                 1.3923
 IR Inten    --      9.0343                22.9100                47.6813

                     13                     14                     15
                      A                      A                      A
 Frequencies --   1413.7981              1649.7532              1727.5442
 Red. masses --      1.2203                 6.6929                 5.7977
 Frc consts  --      1.4371                10.7326                10.1944
 IR Inten    --      2.3269                 3.4435                30.7935

                     16                     17                     18
                      A                      A                      A
 Frequencies --   1742.6610              1749.9712              3390.7144
 Red. masses --     11.6381                 7.4934                 1.0718
 Frc consts  --     20.8237                13.5204                 7.2602
 IR Inten    --     90.5428               298.2929                46.2050

                     19                     20                     21
                      A                      A                      A
 Frequencies --   3397.3682              3518.6291              3523.4667
 Red. masses --      1.0775                 1.0767                 1.0819
 Frc consts  --      7.3274                 7.8542                 7.9140
 IR Inten    --     37.2989                16.2830                77.4339

 - Thermochemistry -
 -------------------
 Temperature   298.150 Kelvin.  Pressure   1.00000 Atm.
 Atom     1 has atomic number  6 and mass  12.00000

 Molecular mass:    68.02621 amu.
 Principal axes and moments of inertia in atomic units:
                           1         2         3
     Eigenvalues --   196.97199 198.48437 395.45635
           X            1.00000   0.00154   0.00000
           Y           -0.00154   1.00000   0.00000
           Z            0.00000   0.00000   1.00000
 This molecule is an asymmetric top.
 Rotational symmetry number  1.
 Rotational temperatures (Kelvin)      0.43973     0.43638     0.21902
 Rotational constants (GHZ):           9.16243     9.09261     4.56369
 Zero-point vibrational energy     206542.0 (Joules/Mol)
                                   49.36471 (Kcal/Mol)
 Vibrational temperatures:    922.40   926.03  1275.99  1329.50  1498.08
          (Kelvin)           1576.93  1592.34  1603.92  1619.14  1735.57
                             1828.41  1957.26  2034.14  2373.62  2485.55
                             2507.30  2517.82  4878.48  4888.05  5062.52
                             5069.48

 Zero-point correction=                           0.078668 (Hartree/Particle)
 Thermal correction to Energy=                    0.082062
 Thermal correction to Enthalpy=                  0.083006
 Thermal correction to Gibbs Free Energy=         0.052453
 Sum of electronic and zero-point Energies=             -5.058602
 Sum of electronic and thermal Energies=                -5.055207
 Sum of electronic and thermal Enthalpies=              -5.054263
 Sum of electronic and thermal Free Energies=           -5.084817

                     E (Thermal)             CV                S
                      KCal/Mol        Cal/Mol-Kelvin    Cal/Mol-Kelvin
 Total                   51.495             10.978             64.305
 Electronic               0.000              0.000              0.000
 Translational            0.889              2.981             38.570
 Rotational               0.889              2.981             24.251
 Vibrational             49.717              5.016              1.485

 Optimization completed.
    -- Stationary point found.
 Normal termination of Gaussian 09 at Mon Dec  7 13:25:22 2015.
