 Gaussian 09, Revision D.01,
 Gaussian 09:  ES64L-G09RevD.01 24-Apr-2013

 ----------------------------
 #P AM1(Input,print) Opt Freq
 ----------------------------

 -----------------
 AM1-Reparam Input
 -----------------
 Symbolic Z-matrix:
 Charge =  0 Multiplicity = 1

 SCF Done:  E(RAM1) =   2.32810303911     A.U. after   13 cycles
 SCF Done:  E(RAM1) =   2.00302496629     A.U. after   12 cycles
 SCF Done:  E(RAM1) =   1.65398387928     A.U. after   12 cycles
 SCF Done:  E(RAM1) =   1.56431788391     A.U. after   12 cycles
 SCF Done:  E(RAM1) =   1.49962940432     A.U. after   11 cycles
 SCF Done:  E(RAM1) =   1.47373213380     A.U. after   11 cycles
 SCF Done:  E(RAM1) =   1.46713920671     A.U. after   10 cycles
 SCF Done:  E(RAM1) =   1.46592125362     A.U. after   11 cycles
 SCF Done:  E(RAM1) =   1.46481398480     A.U. after   11 cycles
 SCF Done:  E(RAM1) =   1.46150151853     A.U. after   10 cycles
 SCF Done:  E(RAM1) =   1.46147063742     A.U. after   10 cycles
 SCF Done:  E(RAM1) =   1.46319161428     A.U. after   11 cycles
 SCF Done:  E(RAM1) =   1.46131447988     A.U. after    7 cycles
 SCF Done:  E(RAM1) =   1.46116862864     A.U. after   10 cycles
 SCF Done:  E(RAM1) =   1.46115913170     A.U. after    9 cycles
 SCF Done:  E(RAM1) =   1.46115609125     A.U. after    9 cycles
 SCF Done:  E(RAM1) =   1.46115317228     A.U. after    9 cycles
 Optimization completed.
    -- Stationary point found.
 Normal termination of Gaussian 09 at Thu Dec 24 08:56:32 2015.

 -------------------------------------------------------------
 #P Geom=AllCheck Guess=TCheck SCRF=Check GenChk RAM1/ZDO Freq
 -------------------------------------------------------------

 Structure from the checkpoint file:  "/home/Applications/g09/scratch/Gau-30401.chk"
 -----------------
 AM1-Reparam Input
 -----------------
 Charge =  0 Multiplicity = 1

                         Standard orientation:
 ---------------------------------------------------------------------
 Center     Atomic      Atomic             Coordinates (Angstroms)
 Number     Number       Type             X           Y           Z
 ---------------------------------------------------------------------
      1          6           0       -0.720858    0.951345    0.000136
      2          6           0       -1.120935   -0.338747    0.000003
      3          8           0        0.000589   -1.180407   -0.000133
      4          6           0        1.121349   -0.337631   -0.000024
      5          6           0        0.719838    0.952009    0.000023
      6          1           0        1.357259    1.856191   -0.000831
      7          1           0        2.111606   -0.813821    0.000945
      8          1           0       -2.110810   -0.815761    0.000047
      9          1           0       -1.359142    1.854793    0.000074
 ---------------------------------------------------------------------

 SCF Done:  E(RAM1) =   1.46115317228     A.U. after    2 cycles

 The electronic state is 1-A.
 Alpha  occ. eigenvalues --   -1.59175  -1.15947  -1.06551  -0.96766  -0.86468
 Alpha  occ. eigenvalues --   -0.82324  -0.77512  -0.62507  -0.58085  -0.57366
 Alpha  occ. eigenvalues --   -0.54369  -0.49352  -0.41497
 Alpha virt. eigenvalues --    0.04766   0.09311   0.13328   0.13915   0.19660
 Alpha virt. eigenvalues --    0.21631   0.22785   0.25259   0.30791   0.32917
 Alpha virt. eigenvalues --    0.35443

 Mulliken charges:
               1
     1  C   -0.104386
     2  C    0.191815
     3  O   -0.152098
     4  C    0.191796
     5  C   -0.104390
     6  H    0.008659
     7  H   -0.020016
     8  H   -0.020017
     9  H    0.008637
 Sum of Mulliken charges =   0.00000

 Dipole moment (field-independent basis, Debye):
    X=              0.0000    Y=              0.1505    Z=             -0.0002  Tot=              0.1505
 N-N= 1.058169597407D+02 E-N=-1.713106971765D+02  KE=-1.644252870253D+01
  Exact polarizability:  35.905  -0.001  36.306   0.000   0.000   6.748
 Approx polarizability:  29.338  -0.003  33.872   0.000   0.002   5.047
 Leave Link  601 at Thu Dec 24 08:56:32 2015, MaxMem=    33554432 cpu:         0.0
 (Enter /home/Applications/g09/g09/l701.exe)
 Compute integral second derivatives.
 ... and contract with generalized density number  0.
 Leave Link  701 at Thu Dec 24 08:56:32 2015, MaxMem=    33554432 cpu:         0.0
 (Enter /home/Applications/g09/g09/l702.exe)
 L702 exits ... SP integral derivatives will be done elsewhere.

                      1                      2                      3
                      A                      A                      A
 Frequencies --    639.6945               643.6852               925.9180
 Red. masses --      2.4353                 1.9785                 6.1240
 Frc consts  --      0.5872                 0.4830                 3.0934
 IR Inten    --      2.8431                 0.0000                 1.6416

                      4                      5                      6
                      A                      A                      A
 Frequencies --    930.8976               976.0774              1089.9067
 Red. masses --      6.8304                 1.1999                 1.2808
 Frc consts  --      3.4874                 0.6736                 0.8964
 IR Inten    --      0.3349                 0.6854                 0.0003

                      7                      8                      9
                      A                      A                      A
 Frequencies --   1098.0420              1102.8646              1120.2381
 Red. masses --      1.6050                 1.2703                 1.5896
 Frc consts  --      1.1402                 0.9103                 1.1753
 IR Inten    --      6.6924                13.2295                 0.8884

                     10                     11                     12
                      A                      A                      A
 Frequencies --   1129.8828              1191.4180              1244.7231
 Red. masses --      1.7456                 1.2217                 2.6541
 Frc consts  --      1.3130                 1.0217                 2.4228
 IR Inten    --      0.0000                 8.8199                10.9870

                     13                     14                     15
                      A                      A                      A
 Frequencies --   1253.6053              1301.4096              1435.1006
 Red. masses --      5.6067                 1.2058                 3.4549
 Frc consts  --      5.1914                 1.2033                 4.1922
 IR Inten    --     26.5306                 2.7848                61.3507

                     16                     17                     18
                      A                      A                      A
 Frequencies --   1607.0724              1662.9267              3455.5761
 Red. masses --      6.7772                 7.0576                 1.0779
 Frc consts  --     10.3127                11.4988                 7.5832
 IR Inten    --     24.0678                 7.1181                42.3181

                     19                     20                     21
                      A                      A                      A
 Frequencies --   3459.0022              3475.9994              3483.3525
 Red. masses --      1.0779                 1.0774                 1.0865
 Frc consts  --      7.5986                 7.6699                 7.7674
 IR Inten    --     92.2630                58.8495                 4.3708

 - Thermochemistry -
 -------------------
 Temperature   298.150 Kelvin.  Pressure   1.00000 Atm.
 Atom     1 has atomic number  6 and mass  12.00000

 Molecular mass:    68.02621 amu.
 Principal axes and moments of inertia in atomic units:
                           1         2         3
     Eigenvalues --   196.34988 197.56245 393.91232
           X            0.99999   0.00531   0.00001
           Y           -0.00531   0.99999  -0.00004
           Z           -0.00001   0.00004   1.00000
 This molecule is an asymmetric top.
 Rotational symmetry number  1.
 Rotational temperatures (Kelvin)      0.44112     0.43841     0.21988
 Rotational constants (GHZ):           9.19146     9.13504     4.58158
 Zero-point vibrational energy     198743.9 (Joules/Mol)
                                   47.50094 (Kcal/Mol)
 Vibrational temperatures:    920.38   926.12  1332.19  1339.35  1404.36
          (Kelvin)           1568.13  1579.84  1586.77  1611.77  1625.65
                             1714.18  1790.88  1803.66  1872.44  2064.79
                             2312.22  2392.58  4971.80  4976.73  5001.18
                             5011.76

 Zero-point correction=                           0.075698 (Hartree/Particle)
 Thermal correction to Energy=                    0.079133
 Thermal correction to Enthalpy=                  0.080077
 Thermal correction to Gibbs Free Energy=         0.049481
 Sum of electronic and zero-point Energies=              1.536851
 Sum of electronic and thermal Energies=                 1.540286
 Sum of electronic and thermal Enthalpies=               1.541231
 Sum of electronic and thermal Free Energies=            1.510634

                     E (Thermal)             CV                S
                      KCal/Mol        Cal/Mol-Kelvin    Cal/Mol-Kelvin
 Total                   49.657             11.441             64.396
 Electronic               0.000              0.000              0.000
 Translational            0.889              2.981             38.570
 Rotational               0.889              2.981             24.239
 Vibrational             47.879              5.480              1.587

 Optimization completed.
    -- Stationary point found.
 Normal termination of Gaussian 09 at Thu Dec 24 08:56:33 2015.
