 Gaussian 09, Revision D.01,
 Gaussian 09:  ES64L-G09RevD.01 24-Apr-2013

 -----------------------
 #P B3LYP/3-21G Opt Freq
 -----------------------

 --------
 FuranDFT
 --------
 Symbolic Z-matrix:
 Charge =  0 Multiplicity = 1

 SCF Done:  E(RB3LYP) =  -228.750961372     A.U. after   13 cycles
 SCF Done:  E(RB3LYP) =  -228.753274446     A.U. after   13 cycles
 SCF Done:  E(RB3LYP) =  -228.753498809     A.U. after   12 cycles
 SCF Done:  E(RB3LYP) =  -228.753539189     A.U. after    9 cycles
 SCF Done:  E(RB3LYP) =  -228.753540568     A.U. after    8 cycles
 Optimization completed.
    -- Stationary point found.
 Normal termination of Gaussian 09 at Mon Nov 23 13:49:40 2015.

 -----------------------------------------------------------------
 #P Geom=AllCheck Guess=TCheck SCRF=Check GenChk RB3LYP/3-21G Freq
 -----------------------------------------------------------------

 Structure from the checkpoint file:  "/home/Applications/g09/scratch/Gau-6850.chk"
 --------
 FuranDFT
 --------
 Charge =  0 Multiplicity = 1

                         Standard orientation:
 ---------------------------------------------------------------------
 Center     Atomic      Atomic             Coordinates (Angstroms)
 Number     Number       Type             X           Y           Z
 ---------------------------------------------------------------------
      1          6           0        0.000000    0.723156   -0.962044
      2          6           0        0.000000    1.119942    0.340315
      3          8           0        0.000000    0.000000    1.182123
      4          6           0        0.000000   -1.119942    0.340315
      5          6           0        0.000000   -0.723156   -0.962044
      6          1           0        0.000000   -1.363533   -1.827379
      7          1           0        0.000000   -2.076333    0.829262
      8          1           0        0.000000    2.076333    0.829262
      9          1           0        0.000000    1.363533   -1.827379
 ---------------------------------------------------------------------

 SCF Done:  E(RB3LYP) =  -228.753540568     A.U. after    1 cycles

 The electronic state is 1-A1.
 Alpha  occ. eigenvalues --  -19.10740 -10.17771 -10.17724 -10.12906 -10.12789
 Alpha  occ. eigenvalues --   -1.10016  -0.80132  -0.74258  -0.59398  -0.57434
 Alpha  occ. eigenvalues --   -0.53826  -0.44451  -0.43313  -0.42055  -0.40061
 Alpha  occ. eigenvalues --   -0.35987  -0.27561  -0.23352
 Alpha virt. eigenvalues --    0.01509   0.07833   0.13055   0.14230   0.16970
 Alpha virt. eigenvalues --    0.18729   0.20477   0.21879   0.35188   0.41111
 Alpha virt. eigenvalues --    0.45894   0.67923   0.69949   0.70135   0.74555

 Mulliken charges:
               1
     1  C   -0.249893
     2  C    0.075678
     3  O   -0.471604
     4  C    0.075678
     5  C   -0.249893
     6  H    0.190409
     7  H    0.219608
     8  H    0.219608
     9  H    0.190409
 Sum of Mulliken charges =   0.00000

 Dipole moment (field-independent basis, Debye):
    X=              0.0000    Y=              0.0000    Z=             -0.8394  Tot=              0.8394
 Quadrupole moment (field-independent basis, Debye-Ang):
   XX=            -31.9158   YY=            -23.2484   ZZ=            -28.1624
   XY=              0.0000   XZ=              0.0000   YZ=              0.0000

  Exact polarizability:  12.222   0.000  46.008   0.000   0.000  42.265
 Approx polarizability:  15.053   0.000  69.514   0.000   0.000  78.003

                      1                      2                      3
                     B1                     A2                     A2
 Frequencies --    615.9802               625.5638               759.4098
 Red. masses --      3.4767                 2.8283                 1.2953
 Frc consts  --      0.7772                 0.6521                 0.4401
 IR Inten    --     23.4596                 0.0000                 0.0000

                      4                      5                      6
                     B1                     A1                     B1
 Frequencies --    772.8511               881.7959               891.6597
 Red. masses --      1.2228                 5.8034                 1.3064
 Frc consts  --      0.4303                 2.6587                 0.6119
 IR Inten    --    116.9791                27.9997                 0.0502

                      7                      8                      9
                     B2                     A2                     A1
 Frequencies --    911.0106               922.1660              1001.2587
 Red. masses --      5.6670                 1.3568                 1.9963
 Frc consts  --      2.7711                 0.6798                 1.1792
 IR Inten    --      0.0504                 0.0000                24.0103

                     10                     11                     12
                     B2                     A1                     A1
 Frequencies --   1033.5356              1065.7335              1166.7148
 Red. masses --      3.0567                 3.5503                 1.3405
 Frc consts  --      1.9238                 2.3758                 1.0751
 IR Inten    --      0.0322                 0.7853                 0.0512

                     13                     14                     15
                     B2                     B2                     A1
 Frequencies --   1178.4978              1301.1432              1399.8173
 Red. masses --      1.5997                 1.2623                 2.3845
 Frc consts  --      1.3090                 1.2591                 2.7529
 IR Inten    --     17.3575                 1.3072                11.3361

                     16                     17                     18
                     A1                     B2                     B2
 Frequencies --   1485.8534              1580.1356              3282.6631
 Red. masses --      3.3650                 4.2384                 1.0901
 Frc consts  --      4.3771                 6.2351                 6.9212
 IR Inten    --      7.3832                 2.0025                 2.0782

                     19                     20                     21
                     A1                     B2                     A1
 Frequencies --   3294.0484              3323.1722              3332.8972
 Red. masses --      1.0932                 1.1002                 1.1108
 Frc consts  --      6.9887                 7.1587                 7.2697
 IR Inten    --      0.1897                 0.0939                 0.0630

 - Thermochemistry -
 -------------------
 Temperature   298.150 Kelvin.  Pressure   1.00000 Atm.
 Atom     1 has atomic number  6 and mass  12.00000

 Molecular mass:    68.02621 amu.
 Principal axes and moments of inertia in atomic units:
                           1         2         3
     Eigenvalues --   196.73246 197.84939 394.58185
           X            0.00000   0.00000   1.00000
           Y            0.00000   1.00000   0.00000
           Z            1.00000   0.00000   0.00000
 This molecule is an asymmetric top.
 Rotational symmetry number  2.
 Rotational temperatures (Kelvin)      0.44026     0.43778     0.21951
 Rotational constants (GHZ):           9.17358     9.12179     4.57381
 Zero-point vibrational energy     184379.9 (Joules/Mol)
                                   44.06785 (Kcal/Mol)
 Warning -- explicit consideration of   1 degrees of freedom as
           vibrations may cause significant error
 Vibrational temperatures:    886.26   900.05  1092.62  1111.96  1268.71
          (Kelvin)           1282.90  1310.74  1326.79  1440.59  1487.03
                             1533.35  1678.64  1695.59  1872.05  2014.02
                             2137.81  2273.46  4723.01  4739.40  4781.30
                             4795.29

 Zero-point correction=                           0.070227 (Hartree/Particle)
 Thermal correction to Energy=                    0.073912
 Thermal correction to Enthalpy=                  0.074856
 Thermal correction to Gibbs Free Energy=         0.044589
 Sum of electronic and zero-point Energies=           -228.683314
 Sum of electronic and thermal Energies=              -228.679629
 Sum of electronic and thermal Enthalpies=            -228.678685
 Sum of electronic and thermal Free Energies=         -228.708951

                     E (Thermal)             CV                S
                      KCal/Mol        Cal/Mol-Kelvin    Cal/Mol-Kelvin
 Total                   46.380             13.211             63.702
 Electronic               0.000              0.000              0.000
 Translational            0.889              2.981             38.570
 Rotational               0.889              2.981             22.867
 Vibrational             44.603              7.249              2.265
 Vibration     1          0.976              0.998              0.423

 Optimization completed.
    -- Stationary point found.
 Normal termination of Gaussian 09 at Mon Nov 23 13:49:48 2015.
