 Gaussian 09, Revision D.01,
 Gaussian 09:  ES64L-G09RevD.01 24-Apr-2013

 ----------------------------
 #P AM1(Input,print) Opt Freq
 ----------------------------

 -----------------
 AM1-Reparam Input
 -----------------
 Symbolic Z-matrix:
 Charge =  0 Multiplicity = 1

 SCF Done:  E(RAM1) =  0.748683779211     A.U. after   17 cycles
 SCF Done:  E(RAM1) =  0.732272990518     A.U. after   16 cycles
 SCF Done:  E(RAM1) =  0.731298108857     A.U. after   15 cycles
 SCF Done:  E(RAM1) =  0.731028779947     A.U. after   14 cycles
 SCF Done:  E(RAM1) =  0.730956794820     A.U. after   14 cycles
 SCF Done:  E(RAM1) =  0.730946189113     A.U. after   14 cycles
 SCF Done:  E(RAM1) =  0.730943139803     A.U. after   13 cycles
 Optimization completed.
    -- Stationary point found.
 Normal termination of Gaussian 09 at Sun Nov 29 12:22:24 2015.

 -------------------------------------------------------------
 #P Geom=AllCheck Guess=TCheck SCRF=Check GenChk RAM1/ZDO Freq
 -------------------------------------------------------------

 Structure from the checkpoint file:  "/home/Applications/g09/scratch/Gau-20939.chk"
 -----------------
 AM1-Reparam Input
 -----------------
 Charge =  0 Multiplicity = 1

                         Standard orientation:
 ---------------------------------------------------------------------
 Center     Atomic      Atomic             Coordinates (Angstroms)
 Number     Number       Type             X           Y           Z
 ---------------------------------------------------------------------
      1          6           0        0.721019    0.952872   -0.000178
      2          6           0        1.102261   -0.351085    0.000355
      3          8           0       -0.005022   -1.164665   -0.000306
      4          6           0       -1.104399   -0.342987    0.000277
      5          6           0       -0.713230    0.958599    0.000007
      6          1           0       -1.309249    1.866763   -0.000031
      7          1           0       -2.074652   -0.846793   -0.000150
      8          1           0        2.067428   -0.864559    0.000136
      9          1           0        1.322741    1.857515   -0.000272
 ---------------------------------------------------------------------

 SCF Done:  E(RAM1) =  0.730943139803     A.U. after    2 cycles

 The electronic state is 1-A.
 Alpha  occ. eigenvalues --   -1.19287  -0.92067  -0.91446  -0.73930  -0.69635
 Alpha  occ. eigenvalues --   -0.65766  -0.61025  -0.52940  -0.52181  -0.49709
 Alpha  occ. eigenvalues --   -0.49212  -0.40993  -0.35305
 Alpha virt. eigenvalues --    0.01094   0.02234   0.12108   0.13137   0.15573
 Alpha virt. eigenvalues --    0.16131   0.19656   0.20657   0.22245   0.22325
 Alpha virt. eigenvalues --    0.23969

 Mulliken charges:
               1
     1  C   -0.576979
     2  C    0.209433
     3  O   -0.429917
     4  C    0.212135
     5  C   -0.580872
     6  H    0.308429
     7  H    0.274622
     8  H    0.274808
     9  H    0.308341
 Sum of Mulliken charges =   0.00000

 Dipole moment (field-independent basis, Debye):
    X=             -0.0046    Y=             -0.5119    Z=              0.0009  Tot=              0.5120
 N-N= 1.023797121459D+02 E-N=-1.712576666393D+02  KE=-1.496994115074D+01
  Exact polarizability:  48.626   0.007  57.009   0.005  -0.020   8.786
 Approx polarizability:  29.730   0.024  40.314   0.001  -0.009   5.732
 Leave Link  601 at Sun Nov 29 12:22:25 2015, MaxMem=    33554432 cpu:         0.0
 (Enter /home/Applications/g09/g09/l701.exe)
 Compute integral second derivatives.
 ... and contract with generalized density number  0.
 Leave Link  701 at Sun Nov 29 12:22:25 2015, MaxMem=    33554432 cpu:         0.0
 (Enter /home/Applications/g09/g09/l702.exe)
 L702 exits ... SP integral derivatives will be done elsewhere.

                      1                      2                      3
                      A                      A                      A
 Frequencies --    494.3088               518.2319               747.1429
 Red. masses --      1.6076                 2.2350                 6.2477
 Frc consts  --      0.2314                 0.3537                 2.0548
 IR Inten    --      0.0007                63.7309                28.3608

                      4                      5                      6
                      A                      A                      A
 Frequencies --    754.6448               785.3720               811.9911
 Red. masses --      1.1870                 1.2755                 3.7719
 Frc consts  --      0.3983                 0.4635                 1.4653
 IR Inten    --    254.4067                 0.0086                10.3859

                      7                      8                      9
                      A                      A                      A
 Frequencies --    867.3794               910.9813               936.1067
 Red. masses --      1.7428                 1.5489                 2.1913
 Frc consts  --      0.7725                 0.7573                 1.1314
 IR Inten    --     21.1468                24.4549                 0.0008

                     10                     11                     12
                      A                      A                      A
 Frequencies --    942.1719              1027.1012              1060.1050
 Red. masses --      1.1501                 1.2248                 2.0040
 Frc consts  --      0.6015                 0.7613                 1.3269
 IR Inten    --     71.1549                37.6192                52.3587

                     13                     14                     15
                      A                      A                      A
 Frequencies --   1098.3911              1146.8428              1346.8203
 Red. masses --      1.4233                 6.3318                 6.5749
 Frc consts  --      1.0117                 4.9066                 7.0269
 IR Inten    --      0.5894                13.8924                 1.5574

                     16                     17                     18
                      A                      A                      A
 Frequencies --   1486.8443              1541.0939              2977.0581
 Red. masses --      7.1081                 7.5336                 1.0834
 Frc consts  --      9.2584                10.5417                 5.6573
 IR Inten    --     13.8549                39.8363               377.3250

                     19                     20                     21
                      A                      A                      A
 Frequencies --   2988.1761              3012.8595              3032.9541
 Red. masses --      1.0859                 1.0908                 1.0994
 Frc consts  --      5.7127                 5.8340                 5.9583
 IR Inten    --    389.5171               265.8714               338.0970

 - Thermochemistry -
 -------------------
 Temperature   298.150 Kelvin.  Pressure   1.00000 Atm.
 Atom     1 has atomic number  6 and mass  12.00000

 Molecular mass:    68.02621 amu.
 Principal axes and moments of inertia in atomic units:
                           1         2         3
     Eigenvalues --   191.75010 196.11190 387.86198
           X            0.01417   0.99990   0.00001
           Y            0.99990  -0.01417  -0.00001
           Z            0.00001  -0.00001   1.00000
 This molecule is an asymmetric top.
 Rotational symmetry number  1.
 Rotational temperatures (Kelvin)      0.45170     0.44166     0.22331
 Rotational constants (GHZ):           9.41194     9.20261     4.65305
 Zero-point vibrational energy     170387.6 (Joules/Mol)
                                   40.72361 (Kcal/Mol)
 Warning -- explicit consideration of   2 degrees of freedom as
           vibrations may cause significant error
 Vibrational temperatures:    711.20   745.62  1074.97  1085.76  1129.97
          (Kelvin)           1168.27  1247.96  1310.70  1346.85  1355.57
                             1477.77  1525.25  1580.34  1650.05  1937.77
                             2139.23  2217.29  4283.32  4299.31  4334.83
                             4363.74

 Zero-point correction=                           0.064897 (Hartree/Particle)
 Thermal correction to Energy=                    0.068847
 Thermal correction to Enthalpy=                  0.069791
 Thermal correction to Gibbs Free Energy=         0.038520
 Sum of electronic and zero-point Energies=              0.795840
 Sum of electronic and thermal Energies=                 0.799790
 Sum of electronic and thermal Enthalpies=               0.800734
 Sum of electronic and thermal Free Energies=            0.769463

                     E (Thermal)             CV                S
                      KCal/Mol        Cal/Mol-Kelvin    Cal/Mol-Kelvin
 Total                   43.202             14.598             65.817
 Electronic               0.000              0.000              0.000
 Translational            0.889              2.981             38.570
 Rotational               0.889              2.981             24.193
 Vibrational             41.425              8.636              3.054
 Vibration     1          0.850              1.263              0.673
 Vibration     2          0.873              1.210              0.614

 Normal termination of Gaussian 09 at Sun Nov 29 12:22:25 2015.
