 Gaussian 09, Revision D.01,
 Gaussian 09:  ES64L-G09RevD.01 24-Apr-2013

 ----------------------------
 #P AM1(Input,print) Opt Freq
 ----------------------------

 -----------------
 AM1-Reparam Input
 -----------------
 Symbolic Z-matrix:
 Charge =  0 Multiplicity = 1

 SCF Done:  E(RAM1) =  0.750313261291     A.U. after   17 cycles
 SCF Done:  E(RAM1) =  0.732345656884     A.U. after   16 cycles
 SCF Done:  E(RAM1) =  0.731236404685     A.U. after   15 cycles
 SCF Done:  E(RAM1) =  0.731301330747     A.U. after   15 cycles
 SCF Done:  E(RAM1) =  0.731046906837     A.U. after   11 cycles
 SCF Done:  E(RAM1) =  0.730958922425     A.U. after   14 cycles
 SCF Done:  E(RAM1) =  0.730944530540     A.U. after   13 cycles
 SCF Done:  E(RAM1) =  0.730942871760     A.U. after   13 cycles
 SCF Done:  E(RAM1) =  0.730942235730     A.U. after   12 cycles
 Optimization completed.
    -- Stationary point found.
 Normal termination of Gaussian 09 at Sun Nov 29 12:22:26 2015.

 -------------------------------------------------------------
 #P Geom=AllCheck Guess=TCheck SCRF=Check GenChk RAM1/ZDO Freq
 -------------------------------------------------------------

 Structure from the checkpoint file:  "/home/Applications/g09/scratch/Gau-20942.chk"
 -----------------
 AM1-Reparam Input
 -----------------
 Charge =  0 Multiplicity = 1

                         Standard orientation:
 ---------------------------------------------------------------------
 Center     Atomic      Atomic             Coordinates (Angstroms)
 Number     Number       Type             X           Y           Z
 ---------------------------------------------------------------------
      1          6           0        0.717947    0.955196   -0.000061
      2          6           0        1.103092   -0.348031    0.000019
      3          8           0       -0.001102   -1.164496   -0.000033
      4          6           0       -1.103420   -0.346377   -0.000025
      5          6           0       -0.716230    0.956338    0.000056
      6          1           0       -1.315491    1.862395    0.000136
      7          1           0       -2.072261   -0.852931    0.000031
      8          1           0        2.070496   -0.857041    0.000306
      9          1           0        1.317739    1.860784   -0.000137
 ---------------------------------------------------------------------

 SCF Done:  E(RAM1) =  0.730942235729     A.U. after    2 cycles

 The electronic state is 1-A.
 Alpha  occ. eigenvalues --   -1.19307  -0.92067  -0.91458  -0.73936  -0.69631
 Alpha  occ. eigenvalues --   -0.65775  -0.61038  -0.52949  -0.52175  -0.49713
 Alpha  occ. eigenvalues --   -0.49209  -0.40989  -0.35301
 Alpha virt. eigenvalues --    0.01094   0.02233   0.12104   0.13142   0.15573
 Alpha virt. eigenvalues --    0.16135   0.19656   0.20657   0.22254   0.22329
 Alpha virt. eigenvalues --    0.23968

 Mulliken charges:
               1
     1  C   -0.578074
     2  C    0.210033
     3  O   -0.429511
     4  C    0.210912
     5  C   -0.579452
     6  H    0.308343
     7  H    0.274711
     8  H    0.274751
     9  H    0.308287
 Sum of Mulliken charges =   0.00000

 Dipole moment (field-independent basis, Debye):
    X=             -0.0023    Y=             -0.5134    Z=              0.0004  Tot=              0.5134
 N-N= 1.023823932414D+02 E-N=-1.712615484267D+02  KE=-1.497042089543D+01
  Exact polarizability:  48.653  -0.004  57.005   0.002   0.000   8.787
 Approx polarizability:  29.749   0.002  40.304   0.000   0.001   5.733
 Leave Link  601 at Sun Nov 29 12:22:26 2015, MaxMem=    33554432 cpu:         0.0
 (Enter /home/Applications/g09/g09/l701.exe)
 Compute integral second derivatives.
 ... and contract with generalized density number  0.
 Leave Link  701 at Sun Nov 29 12:22:26 2015, MaxMem=    33554432 cpu:         0.0
 (Enter /home/Applications/g09/g09/l702.exe)
 L702 exits ... SP integral derivatives will be done elsewhere.

                      1                      2                      3
                      A                      A                      A
 Frequencies --    494.1597               518.2256               747.4858
 Red. masses --      1.6063                 2.2353                 6.2466
 Frc consts  --      0.2311                 0.3537                 2.0564
 IR Inten    --      0.0001                63.5472                28.4585

                      4                      5                      6
                      A                      A                      A
 Frequencies --    754.1523               785.1043               811.8943
 Red. masses --      1.1865                 1.2756                 3.7636
 Frc consts  --      0.3976                 0.4632                 1.4617
 IR Inten    --    254.7203                 0.0148                10.3673

                      7                      8                      9
                      A                      A                      A
 Frequencies --    867.1030               911.1437               935.8737
 Red. masses --      1.7434                 1.5419                 2.1942
 Frc consts  --      0.7723                 0.7542                 1.1323
 IR Inten    --     20.9266                24.8233                 0.0011

                     10                     11                     12
                      A                      A                      A
 Frequencies --    941.9174              1026.9138              1060.3233
 Red. masses --      1.1498                 1.2242                 2.0009
 Frc consts  --      0.6010                 0.7606                 1.3254
 IR Inten    --     71.1076                37.4895                51.7579

                     13                     14                     15
                      A                      A                      A
 Frequencies --   1098.2450              1147.4266              1347.0424
 Red. masses --      1.4310                 6.3673                 6.5823
 Frc consts  --      1.0169                 4.9392                 7.0371
 IR Inten    --      0.5303                13.9489                 1.5774

                     16                     17                     18
                      A                      A                      A
 Frequencies --   1486.2328              1540.5857              2977.2244
 Red. masses --      7.1091                 7.5389                 1.0834
 Frc consts  --      9.2521                10.5422                 5.6580
 IR Inten    --     13.7463                39.8069               380.3274

                     19                     20                     21
                      A                      A                      A
 Frequencies --   2988.4374              3013.6925              3033.6953
 Red. masses --      1.0859                 1.0908                 1.0993
 Frc consts  --      5.7140                 5.8369                 5.9608
 IR Inten    --    386.0478               263.7647               340.7999

 - Thermochemistry -
 -------------------
 Temperature   298.150 Kelvin.  Pressure   1.00000 Atm.
 Atom     1 has atomic number  6 and mass  12.00000

 Molecular mass:    68.02621 amu.
 Principal axes and moments of inertia in atomic units:
                           1         2         3
     Eigenvalues --   191.75119 196.07768 387.82887
           X            0.00403   0.99999   0.00000
           Y            0.99999  -0.00403  -0.00001
           Z            0.00001   0.00000   1.00000
 This molecule is an asymmetric top.
 Rotational symmetry number  1.
 Rotational temperatures (Kelvin)      0.45170     0.44173     0.22333
 Rotational constants (GHZ):           9.41189     9.20422     4.65345
 Zero-point vibrational energy     170389.4 (Joules/Mol)
                                   40.72404 (Kcal/Mol)
 Warning -- explicit consideration of   2 degrees of freedom as
           vibrations may cause significant error
 Vibrational temperatures:    710.98   745.61  1075.46  1085.06  1129.59
          (Kelvin)           1168.13  1247.57  1310.93  1346.51  1355.21
                             1477.50  1525.57  1580.13  1650.89  1938.09
                             2138.35  2216.56  4283.56  4299.69  4336.03
                             4364.81

 Zero-point correction=                           0.064898 (Hartree/Particle)
 Thermal correction to Energy=                    0.068848
 Thermal correction to Enthalpy=                  0.069792
 Thermal correction to Gibbs Free Energy=         0.038520
 Sum of electronic and zero-point Energies=              0.795840
 Sum of electronic and thermal Energies=                 0.799790
 Sum of electronic and thermal Enthalpies=               0.800735
 Sum of electronic and thermal Free Energies=            0.769463

                     E (Thermal)             CV                S
                      KCal/Mol        Cal/Mol-Kelvin    Cal/Mol-Kelvin
 Total                   43.203             14.600             65.817
 Electronic               0.000              0.000              0.000
 Translational            0.889              2.981             38.570
 Rotational               0.889              2.981             24.193
 Vibrational             41.425              8.638              3.055
 Vibration     1          0.850              1.263              0.673
 Vibration     2          0.873              1.210              0.614

 Optimization completed.
    -- Stationary point found.
 Normal termination of Gaussian 09 at Sun Nov 29 12:22:27 2015.
