 Gaussian 09, Revision D.01,
 Gaussian 09:  ES64L-G09RevD.01 24-Apr-2013

 ----------------------------
 #P AM1(Input,print) Opt Freq
 ----------------------------

 -----------------
 AM1-Reparam Input
 -----------------
 Symbolic Z-matrix:
 Charge =  0 Multiplicity = 1

 SCF Done:  E(RAM1) =  0.745914351308     A.U. after   17 cycles
 SCF Done:  E(RAM1) =  0.733192281499     A.U. after   16 cycles
 SCF Done:  E(RAM1) =  0.731435759746     A.U. after   15 cycles
 SCF Done:  E(RAM1) =  0.730993077408     A.U. after   14 cycles
 SCF Done:  E(RAM1) =  0.730949082647     A.U. after   14 cycles
 SCF Done:  E(RAM1) =  0.730943883545     A.U. after   13 cycles
 SCF Done:  E(RAM1) =  0.730942368776     A.U. after   12 cycles
 Optimization completed.
    -- Stationary point found.
 Normal termination of Gaussian 09 at Sun Nov 29 12:22:28 2015.

 -------------------------------------------------------------
 #P Geom=AllCheck Guess=TCheck SCRF=Check GenChk RAM1/ZDO Freq
 -------------------------------------------------------------

 Structure from the checkpoint file:  "/home/Applications/g09/scratch/Gau-20946.chk"
 -----------------
 AM1-Reparam Input
 -----------------
 Charge =  0 Multiplicity = 1

                         Standard orientation:
 ---------------------------------------------------------------------
 Center     Atomic      Atomic             Coordinates (Angstroms)
 Number     Number       Type             X           Y           Z
 ---------------------------------------------------------------------
      1          6           0       -0.717436    0.955464   -0.000151
      2          6           0       -1.102858   -0.347882    0.000092
      3          8           0        0.000559   -1.164603    0.000016
      4          6           0        1.103238   -0.346734    0.000070
      5          6           0        0.716410    0.956099   -0.000036
      6          1           0        1.315310    1.862292   -0.000236
      7          1           0        2.071911   -0.853477   -0.000032
      8          1           0       -2.071270   -0.854977   -0.000530
      9          1           0       -1.316551    1.861305    0.000817
 ---------------------------------------------------------------------

 SCF Done:  E(RAM1) =  0.730942368777     A.U. after    2 cycles

 The electronic state is 1-A.
 Alpha  occ. eigenvalues --   -1.19323  -0.92076  -0.91459  -0.73937  -0.69643
 Alpha  occ. eigenvalues --   -0.65780  -0.61047  -0.52951  -0.52181  -0.49711
 Alpha  occ. eigenvalues --   -0.49207  -0.40993  -0.35298
 Alpha virt. eigenvalues --    0.01092   0.02232   0.12106   0.13142   0.15575
 Alpha virt. eigenvalues --    0.16139   0.19655   0.20658   0.22255   0.22331
 Alpha virt. eigenvalues --    0.23973

 Mulliken charges:
               1
     1  C   -0.578887
     2  C    0.210408
     3  O   -0.429157
     4  C    0.210202
     5  C   -0.578661
     6  H    0.308319
     7  H    0.274746
     8  H    0.274716
     9  H    0.308313
 Sum of Mulliken charges =   0.00000

 Dipole moment (field-independent basis, Debye):
    X=              0.0012    Y=             -0.5122    Z=              0.0008  Tot=              0.5122
 N-N= 1.023857574809D+02 E-N=-1.712665995625D+02  KE=-1.497087940346D+01
  Exact polarizability:  48.658  -0.007  56.997  -0.008  -0.009   8.788
 Approx polarizability:  29.754  -0.007  40.300  -0.001  -0.006   5.733
 Leave Link  601 at Sun Nov 29 12:22:28 2015, MaxMem=    33554432 cpu:         0.0
 (Enter /home/Applications/g09/g09/l701.exe)
 Compute integral second derivatives.
 ... and contract with generalized density number  0.
 Leave Link  701 at Sun Nov 29 12:22:28 2015, MaxMem=    33554432 cpu:         0.0
 (Enter /home/Applications/g09/g09/l702.exe)
 L702 exits ... SP integral derivatives will be done elsewhere.

                      1                      2                      3
                      A                      A                      A
 Frequencies --    493.8473               518.2537               747.5104
 Red. masses --      1.6052                 2.2350                 6.2460
 Frc consts  --      0.2307                 0.3537                 2.0563
 IR Inten    --      0.0000                63.4638                28.5745

                      4                      5                      6
                      A                      A                      A
 Frequencies --    753.6933               784.8761               811.7645
 Red. masses --      1.1861                 1.2755                 3.7549
 Frc consts  --      0.3970                 0.4629                 1.4578
 IR Inten    --    255.0515                 0.0120                10.3321

                      7                      8                      9
                      A                      A                      A
 Frequencies --    866.8569               911.0754               935.5965
 Red. masses --      1.7445                 1.5368                 2.1965
 Frc consts  --      0.7723                 0.7516                 1.1328
 IR Inten    --     20.6151                25.1640                 0.0005

                     10                     11                     12
                      A                      A                      A
 Frequencies --    941.6887              1026.7511              1060.3141
 Red. masses --      1.1499                 1.2238                 1.9999
 Frc consts  --      0.6008                 0.7601                 1.3247
 IR Inten    --     70.9986                37.4531                51.4163

                     13                     14                     15
                      A                      A                      A
 Frequencies --   1098.0828              1147.8741              1347.8790
 Red. masses --      1.4359                 6.3829                 6.5987
 Frc consts  --      1.0201                 4.9551                 7.0633
 IR Inten    --      0.4953                13.9704                 1.6072

                     16                     17                     18
                      A                      A                      A
 Frequencies --   1485.8027              1540.1812              2977.3370
 Red. masses --      7.1112                 7.5413                 1.0834
 Frc consts  --      9.2494                10.5400                 5.6584
 IR Inten    --     13.6630                39.8513               383.3919

                     19                     20                     21
                      A                      A                      A
 Frequencies --   2988.5822              3014.4725              3034.4847
 Red. masses --      1.0860                 1.0907                 1.0992
 Frc consts  --      5.7149                 5.8397                 5.9635
 IR Inten    --    382.1057               260.9489               344.6068

 - Thermochemistry -
 -------------------
 Temperature   298.150 Kelvin.  Pressure   1.00000 Atm.
 Atom     1 has atomic number  6 and mass  12.00000

 Molecular mass:    68.02621 amu.
 Principal axes and moments of inertia in atomic units:
                           1         2         3
     Eigenvalues --   191.68481 196.09636 387.78115
           X           -0.00123   1.00000  -0.00001
           Y            1.00000   0.00123   0.00003
           Z           -0.00003   0.00001   1.00000
 This molecule is an asymmetric top.
 Rotational symmetry number  1.
 Rotational temperatures (Kelvin)      0.45186     0.44169     0.22336
 Rotational constants (GHZ):           9.41515     9.20334     4.65402
 Zero-point vibrational energy     170389.6 (Joules/Mol)
                                   40.72410 (Kcal/Mol)
 Warning -- explicit consideration of   2 degrees of freedom as
           vibrations may cause significant error
 Vibrational temperatures:    710.54   745.65  1075.50  1084.40  1129.26
          (Kelvin)           1167.95  1247.21  1310.83  1346.11  1354.88
                             1477.26  1525.55  1579.89  1651.53  1939.29
                             2137.74  2215.97  4283.72  4299.90  4337.15
                             4365.94

 Zero-point correction=                           0.064898 (Hartree/Particle)
 Thermal correction to Energy=                    0.068849
 Thermal correction to Enthalpy=                  0.069793
 Thermal correction to Gibbs Free Energy=         0.038520
 Sum of electronic and zero-point Energies=              0.795840
 Sum of electronic and thermal Energies=                 0.799791
 Sum of electronic and thermal Enthalpies=               0.800735
 Sum of electronic and thermal Free Energies=            0.769463

                     E (Thermal)             CV                S
                      KCal/Mol        Cal/Mol-Kelvin    Cal/Mol-Kelvin
 Total                   43.203             14.603             65.819
 Electronic               0.000              0.000              0.000
 Translational            0.889              2.981             38.570
 Rotational               0.889              2.981             24.192
 Vibrational             41.426              8.641              3.057
 Vibration     1          0.849              1.264              0.674
 Vibration     2          0.873              1.210              0.614

 Optimization completed.
    -- Stationary point found.
 Normal termination of Gaussian 09 at Sun Nov 29 12:22:28 2015.
