 Gaussian 09, Revision D.01,
 Gaussian 09:  ES64L-G09RevD.01 24-Apr-2013

 -----------------------
 #P AM1(Input,print) Opt
 -----------------------

 -----------------
 AM1-Reparam Input
 -----------------
 Symbolic Z-matrix:
 Charge =  0 Multiplicity = 1

 SCF Done:  E(RAM1) =  -2.20555615729     A.U. after   13 cycles
 SCF Done:  E(RAM1) =  -2.22062028080     A.U. after   13 cycles
 SCF Done:  E(RAM1) =  -2.22235819648     A.U. after   12 cycles
 SCF Done:  E(RAM1) =  -2.22205010831     A.U. after   12 cycles
 SCF Done:  E(RAM1) =  -2.22266971650     A.U. after    8 cycles
 SCF Done:  E(RAM1) =  -2.22275896934     A.U. after   11 cycles
 SCF Done:  E(RAM1) =  -2.22276354647     A.U. after   10 cycles
 SCF Done:  E(RAM1) =  -2.22276829192     A.U. after   11 cycles
 SCF Done:  E(RAM1) =  -2.22277001556     A.U. after   10 cycles
 Optimization completed.
    -- Stationary point found.

                         Standard orientation:
 ---------------------------------------------------------------------
 Center     Atomic      Atomic             Coordinates (Angstroms)
 Number     Number       Type             X           Y           Z
 ---------------------------------------------------------------------
      1          6           0        0.705055    0.963699   -0.000011
      2          6           0        1.099869   -0.349427    0.000001
      3          8           0       -0.000120   -1.187434   -0.000012
      4          6           0       -1.099941   -0.349212   -0.000018
      5          6           0       -0.704888    0.963820   -0.000004
      6          1           0       -1.326244    1.845475    0.000147
      7          1           0       -2.090046   -0.781980    0.000065
      8          1           0        2.089919   -0.782403    0.000165
      9          1           0        1.326766    1.845098   -0.000082
 ---------------------------------------------------------------------

 The electronic state is 1-A.
 Alpha  occ. eigenvalues --   -1.54126  -1.12516  -1.09745  -0.86225  -0.82769
 Alpha  occ. eigenvalues --   -0.79443  -0.73518  -0.49101  -0.44006  -0.42801
 Alpha  occ. eigenvalues --   -0.42641  -0.39760  -0.32878
 Alpha virt. eigenvalues --    0.17407   0.19058   0.26819   0.29318   0.30758
 Alpha virt. eigenvalues --    0.32543   0.34396   0.36015   0.40431   0.41779
 Alpha virt. eigenvalues --    0.44845

 Mulliken charges:
               1
     1  C   -0.292529
     2  C   -0.052053
     3  O    0.109188
     4  C   -0.052039
     5  C   -0.292522
     6  H    0.150901
     7  H    0.139079
     8  H    0.139077
     9  H    0.150898
 Sum of Mulliken charges =   0.00000

 Dipole moment (field-independent basis, Debye):
    X=              0.0000    Y=             -0.9443    Z=              0.0003  Tot=              0.9443
 N-N= 1.012037119859D+02 E-N=-1.696867894374D+02  KE=-1.817561883749D+01
 Leave Link  601 at Mon Nov 23 13:23:37 2015, MaxMem=    33554432 cpu:         0.0
 (Enter /home/Applications/g09/g09/l9999.exe)
 1\1\GINC-DUSTIN-DESKTOP\FOpt\RAM1\ZDO\C4H4O1\DUSTIN\23-Nov-2015\0\\#P
 AM1(Input,print) Opt\\AM1-Reparam Input\\0,1\C,0.9262297237,-0.7039752
 351,-0.0066821873\C,-0.3889927902,-1.0914089569,-0.0228200279\O,-1.220
 9313726,0.013149685,-0.0151760448\C,-0.3767268169,1.1081725764,0.00639
 12983\C,0.934075759,0.7058218364,0.012059353\H,1.8190895406,1.32218391
 67,0.0277874232\H,-0.8040486759,2.10059261,0.0160364109\H,-0.827372722
 8,-2.0789393877,-0.0394058085\H,1.8041793552,-1.3305470448,-0.00769441

 Normal termination of Gaussian 09 at Mon Nov 23 13:23:37 2015.
