 Gaussian 09, Revision D.01,
 Gaussian 09:  ES64L-G09RevD.01 24-Apr-2013

 ---------------------------------------------------
 #P B3LYP/cc-pVDZ CIS(Singlets,NStates=15) pop(full)
 ---------------------------------------------------

 --------
 FuranDFT
 --------
 Symbolic Z-matrix:
 Charge =  0 Multiplicity = 1

                         Standard orientation:
 ---------------------------------------------------------------------
 Center     Atomic      Atomic             Coordinates (Angstroms)
 Number     Number       Type             X           Y           Z
 ---------------------------------------------------------------------
      1          6           0        0.000000    0.715963   -0.955475
      2          6           0        0.000000    1.092818    0.345627
      3          8           0        0.000000    0.000000    1.157305
      4          6           0        0.000000   -1.092818    0.345627
      5          6           0        0.000000   -0.715963   -0.955475
      6          1           0        0.000000   -1.369382   -1.810438
      7          1           0        0.000000   -2.046884    0.840307
      8          1           0        0.000000    2.046884    0.840307
      9          1           0        0.000000    1.369382   -1.810438
 ---------------------------------------------------------------------

 SCF Done:  E(RB3LYP) =  -230.036429850     A.U. after   13 cycles

 Excitation energies and oscillator strengths:

 Excited State   1:      Singlet-B2     6.9073 eV  179.50 nm  f=0.2271  <S**2>=0.000
      18 -> 19         0.68500
 This state for optimization and/or second-order correction.
 Total Energy, E(CIS) =  -229.782590286
 Copying the excited state density for this state as the 1-particle RhoCI density.

 Excited State   2:      Singlet-A1     6.9789 eV  177.66 nm  f=0.0000  <S**2>=0.000
      17 -> 19         0.51197
      18 -> 20        -0.48107

 Excited State   3:      Singlet-A2     7.3755 eV  168.10 nm  f=0.0000  <S**2>=0.000
      18 -> 21         0.70370

 Excited State   4:      Singlet-B1     8.1566 eV  152.00 nm  f=0.0120  <S**2>=0.000
      17 -> 21         0.14422
      18 -> 22         0.69014

 Excited State   5:      Singlet-A2     8.2725 eV  149.88 nm  f=0.0000  <S**2>=0.000
      18 -> 23         0.70287

 Excited State   6:      Singlet-B1     8.6191 eV  143.85 nm  f=0.0014  <S**2>=0.000
      16 -> 19        -0.11475
      17 -> 21         0.41618
      18 -> 24         0.54489

 Excited State   7:      Singlet-B1     8.7358 eV  141.93 nm  f=0.0004  <S**2>=0.000
      17 -> 21         0.54588
      18 -> 22        -0.11509
      18 -> 24        -0.42948

 Excited State   8:      Singlet-B1     8.8572 eV  139.98 nm  f=0.0018  <S**2>=0.000
      16 -> 19         0.69064
      18 -> 24         0.11052

 Excited State   9:      Singlet-B2     9.2089 eV  134.64 nm  f=0.1711  <S**2>=0.000
      17 -> 20         0.68401

 Excited State  10:      Singlet-A1     9.2838 eV  133.55 nm  f=0.6069  <S**2>=0.000
      15 -> 25         0.11590
      17 -> 19         0.44811
      18 -> 20         0.48618

 Excited State  11:      Singlet-A2     9.5138 eV  130.32 nm  f=0.0000  <S**2>=0.000
      18 -> 25         0.69498

 Excited State  12:      Singlet-B1     9.5535 eV  129.78 nm  f=0.0023  <S**2>=0.000
      17 -> 23         0.69334

 Excited State  13:      Singlet-A2     9.5756 eV  129.48 nm  f=0.0000  <S**2>=0.000
      17 -> 22         0.69612

 Excited State  14:      Singlet-B1     9.6784 eV  128.10 nm  f=0.0013  <S**2>=0.000
      15 -> 19         0.69641

 Excited State  15:      Singlet-A2     9.9102 eV  125.11 nm  f=0.0000  <S**2>=0.000
      14 -> 19         0.47794
      16 -> 20        -0.16873
      17 -> 24         0.47915

 The electronic state is 1-A1.
 Alpha  occ. eigenvalues --  -19.20516 -10.23154 -10.23152 -10.18427 -10.18393
 Alpha  occ. eigenvalues --   -1.11100  -0.80001  -0.74572  -0.59840  -0.56923
 Alpha  occ. eigenvalues --   -0.54086  -0.44828  -0.44474  -0.41071  -0.39687
 Alpha  occ. eigenvalues --   -0.37113  -0.27941  -0.23117
 Alpha virt. eigenvalues --    0.01279   0.06979   0.08070   0.10931   0.11066
 Alpha virt. eigenvalues --    0.12372   0.17026   0.19493   0.28404   0.34428
 Alpha virt. eigenvalues --    0.39179   0.39212   0.46313   0.47990   0.48349

 Mulliken charges:
               1
     1  C   -0.008055
     2  C    0.128161
     3  O   -0.163830
     4  C    0.128161
     5  C   -0.008055
     6  H   -0.029548
     7  H   -0.008642
     8  H   -0.008642
     9  H   -0.029548
 Sum of Mulliken charges =   0.00000

 Dipole moment (field-independent basis, Debye):
    X=              0.0000    Y=              0.0000    Z=             -0.5149  Tot=              0.5149
 Quadrupole moment (field-independent basis, Debye-Ang):
   XX=            -31.2906   YY=            -24.2119   ZZ=            -27.8483
   XY=              0.0000   XZ=              0.0000   YZ=              0.0000

 Normal termination of Gaussian 09 at Mon Nov 23 16:19:49 2015.
