 Gaussian 09, Revision D.01,
 Gaussian 09:  ES64L-G09RevD.01 24-Apr-2013

 ----------------------------
 #P AM1(Input,print) Opt Freq
 ----------------------------

 -----------------
 AM1-Reparam Input
 -----------------
 Symbolic Z-matrix:
 Charge =  0 Multiplicity = 1

 SCF Done:  E(RAM1) =  0.746637460874     A.U. after   17 cycles
 SCF Done:  E(RAM1) =  0.732481174354     A.U. after   16 cycles
 SCF Done:  E(RAM1) =  0.731387824267     A.U. after   15 cycles
 SCF Done:  E(RAM1) =  0.731057968292     A.U. after   14 cycles
 SCF Done:  E(RAM1) =  0.730967362913     A.U. after   14 cycles
 SCF Done:  E(RAM1) =  0.730946484446     A.U. after   14 cycles
 SCF Done:  E(RAM1) =  0.730942792715     A.U. after   14 cycles
 Optimization completed.
    -- Stationary point found.
 Normal termination of Gaussian 09 at Sun Nov 29 12:22:29 2015.

 -------------------------------------------------------------
 #P Geom=AllCheck Guess=TCheck SCRF=Check GenChk RAM1/ZDO Freq
 -------------------------------------------------------------

 Structure from the checkpoint file:  "/home/Applications/g09/scratch/Gau-20949.chk"
 -----------------
 AM1-Reparam Input
 -----------------
 Charge =  0 Multiplicity = 1

                         Standard orientation:
 ---------------------------------------------------------------------
 Center     Atomic      Atomic             Coordinates (Angstroms)
 Number     Number       Type             X           Y           Z
 ---------------------------------------------------------------------
      1          6           0        0.718772    0.954543    0.000081
      2          6           0        1.102282   -0.349272   -0.000381
      3          8           0       -0.002106   -1.164585    0.000512
      4          6           0       -1.103374   -0.345534   -0.000354
      5          6           0       -0.715367    0.957022    0.000038
      6          1           0       -1.313278    1.864104    0.000216
      7          1           0       -2.073148   -0.850607   -0.000481
      8          1           0        2.070295   -0.857198   -0.000729
      9          1           0        1.319102    1.859824    0.000602
 ---------------------------------------------------------------------

 SCF Done:  E(RAM1) =  0.730942792715     A.U. after    2 cycles

 The electronic state is 1-A.
 Alpha  occ. eigenvalues --   -1.19341  -0.92073  -0.91465  -0.73941  -0.69633
 Alpha  occ. eigenvalues --   -0.65783  -0.61058  -0.52948  -0.52180  -0.49703
 Alpha  occ. eigenvalues --   -0.49207  -0.40987  -0.35300
 Alpha virt. eigenvalues --    0.01096   0.02230   0.12110   0.13138   0.15576
 Alpha virt. eigenvalues --    0.16141   0.19656   0.20659   0.22259   0.22325
 Alpha virt. eigenvalues --    0.23967

 Mulliken charges:
               1
     1  C   -0.578404
     2  C    0.209863
     3  O   -0.428853
     4  C    0.210371
     5  C   -0.579148
     6  H    0.308366
     7  H    0.274755
     8  H    0.274736
     9  H    0.308316
 Sum of Mulliken charges =   0.00000

 Dipole moment (field-independent basis, Debye):
    X=             -0.0024    Y=             -0.5119    Z=             -0.0017  Tot=              0.5119
 N-N= 1.023862219447D+02 E-N=-1.712672161135D+02  KE=-1.497093383402D+01
  Exact polarizability:  48.624   0.011  57.009   0.000   0.019   8.789
 Approx polarizability:  29.748   0.016  40.304   0.000   0.008   5.734
 Leave Link  601 at Sun Nov 29 12:22:30 2015, MaxMem=    33554432 cpu:         0.0
 (Enter /home/Applications/g09/g09/l701.exe)
 Compute integral second derivatives.
 ... and contract with generalized density number  0.
 Leave Link  701 at Sun Nov 29 12:22:30 2015, MaxMem=    33554432 cpu:         0.0
 (Enter /home/Applications/g09/g09/l702.exe)
 L702 exits ... SP integral derivatives will be done elsewhere.

                      1                      2                      3
                      A                      A                      A
 Frequencies --    494.3837               518.3566               747.8826
 Red. masses --      1.6072                 2.2391                 6.2571
 Frc consts  --      0.2314                 0.3545                 2.0620
 IR Inten    --      0.0009                63.3926                28.4341

                      4                      5                      6
                      A                      A                      A
 Frequencies --    754.5231               785.4818               811.8693
 Red. masses --      1.1864                 1.2757                 3.7713
 Frc consts  --      0.3979                 0.4637                 1.4646
 IR Inten    --    254.8823                 0.0443                10.4537

                      7                      8                      9
                      A                      A                      A
 Frequencies --    867.3088               911.7172               936.0842
 Red. masses --      1.7413                 1.5335                 2.1924
 Frc consts  --      0.7717                 0.7510                 1.1319
 IR Inten    --     20.8502                25.3249                 0.0012

                     10                     11                     12
                      A                      A                      A
 Frequencies --    942.2003              1026.9891              1061.1243
 Red. masses --      1.1486                 1.2228                 1.9953
 Frc consts  --      0.6008                 0.7599                 1.3237
 IR Inten    --     70.8487                37.3819                51.4453

                     13                     14                     15
                      A                      A                      A
 Frequencies --   1098.3867              1148.3626              1347.3141
 Red. masses --      1.4407                 6.4135                 6.5892
 Frc consts  --      1.0241                 4.9831                 7.0473
 IR Inten    --      0.4534                14.0391                 1.5978

                     16                     17                     18
                      A                      A                      A
 Frequencies --   1485.8425              1540.2629              2976.4721
 Red. masses --      7.1081                 7.5405                 1.0834
 Frc consts  --      9.2459                10.5400                 5.6551
 IR Inten    --     13.6920                39.8984               380.9064

                     19                     20                     21
                      A                      A                      A
 Frequencies --   2987.7787              3013.1583              3033.1956
 Red. masses --      1.0859                 1.0908                 1.0993
 Frc consts  --      5.7115                 5.8349                 5.9588
 IR Inten    --    384.6231               263.1946               342.0679

 - Thermochemistry -
 -------------------
 Temperature   298.150 Kelvin.  Pressure   1.00000 Atm.
 Atom     1 has atomic number  6 and mass  12.00000

 Molecular mass:    68.02621 amu.
 Principal axes and moments of inertia in atomic units:
                           1         2         3
     Eigenvalues --   191.67069 196.10051 387.77113
           X            0.00473   0.99999   0.00000
           Y            0.99999  -0.00473   0.00005
           Z           -0.00005   0.00000   1.00000
 This molecule is an asymmetric top.
 Rotational symmetry number  1.
 Rotational temperatures (Kelvin)      0.45189     0.44168     0.22336
 Rotational constants (GHZ):           9.41584     9.20314     4.65414
 Zero-point vibrational energy     170400.2 (Joules/Mol)
                                   40.72663 (Kcal/Mol)
 Warning -- explicit consideration of   2 degrees of freedom as
           vibrations may cause significant error
 Vibrational temperatures:    711.31   745.80  1076.03  1085.59  1130.13
          (Kelvin)           1168.10  1247.86  1311.76  1346.81  1355.61
                             1477.61  1526.72  1580.33  1652.24  1938.48
                             2137.79  2216.09  4282.47  4298.74  4335.26
                             4364.09

 Zero-point correction=                           0.064902 (Hartree/Particle)
 Thermal correction to Energy=                    0.068851
 Thermal correction to Enthalpy=                  0.069795
 Thermal correction to Gibbs Free Energy=         0.038525
 Sum of electronic and zero-point Energies=              0.795845
 Sum of electronic and thermal Energies=                 0.799794
 Sum of electronic and thermal Enthalpies=               0.800738
 Sum of electronic and thermal Free Energies=            0.769468

                     E (Thermal)             CV                S
                      KCal/Mol        Cal/Mol-Kelvin    Cal/Mol-Kelvin
 Total                   43.205             14.594             65.814
 Electronic               0.000              0.000              0.000
 Translational            0.889              2.981             38.570
 Rotational               0.889              2.981             24.192
 Vibrational             41.427              8.632              3.052
 Vibration     1          0.850              1.262              0.672
 Vibration     2          0.873              1.209              0.614

 Optimization completed.
    -- Stationary point found.
 Normal termination of Gaussian 09 at Sun Nov 29 12:22:30 2015.
