 Gaussian 09, Revision D.01,
 Gaussian 09:  ES64L-G09RevD.01 24-Apr-2013

 ----------------------------
 #P AM1(Input,print) Opt Freq
 ----------------------------

 -----------------
 AM1-Reparam Input
 -----------------
 Symbolic Z-matrix:
 Charge =  0 Multiplicity = 1

 SCF Done:  E(RAM1) =  0.740914030577     A.U. after   18 cycles
 SCF Done:  E(RAM1) =  0.732947499319     A.U. after   16 cycles
 SCF Done:  E(RAM1) =  0.731545396183     A.U. after   15 cycles
 SCF Done:  E(RAM1) =  0.731248912767     A.U. after   15 cycles
 SCF Done:  E(RAM1) =  0.730978807234     A.U. after   15 cycles
 SCF Done:  E(RAM1) =  0.730945066802     A.U. after   13 cycles
 SCF Done:  E(RAM1) =  0.730944065108     A.U. after   14 cycles
 SCF Done:  E(RAM1) =  0.730942348349     A.U. after   13 cycles
 Optimization completed.
    -- Stationary point found.
 Normal termination of Gaussian 09 at Sun Nov 29 12:22:32 2015.

 -------------------------------------------------------------
 #P Geom=AllCheck Guess=TCheck SCRF=Check GenChk RAM1/ZDO Freq
 -------------------------------------------------------------

 Structure from the checkpoint file:  "/home/Applications/g09/scratch/Gau-20955.chk"
 -----------------
 AM1-Reparam Input
 -----------------
 Charge =  0 Multiplicity = 1

                         Standard orientation:
 ---------------------------------------------------------------------
 Center     Atomic      Atomic             Coordinates (Angstroms)
 Number     Number       Type             X           Y           Z
 ---------------------------------------------------------------------
      1          6           0        0.714859    0.957319    0.000027
      2          6           0        1.103898   -0.344889   -0.000064
      3          8           0        0.002888   -1.164465   -0.000014
      4          6           0       -1.102550   -0.349636   -0.000018
      5          6           0       -0.719233    0.954170   -0.000005
      6          1           0       -1.320755    1.858528   -0.000008
      7          1           0       -2.069077   -0.860243    0.000203
      8          1           0        2.073473   -0.849477    0.000282
      9          1           0        1.311415    1.865118    0.000000
 ---------------------------------------------------------------------

 SCF Done:  E(RAM1) =  0.730942348349     A.U. after    2 cycles

 The electronic state is 1-A.
 Alpha  occ. eigenvalues --   -1.19314  -0.92069  -0.91463  -0.73935  -0.69638
 Alpha  occ. eigenvalues --   -0.65778  -0.61042  -0.52952  -0.52177  -0.49712
 Alpha  occ. eigenvalues --   -0.49210  -0.40990  -0.35300
 Alpha virt. eigenvalues --    0.01094   0.02232   0.12104   0.13140   0.15576
 Alpha virt. eigenvalues --    0.16138   0.19657   0.20658   0.22255   0.22329
 Alpha virt. eigenvalues --    0.23971

 Mulliken charges:
               1
     1  C   -0.579827
     2  C    0.211191
     3  O   -0.429416
     4  C    0.209780
     5  C   -0.577789
     6  H    0.308239
     7  H    0.274767
     8  H    0.274649
     9  H    0.308406
 Sum of Mulliken charges =   0.00000

 Dipole moment (field-independent basis, Debye):
    X=              0.0006    Y=             -0.5130    Z=              0.0004  Tot=              0.5130
 N-N= 1.023842811147D+02 E-N=-1.712643752631D+02  KE=-1.497070354505D+01
  Exact polarizability:  48.647   0.003  57.003  -0.002   0.003   8.787
 Approx polarizability:  29.748  -0.015  40.303  -0.001   0.002   5.733
 Leave Link  601 at Sun Nov 29 12:22:33 2015, MaxMem=    33554432 cpu:         0.0
 (Enter /home/Applications/g09/g09/l701.exe)
 Compute integral second derivatives.
 ... and contract with generalized density number  0.
 Leave Link  701 at Sun Nov 29 12:22:33 2015, MaxMem=    33554432 cpu:         0.0
 (Enter /home/Applications/g09/g09/l702.exe)
 L702 exits ... SP integral derivatives will be done elsewhere.

                      1                      2                      3
                      A                      A                      A
 Frequencies --    493.9245               517.9853               747.4962
 Red. masses --      1.6052                 2.2314                 6.2427
 Frc consts  --      0.2307                 0.3527                 2.0551
 IR Inten    --      0.0011                63.6770                28.4988

                      4                      5                      6
                      A                      A                      A
 Frequencies --    753.7940               784.6127               811.7845
 Red. masses --      1.1871                 1.2756                 3.7571
 Frc consts  --      0.3974                 0.4627                 1.4588
 IR Inten    --    254.3865                 0.0001                10.4010

                      7                      8                      9
                      A                      A                      A
 Frequencies --    866.7543               911.0020               935.6916
 Red. masses --      1.7445                 1.5393                 2.1957
 Frc consts  --      0.7722                 0.7527                 1.1326
 IR Inten    --     21.1251                24.9341                 0.0023

                     10                     11                     12
                      A                      A                      A
 Frequencies --    941.7988              1026.7427              1060.3043
 Red. masses --      1.1495                 1.2242                 1.9946
 Frc consts  --      0.6007                 0.7604                 1.3212
 IR Inten    --     71.0500                37.3537                51.7275

                     13                     14                     15
                      A                      A                      A
 Frequencies --   1098.1355              1147.5850              1347.2505
 Red. masses --      1.4366                 6.3866                 6.5913
 Frc consts  --      1.0207                 4.9555                 7.0488
 IR Inten    --      0.4920                14.0225                 1.5979

                     16                     17                     18
                      A                      A                      A
 Frequencies --   1486.0616              1540.4095              2978.1810
 Red. masses --      7.1095                 7.5393                 1.0834
 Frc consts  --      9.2505                10.5403                 5.6615
 IR Inten    --     13.7153                39.8104               378.1303

                     19                     20                     21
                      A                      A                      A
 Frequencies --   2989.3385              3014.0555              3034.1057
 Red. masses --      1.0859                 1.0908                 1.0993
 Frc consts  --      5.7171                 5.8384                 5.9626
 IR Inten    --    388.6721               265.8437               338.2084

 - Thermochemistry -
 -------------------
 Temperature   298.150 Kelvin.  Pressure   1.00000 Atm.
 Atom     1 has atomic number  6 and mass  12.00000

 Molecular mass:    68.02621 amu.
 Principal axes and moments of inertia in atomic units:
                           1         2         3
     Eigenvalues --   191.72758 196.07906 387.80664
           X           -0.00787   0.99997   0.00000
           Y            0.99997   0.00787  -0.00001
           Z            0.00001   0.00000   1.00000
 This molecule is an asymmetric top.
 Rotational symmetry number  1.
 Rotational temperatures (Kelvin)      0.45175     0.44173     0.22334
 Rotational constants (GHZ):           9.41305     9.20415     4.65371
 Zero-point vibrational energy     170390.2 (Joules/Mol)
                                   40.72423 (Kcal/Mol)
 Warning -- explicit consideration of   2 degrees of freedom as
           vibrations may cause significant error
 Vibrational temperatures:    710.65   745.26  1075.48  1084.54  1128.88
          (Kelvin)           1167.98  1247.06  1310.73  1346.25  1355.04
                             1477.25  1525.54  1579.97  1651.12  1938.39
                             2138.11  2216.30  4284.93  4300.99  4336.55
                             4365.40

 Zero-point correction=                           0.064898 (Hartree/Particle)
 Thermal correction to Energy=                    0.068849
 Thermal correction to Enthalpy=                  0.069794
 Thermal correction to Gibbs Free Energy=         0.038520
 Sum of electronic and zero-point Energies=              0.795841
 Sum of electronic and thermal Energies=                 0.799792
 Sum of electronic and thermal Enthalpies=               0.800736
 Sum of electronic and thermal Free Energies=            0.769463

                     E (Thermal)             CV                S
                      KCal/Mol        Cal/Mol-Kelvin    Cal/Mol-Kelvin
 Total                   43.204             14.604             65.820
 Electronic               0.000              0.000              0.000
 Translational            0.889              2.981             38.570
 Rotational               0.889              2.981             24.192
 Vibrational             41.426              8.642              3.058
 Vibration     1          0.850              1.263              0.673
 Vibration     2          0.873              1.210              0.615

 Optimization completed.
    -- Stationary point found.
 Normal termination of Gaussian 09 at Sun Nov 29 12:22:33 2015.
