 Gaussian 09, Revision D.01,
 Gaussian 09:  ES64L-G09RevD.01 24-Apr-2013

 ----------------------------
 #P AM1(Input,print) Opt Freq
 ----------------------------

 -----------------
 AM1-Reparam Input
 -----------------
 Symbolic Z-matrix:
 Charge =  0 Multiplicity = 1

 SCF Done:  E(RAM1) =  -2.14744898158     A.U. after   14 cycles
 SCF Done:  E(RAM1) =  -2.47386224029     A.U. after   12 cycles
 SCF Done:  E(RAM1) =  -2.73691207425     A.U. after   12 cycles
 SCF Done:  E(RAM1) =  -2.81741930188     A.U. after   12 cycles
 SCF Done:  E(RAM1) =  -2.84348157811     A.U. after   11 cycles
 SCF Done:  E(RAM1) =  -2.85612403183     A.U. after   11 cycles
 SCF Done:  E(RAM1) =  -2.85883668337     A.U. after   11 cycles
 SCF Done:  E(RAM1) =  -2.86059464353     A.U. after   10 cycles
 SCF Done:  E(RAM1) =  -2.86092857844     A.U. after   10 cycles
 SCF Done:  E(RAM1) =  -2.86067962967     A.U. after   11 cycles
 SCF Done:  E(RAM1) =  -2.86113596443     A.U. after    8 cycles
 SCF Done:  E(RAM1) =  -2.86130418843     A.U. after   10 cycles
 SCF Done:  E(RAM1) =  -2.86134624068     A.U. after   10 cycles
 SCF Done:  E(RAM1) =  -2.86137107885     A.U. after    9 cycles
 SCF Done:  E(RAM1) =  -2.86137777172     A.U. after    9 cycles
 SCF Done:  E(RAM1) =  -2.86137928710     A.U. after    9 cycles
 Optimization completed.
    -- Stationary point found.
 Normal termination of Gaussian 09 at Mon Jan  4 00:00:55 2016.

 -------------------------------------------------------------
 #P Geom=AllCheck Guess=TCheck SCRF=Check GenChk RAM1/ZDO Freq
 -------------------------------------------------------------

 Structure from the checkpoint file:  "/opt/g09/scratch/Gau-20970.chk"
 -----------------
 AM1-Reparam Input
 -----------------
 Charge =  0 Multiplicity = 1

                         Standard orientation:
 ---------------------------------------------------------------------
 Center     Atomic      Atomic             Coordinates (Angstroms)
 Number     Number       Type             X           Y           Z
 ---------------------------------------------------------------------
      1          6           0       -0.745188    0.947443    0.000338
      2          6           0       -1.145564   -0.326085   -0.000208
      3          8           0       -0.000344   -1.160902    0.000111
      4          6           0        1.145735   -0.326465    0.000001
      5          6           0        0.745414    0.947381    0.000059
      6          1           0        1.309802    1.844684   -0.001940
      7          1           0        2.021504   -0.928691    0.000417
      8          1           0       -2.021901   -0.927345   -0.001178
      9          1           0       -1.309039    1.844918    0.000669
 ---------------------------------------------------------------------

 SCF Done:  E(RAM1) =  -2.86137928710     A.U. after    2 cycles

 The electronic state is 1-A.
 Alpha  occ. eigenvalues --   -1.72422  -1.34954  -1.24780  -1.11311  -1.07758
 Alpha  occ. eigenvalues --   -0.96458  -0.89454  -0.80023  -0.76637  -0.75336
 Alpha  occ. eigenvalues --   -0.72813  -0.66417  -0.60888
 Alpha virt. eigenvalues --   -0.15931  -0.10273  -0.06539  -0.04305   0.02738
 Alpha virt. eigenvalues --    0.03813   0.04996   0.06991   0.08949   0.10422
 Alpha virt. eigenvalues --    0.11587

 Mulliken charges:
               1
     1  C   -0.693587
     2  C   -0.431289
     3  O   -0.352448
     4  C   -0.431230
     5  C   -0.693457
     6  H    0.646912
     7  H    0.654103
     8  H    0.654082
     9  H    0.646913
 Sum of Mulliken charges =   0.00000

 Dipole moment (field-independent basis, Debye):
    X=              0.0015    Y=              2.2593    Z=             -0.0057  Tot=              2.2593
 N-N= 1.058925068674D+02 E-N=-1.730090933226D+02  KE=-1.911364043150D+01
  Exact polarizability:  30.003  -0.001  37.418   0.000   0.005   6.398
 Approx polarizability:  23.380   0.000  34.612   0.000   0.006   4.741
 Leave Link  601 at Mon Jan  4 00:00:56 2016, MaxMem=    33554432 cpu:         0.0
 (Enter /opt/g09/g09/l701.exe)
 Compute integral second derivatives.
 ... and contract with generalized density number  0.
 Leave Link  701 at Mon Jan  4 00:00:56 2016, MaxMem=    33554432 cpu:         0.0
 (Enter /opt/g09/g09/l702.exe)
 L702 exits ... SP integral derivatives will be done elsewhere.

                      1                      2                      3
                      A                      A                      A
 Frequencies --    576.1636               593.6550               833.4769
 Red. masses --      2.8470                 1.8887                 4.6449
 Frc consts  --      0.5568                 0.3922                 1.9012
 IR Inten    --     95.4477                 0.0070                 9.2530

                      4                      5                      6
                      A                      A                      A
 Frequencies --    864.4875               971.7261               999.7690
 Red. masses --      4.7098                 3.7361                 1.2056
 Frc consts  --      2.0738                 2.0785                 0.7100
 IR Inten    --      7.8990                10.9798               921.5173

                      7                      8                      9
                      A                      A                      A
 Frequencies --   1026.7907              1048.3390              1068.4874
 Red. masses --      1.2583                 2.0650                 3.5881
 Frc consts  --      0.7816                 1.3372                 2.4136
 IR Inten    --      0.0233               244.8980                 0.9827

                     10                     11                     12
                      A                      A                      A
 Frequencies --   1086.9966              1125.7003              1174.1656
 Red. masses --      1.4720                 1.7999                 1.2894
 Frc consts  --      1.0247                 1.3438                 1.0474
 IR Inten    --     11.2088                 0.0024                46.3054

                     13                     14                     15
                      A                      A                      A
 Frequencies --   1180.4126              1206.6153              1245.4497
 Red. masses --      1.2526                 1.3604                 1.9787
 Frc consts  --      1.0283                 1.1670                 1.8083
 IR Inten    --      2.5809               475.8797                80.1025

                     16                     17                     18
                      A                      A                      A
 Frequencies --   1687.0618              1735.4342              3384.1859
 Red. masses --      6.6078                 7.3184                 1.0941
 Frc consts  --     11.0807                12.9862                 7.3827
 IR Inten    --     27.3643                41.4635               832.0132

                     19                     20                     21
                      A                      A                      A
 Frequencies --   3400.5278              3467.2117              3530.4858
 Red. masses --      1.0903                 1.0886                 1.1016
 Frc consts  --      7.4282                 7.7102                 8.0899
 IR Inten    --   1216.6026               814.0796               594.5673

 - Thermochemistry -
 -------------------
 Temperature   298.150 Kelvin.  Pressure   1.00000 Atm.
 Atom     1 has atomic number  6 and mass  12.00000

 Molecular mass:    68.02621 amu.
 Principal axes and moments of inertia in atomic units:
                           1         2         3
     Eigenvalues --   193.55437 201.85882 395.41314
           X            1.00000  -0.00053   0.00000
           Y            0.00053   1.00000  -0.00003
           Z            0.00000   0.00003   1.00000
 This molecule is an asymmetric top.
 Rotational symmetry number  1.
 Rotational temperatures (Kelvin)      0.44749     0.42908     0.21905
 Rotational constants (GHZ):           9.32421     8.94061     4.56419
 Zero-point vibrational energy     192641.5 (Joules/Mol)
                                   46.04242 (Kcal/Mol)
 Warning -- explicit consideration of   2 degrees of freedom as
           vibrations may cause significant error
 Vibrational temperatures:    828.97   854.14  1199.19  1243.80  1398.10
          (Kelvin)           1438.44  1477.32  1508.32  1537.31  1563.94
                             1619.63  1689.36  1698.35  1736.05  1791.92
                             2427.30  2496.90  4869.08  4892.59  4988.54
                             5079.58

 Zero-point correction=                           0.073373 (Hartree/Particle)
 Thermal correction to Energy=                    0.076964
 Thermal correction to Enthalpy=                  0.077908
 Thermal correction to Gibbs Free Energy=         0.047099
 Sum of electronic and zero-point Energies=             -2.788006
 Sum of electronic and thermal Energies=                -2.784416
 Sum of electronic and thermal Enthalpies=              -2.783471
 Sum of electronic and thermal Free Energies=           -2.814280

                     E (Thermal)             CV                S
                      KCal/Mol        Cal/Mol-Kelvin    Cal/Mol-Kelvin
 Total                   48.295             12.447             64.842
 Electronic               0.000              0.000              0.000
 Translational            0.889              2.981             38.570
 Rotational               0.889              2.981             24.250
 Vibrational             46.518              6.485              2.023
 Vibration     1          0.933              1.083              0.493
 Vibration     2          0.951              1.045              0.461

 Normal termination of Gaussian 09 at Mon Jan  4 00:00:56 2016.
