 Gaussian 09, Revision D.01,
 Gaussian 09:  ES64L-G09RevD.01 24-Apr-2013

 ----------------------------
 #P AM1(Input,print) Opt Freq
 ----------------------------

 -----------------
 AM1-Reparam Input
 -----------------
 Symbolic Z-matrix:
 Charge =  0 Multiplicity = 1

 SCF Done:  E(RAM1) =  0.194159293864     A.U. after   13 cycles
 SCF Done:  E(RAM1) =  0.116172425850     A.U. after   12 cycles
 SCF Done:  E(RAM1) =  0.625535524514E-01 A.U. after   12 cycles
 SCF Done:  E(RAM1) =  0.525626326077E-01 A.U. after   11 cycles
 SCF Done:  E(RAM1) =  0.455968827417E-01 A.U. after   11 cycles
 SCF Done:  E(RAM1) =  0.439990961123E-01 A.U. after   11 cycles
 SCF Done:  E(RAM1) =  0.436306439650E-01 A.U. after   11 cycles
 SCF Done:  E(RAM1) =  0.436035017046E-01 A.U. after   10 cycles
 SCF Done:  E(RAM1) =  0.436024736384E-01 A.U. after    9 cycles
 Optimization completed.
    -- Stationary point found.
 Normal termination of Gaussian 09 at Sat Jan 16 16:01:02 2016.

 -------------------------------------------------------------
 #P Geom=AllCheck Guess=TCheck SCRF=Check GenChk RAM1/ZDO Freq
 -------------------------------------------------------------

 Structure from the checkpoint file:  "/opt/g09/scratch/Gau-11331.chk"
 -----------------
 AM1-Reparam Input
 -----------------
 Charge =  0 Multiplicity = 1

                         Standard orientation:
 ---------------------------------------------------------------------
 Center     Atomic      Atomic             Coordinates (Angstroms)
 Number     Number       Type             X           Y           Z
 ---------------------------------------------------------------------
      1          6           0        0.000000    0.716016   -1.259555
      2          6           0        0.000000    1.221417    0.021693
      3         16           0        0.000000    0.000000    1.164072
      4          6           0        0.000000   -1.221417    0.021693
      5          6           0        0.000000   -0.716016   -1.259555
      6          1           0        0.000000   -1.312643   -2.173588
      7          1           0        0.000000   -2.276545    0.288187
      8          1           0        0.000000    2.276545    0.288187
      9          1           0        0.000000    1.312643   -2.173588
 ---------------------------------------------------------------------

 SCF Done:  E(RAM1) =  0.436024736380E-01 A.U. after    2 cycles

 The electronic state is 1-A1.
 Alpha  occ. eigenvalues --   -1.38554  -1.09697  -0.91981  -0.75566  -0.67603
 Alpha  occ. eigenvalues --   -0.60205  -0.50812  -0.50809  -0.48991  -0.48354
 Alpha  occ. eigenvalues --   -0.42887  -0.35108  -0.33877
 Alpha virt. eigenvalues --    0.00874   0.03402   0.05000   0.06466   0.15129
 Alpha virt. eigenvalues --    0.15939   0.16889   0.17308   0.18590   0.19852
 Alpha virt. eigenvalues --    0.20644

 Mulliken charges:
               1
     1  C   -0.156683
     2  C   -0.439128
     3  S    0.547908
     4  C   -0.439128
     5  C   -0.156683
     6  H    0.152354
     7  H    0.169502
     8  H    0.169502
     9  H    0.152354
 Sum of Mulliken charges =   0.00000

 Dipole moment (field-independent basis, Debye):
    X=              0.0000    Y=              0.0000    Z=              0.3439  Tot=              0.3439
 N-N= 9.368891991769D+01 E-N=-1.556588606636D+02  KE=-1.454290577729D+01
 Symmetry A1   KE=-7.603776162384D+00
 Symmetry A2   KE=-6.271481231203D-01
 Symmetry B1   KE=-1.395203158531D+00
 Symmetry B2   KE=-4.916778333252D+00
  Exact polarizability:   9.715   0.000  56.324   0.000   0.000  69.018
 Approx polarizability:   6.607   0.000  48.529   0.000   0.000  55.094
 Leave Link  601 at Sat Jan 16 16:01:02 2016, MaxMem=    33554432 cpu:         0.0
 (Enter /opt/g09/g09/l701.exe)
 Compute integral second derivatives.

                      1                      2                      3
                     B1                     A2                     A1
 Frequencies --    407.8444               510.7059               641.6362
 Red. masses --      3.0329                 2.0302                11.1698
 Frc consts  --      0.2972                 0.3120                 2.7094
 IR Inten    --      0.7564                 0.0000                10.0970

                      4                      5                      6
                     B2                     B1                     A1
 Frequencies --    741.0840               789.8545               823.5896
 Red. masses --      7.5992                 1.1368                 4.9547
 Frc consts  --      2.4590                 0.4178                 1.9801
 IR Inten    --      0.4201               128.5042               117.8161

                      7                      8                      9
                     A2                     B2                     B1
 Frequencies --    848.7893               915.1947               938.4218
 Red. masses --      1.2665                 4.4772                 1.4180
 Frc consts  --      0.5376                 2.2095                 0.7358
 IR Inten    --      0.0000                 0.2073                10.1450

                     10                     11                     12
                     A2                     A1                     B2
 Frequencies --    973.2236              1096.4223              1119.0250
 Red. masses --      1.7191                 1.1060                 1.0788
 Frc consts  --      0.9593                 0.7834                 0.7959
 IR Inten    --      0.0000                 4.4520                 4.3966

                     13                     14                     15
                     A1                     B2                     A1
 Frequencies --   1157.2040              1249.3697              1478.7370
 Red. masses --      1.1408                 1.3192                 5.0423
 Frc consts  --      0.9000                 1.2132                 6.4962
 IR Inten    --      3.9497                 6.4595                 7.1060

                     16                     17                     18
                     A1                     B2                     B2
 Frequencies --   1566.5924              1671.0034              3243.1660
 Red. masses --      8.6357                 8.0097                 1.0801
 Frc consts  --     12.4871                13.1771                 6.6936
 IR Inten    --     70.0882                 0.4893                 5.7073

                     19                     20                     21
                     A1                     B2                     A1
 Frequencies --   3246.9824              3254.3902              3263.3639
 Red. masses --      1.0804                 1.0825                 1.0933
 Frc consts  --      6.7112                 6.7551                 6.8602
 IR Inten    --    105.2739               179.1303                 0.7430

 - Thermochemistry -
 -------------------
 Temperature   298.150 Kelvin.  Pressure   1.00000 Atm.
 Atom     1 has atomic number  6 and mass  12.00000

 Molecular mass:    84.00337 amu.
 Principal axes and moments of inertia in atomic units:
                           1         2         3
     Eigenvalues --   221.50732 324.74395 546.25127
           X            0.00000   0.00000   1.00000
           Y            0.00000   1.00000   0.00000
           Z            1.00000   0.00000   0.00000
 This molecule is an asymmetric top.
 Rotational symmetry number  2.
 Rotational temperatures (Kelvin)      0.39102     0.26671     0.15856
 Rotational constants (GHZ):           8.14755     5.55743     3.30387
 Zero-point vibrational energy     179060.6 (Joules/Mol)
                                   42.79652 (Kcal/Mol)
 Warning -- explicit consideration of   2 degrees of freedom as
           vibrations may cause significant error
 Vibrational temperatures:    586.80   734.79   923.17  1066.25  1136.42
          (Kelvin)           1184.96  1221.22  1316.76  1350.18  1400.25
                             1577.51  1610.03  1664.96  1797.56  2127.57
                             2253.97  2404.20  4666.19  4671.68  4682.34
                             4695.25

 Zero-point correction=                           0.068201 (Hartree/Particle)
 Thermal correction to Energy=                    0.072238
 Thermal correction to Enthalpy=                  0.073182
 Thermal correction to Gibbs Free Energy=         0.041646
 Sum of electronic and zero-point Energies=              0.111803
 Sum of electronic and thermal Energies=                 0.115840
 Sum of electronic and thermal Enthalpies=               0.116784
 Sum of electronic and thermal Free Energies=            0.085249

                     E (Thermal)             CV                S
                      KCal/Mol        Cal/Mol-Kelvin    Cal/Mol-Kelvin
 Total                   45.330             14.667             66.372
 Electronic               0.000              0.000              0.000
 Translational            0.889              2.981             39.198
 Rotational               0.889              2.981             23.800
 Vibrational             43.552              8.705              3.373
 Vibration     1          0.772              1.453              0.934
 Vibration     2          0.866              1.226              0.632

 Optimization completed.
    -- Stationary point found.
 Normal termination of Gaussian 09 at Sat Jan 16 16:01:02 2016.
