 Gaussian 09, Revision D.01,
 Gaussian 09:  ES64L-G09RevD.01 24-Apr-2013

 ------------------------
 #P AM1(Input,print) freq
 ------------------------

 -----------------
 AM1-Reparam Input
 -----------------
 Symbolic Z-matrix:
 Charge =  0 Multiplicity = 1

                         Standard orientation:
 ---------------------------------------------------------------------
 Center     Atomic      Atomic             Coordinates (Angstroms)
 Number     Number       Type             X           Y           Z
 ---------------------------------------------------------------------
      1          6           0        0.000000    0.715963   -1.165894
      2          6           0        0.000000    1.092818    0.135208
      3         16           0        0.000000    0.000000    0.946886
      4          6           0        0.000000   -1.092818    0.135208
      5          6           0        0.000000   -0.715963   -1.165894
      6          1           0        0.000000   -1.369382   -2.020857
      7          1           0        0.000000   -2.046884    0.629888
      8          1           0        0.000000    2.046884    0.629888
      9          1           0        0.000000    1.369382   -2.020857
 ---------------------------------------------------------------------

 SCF Done:  E(RAM1) =  0.194148498819     A.U. after   13 cycles

 The electronic state is 1-A1.
 Alpha  occ. eigenvalues --   -1.49382  -1.16635  -0.97282  -0.79704  -0.67522
 Alpha  occ. eigenvalues --   -0.61635  -0.58163  -0.52006  -0.48911  -0.48036
 Alpha  occ. eigenvalues --   -0.38444  -0.37340  -0.32754
 Alpha virt. eigenvalues --    0.03135   0.03883   0.06471   0.06631   0.15506
 Alpha virt. eigenvalues --    0.15554   0.17718   0.17868   0.20211   0.20682
 Alpha virt. eigenvalues --    0.20897

 Mulliken charges:
               1
     1  C   -0.173322
     2  C   -0.882266
     3  S    1.424448
     4  C   -0.882266
     5  C   -0.173322
     6  H    0.154348
     7  H    0.189016
     8  H    0.189016
     9  H    0.154348
 Sum of Mulliken charges =   0.00000

 Dipole moment (field-independent basis, Debye):
    X=              0.0000    Y=              0.0000    Z=              2.3444  Tot=              2.3444
 N-N= 9.805573669632D+01 E-N=-1.630733412491D+02  KE=-1.489355999717D+01
 Symmetry A1   KE=-7.776402745663D+00
 Symmetry A2   KE=-6.182932092612D-01
 Symmetry B1   KE=-1.519519767721D+00
 Symmetry B2   KE=-4.979344274529D+00
  Exact polarizability:  11.444   0.000  52.763   0.000   0.000  49.211
 Approx polarizability:   7.695   0.000  48.745   0.000   0.000  35.515
 Leave Link  601 at Sun Jan 10 23:09:29 2016, MaxMem=    33554432 cpu:         0.0
 (Enter /opt/g09/g09/l701.exe)
 Compute integral second derivatives.

 ******    1 imaginary frequencies (negative Signs) ******

                      1                      2                      3
                     B1                     A2                     B1
 Frequencies --   -199.6270               385.6320               646.5075
 Red. masses --      2.6677                 2.0238                 1.2296
 Frc consts  --      0.0626                 0.1773                 0.3028
 IR Inten    --     13.6353                 0.0000               185.1211

                      4                      5                      6
                     A1                     A2                     B1
 Frequencies --    673.1559               747.2710               837.4752
 Red. masses --      6.4694                 1.3047                 1.4186
 Frc consts  --      1.7272                 0.4293                 0.5862
 IR Inten    --      0.0001                 0.0000                 0.0017

                      7                      8                      9
                     B2                     A2                     A1
 Frequencies --    856.4745               904.2548               982.8484
 Red. masses --      3.5566                 1.6713                 1.1594
 Frc consts  --      1.5372                 0.8052                 0.6599
 IR Inten    --      1.6440                 0.0000                30.4174

                     10                     11                     12
                     B2                     A1                     B2
 Frequencies --   1017.1642              1064.6699              1133.6649
 Red. masses --      1.2150                 1.0932                 1.3289
 Frc consts  --      0.7406                 0.7301                 1.0063
 IR Inten    --     17.9894                10.3471                15.9333

                     13                     14                     15
                     A1                     B2                     A1
 Frequencies --   1301.3403              1449.9412              1492.7921
 Red. masses --      7.1985                 5.4972                 5.7014
 Frc consts  --      7.1825                 6.8091                 7.4857
 IR Inten    --     42.6298                27.1114                 2.5982

                     16                     17                     18
                     A1                     B2                     B2
 Frequencies --   1671.4610              1775.6064              3362.3720
 Red. masses --      6.8815                 8.9785                 1.0853
 Frc consts  --     11.3273                16.6781                 7.2290
 IR Inten    --      0.0636                 0.2529                37.8916

                     19                     20                     21
                     A1                     B2                     A1
 Frequencies --   3367.3106              3386.9192              3397.4670
 Red. masses --      1.0867                 1.0804                 1.0932
 Frc consts  --      7.2601                 7.3023                 7.4346
 IR Inten    --     88.2827               270.5973                22.2614

 - Thermochemistry -
 -------------------
 Temperature   298.150 Kelvin.  Pressure   1.00000 Atm.
 Atom     1 has atomic number  6 and mass  12.00000

 Molecular mass:    84.00337 amu.
 Principal axes and moments of inertia in atomic units:
                           1         2         3
     Eigenvalues --   189.94244 252.36894 442.31138
           X            0.00000   0.00000   1.00000
           Y            0.00000   1.00000   0.00000
           Z            1.00000   0.00000   0.00000
 This molecule is an asymmetric top.
 Rotational symmetry number  2.
 Rotational temperatures (Kelvin)      0.45600     0.34320     0.19582
 Rotational constants (GHZ):           9.50152     7.15120     4.08025
    1 imaginary frequencies ignored.
 Zero-point vibrational energy     182157.3 (Joules/Mol)
                                   43.53665 (Kcal/Mol)
 Warning -- explicit consideration of   1 degrees of freedom as
           vibrations may cause significant error
 Vibrational temperatures:    554.84   930.18   968.52  1075.15  1204.94
          (Kelvin)           1232.27  1301.02  1414.10  1463.47  1531.82
                             1631.09  1872.34  2086.14  2147.79  2404.86
                             2554.70  4837.70  4844.80  4873.02  4888.19

 Zero-point correction=                           0.069380 (Hartree/Particle)
 Thermal correction to Energy=                    0.073227
 Thermal correction to Enthalpy=                  0.074171
 Thermal correction to Gibbs Free Energy=         0.043177
 Sum of electronic and zero-point Energies=              0.263529
 Sum of electronic and thermal Energies=                 0.267375
 Sum of electronic and thermal Enthalpies=               0.268319
 Sum of electronic and thermal Free Energies=            0.237325

                     E (Thermal)             CV                S
                      KCal/Mol        Cal/Mol-Kelvin    Cal/Mol-Kelvin
 Total                   45.950             13.369             65.232
 Electronic               0.000              0.000              0.000
 Translational            0.889              2.981             39.198
 Rotational               0.889              2.981             23.187
 Vibrational             44.173              7.407              2.847
 Vibration     1          0.754              1.501              1.017

 Normal termination of Gaussian 09 at Sun Jan 10 23:09:29 2016.
