 Gaussian 09, Revision D.01,
 Gaussian 09:  ES64L-G09RevD.01 24-Apr-2013

 ----------
 #P AM1 Opt
 ----------

 -----------------
 AM1-Reparam Input
 -----------------
 Symbolic Z-matrix:
 Charge =  0 Multiplicity = 1

 SCF Done:  E(RAM1) =  0.194148494912     A.U. after   13 cycles
 SCF Done:  E(RAM1) =  0.116164273800     A.U. after   12 cycles
 SCF Done:  E(RAM1) =  0.625479480520E-01 A.U. after   12 cycles
 SCF Done:  E(RAM1) =  0.525573615832E-01 A.U. after   11 cycles
 SCF Done:  E(RAM1) =  0.455918615836E-01 A.U. after   11 cycles
 SCF Done:  E(RAM1) =  0.439941076369E-01 A.U. after   11 cycles
 SCF Done:  E(RAM1) =  0.436257341996E-01 A.U. after   11 cycles
 SCF Done:  E(RAM1) =  0.435986095489E-01 A.U. after   10 cycles
 SCF Done:  E(RAM1) =  0.435975820363E-01 A.U. after    9 cycles
 Optimization completed.
    -- Stationary point found.

                         Standard orientation:
 ---------------------------------------------------------------------
 Center     Atomic      Atomic             Coordinates (Angstroms)
 Number     Number       Type             X           Y           Z
 ---------------------------------------------------------------------
      1          6           0        0.000000    0.716013   -1.259555
      2          6           0        0.000000    1.221412    0.021692
      3         16           0        0.000000    0.000000    1.164073
      4          6           0        0.000000   -1.221412    0.021692
      5          6           0        0.000000   -0.716013   -1.259555
      6          1           0        0.000000   -1.312642   -2.173587
      7          1           0        0.000000   -2.276541    0.288185
      8          1           0        0.000000    2.276541    0.288185
      9          1           0        0.000000    1.312642   -2.173587
 ---------------------------------------------------------------------

 The electronic state is 1-A1.
 Alpha  occ. eigenvalues --   -1.38554  -1.09697  -0.91981  -0.75566  -0.67603
 Alpha  occ. eigenvalues --   -0.60205  -0.50813  -0.50809  -0.48991  -0.48354
 Alpha  occ. eigenvalues --   -0.42887  -0.35108  -0.33877
 Alpha virt. eigenvalues --    0.00874   0.03402   0.05000   0.06466   0.15129
 Alpha virt. eigenvalues --    0.15939   0.16889   0.17308   0.18590   0.19852
 Alpha virt. eigenvalues --    0.20645

 Mulliken charges:
               1
     1  C   -0.156682
     2  C   -0.439131
     3  S    0.547917
     4  C   -0.439131
     5  C   -0.156682
     6  H    0.152354
     7  H    0.169501
     8  H    0.169501
     9  H    0.152354
 Sum of Mulliken charges =   0.00000

 Dipole moment (field-independent basis, Debye):
    X=              0.0000    Y=              0.0000    Z=              0.3440  Tot=              0.3440
 N-N= 9.368898438586D+01 E-N=-1.556589826058D+02  KE=-1.454291572359D+01
 Symmetry A1   KE=-7.603787642854D+00
 Symmetry A2   KE=-6.271477490840D-01
 Symmetry B1   KE=-1.395204567905D+00
 Symmetry B2   KE=-4.916775763753D+00
 Leave Link  601 at Sun Jan 10 23:11:38 2016, MaxMem=    33554432 cpu:         0.0
 (Enter /opt/g09/g09/l9999.exe)
 1\1\GINC-LINUX-CBNE\FOpt\RAM1\ZDO\C4H4S1\DUSTIN\10-Jan-2016\0\\#P AM1
 Opt\\AM1-Reparam Input\\0,1\C,0.9173547221,-0.7160132376,0.\C,-0.36389
 26225,-1.2214119598,0.\S,-1.5062731019,0.,0.\C,-0.3638926225,1.2214119

 Normal termination of Gaussian 09 at Sun Jan 10 23:11:39 2016.
