 Gaussian 09, Revision D.01,
 Gaussian 09:  ES64L-G09RevD.01 24-Apr-2013

 -----------------------
 #P B3LYP/3-21G Opt Freq
 -----------------------

 ------------------------
 Thiophene at B3LYP/3-21G
 ------------------------
 Symbolic Z-matrix:
 Charge =  0 Multiplicity = 1

 SCF Done:  E(RB3LYP) =  -549.853715061     A.U. after   13 cycles
 SCF Done:  E(RB3LYP) =  -550.027595102     A.U. after   13 cycles
 SCF Done:  E(RB3LYP) =  -550.160700056     A.U. after   15 cycles
 SCF Done:  E(RB3LYP) =  -550.180036611     A.U. after   14 cycles
 SCF Done:  E(RB3LYP) =  -550.183495384     A.U. after   13 cycles
 SCF Done:  E(RB3LYP) =  -550.184026386     A.U. after   12 cycles
 SCF Done:  E(RB3LYP) =  -550.184107810     A.U. after   11 cycles
 SCF Done:  E(RB3LYP) =  -550.184109205     A.U. after    8 cycles
 Optimization completed.
    -- Stationary point found.
 Normal termination of Gaussian 09 at Sun Jan 10 23:06:16 2016.

 -----------------------------------------------------------------
 #P Geom=AllCheck Guess=TCheck SCRF=Check GenChk RB3LYP/3-21G Freq
 -----------------------------------------------------------------

 Structure from the checkpoint file:  "/opt/g09/scratch/Gau-13818.chk"
 ------------------------
 Thiophene at B3LYP/3-21G
 ------------------------
 Charge =  0 Multiplicity = 1

                         Standard orientation:
 ---------------------------------------------------------------------
 Center     Atomic      Atomic             Coordinates (Angstroms)
 Number     Number       Type             X           Y           Z
 ---------------------------------------------------------------------
      1          6           0        0.000000    0.721068   -1.285701
      2          6           0        0.000000    1.271056   -0.043771
      3         16           0        0.000000    0.000000    1.241477
      4          6           0        0.000000   -1.271056   -0.043771
      5          6           0        0.000000   -0.721068   -1.285701
      6          1           0        0.000000   -1.311371   -2.191644
      7          1           0        0.000000   -2.310763    0.236661
      8          1           0        0.000000    2.310763    0.236661
      9          1           0        0.000000    1.311371   -2.191644
 ---------------------------------------------------------------------

 SCF Done:  E(RB3LYP) =  -550.184109205     A.U. after    1 cycles

 The electronic state is 1-A1.
 Alpha  occ. eigenvalues --  -88.26563 -10.16103 -10.16096 -10.13612 -10.13494
 Alpha  occ. eigenvalues --   -7.90763  -5.87721  -5.87318  -5.86743  -0.87731
 Alpha  occ. eigenvalues --   -0.73378  -0.73072  -0.57362  -0.55206  -0.52053
 Alpha  occ. eigenvalues --   -0.42644  -0.40373  -0.38325  -0.37407  -0.34090
 Alpha  occ. eigenvalues --   -0.25311  -0.24111
 Alpha virt. eigenvalues --   -0.01324   0.03443   0.07707   0.09382   0.12090
 Alpha virt. eigenvalues --    0.17006   0.19443   0.20845   0.30064   0.35947
 Alpha virt. eigenvalues --    0.45478   0.47887   0.50670   0.52670   0.53092

 Mulliken charges:
               1
     1  C   -0.146347
     2  C   -0.539263
     3  S    0.515863
     4  C   -0.539263
     5  C   -0.146347
     6  H    0.199431
     7  H    0.228248
     8  H    0.228248
     9  H    0.199431
 Sum of Mulliken charges =   0.00000

 Dipole moment (field-independent basis, Debye):
    X=              0.0000    Y=              0.0000    Z=             -0.9657  Tot=              0.9657
 Quadrupole moment (field-independent basis, Debye-Ang):
   XX=            -40.7949   YY=            -30.8446   ZZ=            -34.8924
   XY=              0.0000   XZ=              0.0000   YZ=              0.0000

  Exact polarizability:  17.274   0.000  57.360   0.000   0.000  63.731
 Approx polarizability:  21.633   0.000  99.089   0.000   0.000 115.432

                      1                      2                      3
                     B1                     A2                     A1
 Frequencies --    441.1351               587.6432               599.2200
 Red. masses --      4.1625                 2.8672                10.7443
 Frc consts  --      0.4773                 0.5834                 2.2730
 IR Inten    --      0.1926                 0.0000                 3.1488

                      4                      5                      6
                     B2                     A2                     B1
 Frequencies --    675.9397               733.8075               747.1446
 Red. masses --      7.6869                 1.2615                 1.1254
 Frc consts  --      2.0693                 0.4002                 0.3701
 IR Inten    --      0.0781                 0.0000               158.5527

                      7                      8                      9
                     A1                     B2                     B1
 Frequencies --    780.8352               883.9604               934.6693
 Red. masses --      4.8077                 4.4750                 1.2601
 Frc consts  --      1.7271                 2.0602                 0.6486
 IR Inten    --     26.6999                 0.1583                 2.2291

                     10                     11                     12
                     A2                     A1                     B2
 Frequencies --    965.0971              1031.7717              1139.2416
 Red. masses --      1.3721                 2.2143                 1.1471
 Frc consts  --      0.7530                 1.3889                 0.8772
 IR Inten    --      0.0000                 1.8954                 3.5371

                     13                     14                     15
                     A1                     B2                     A1
 Frequencies --   1145.4252              1304.9802              1396.8721
 Red. masses --      1.0586                 1.3574                 1.7759
 Frc consts  --      0.8183                 1.3619                 2.0416
 IR Inten    --      3.0663                15.7093                 0.0267

                     16                     17                     18
                     A1                     B2                     B2
 Frequencies --   1471.3352              1584.1747              3229.6278
 Red. masses --      7.0192                 4.3719                 1.0881
 Frc consts  --      8.9528                 6.4644                 6.6868
 IR Inten    --     17.3323                 0.2267                 3.4254

                     19                     20                     21
                     A1                     B2                     A1
 Frequencies --   3244.0066              3297.8341              3302.0556
 Red. masses --      1.0930                 1.0957                 1.1005
 Frc consts  --      6.7771                 7.0208                 7.0700
 IR Inten    --      1.6318                 0.0969                 1.5588

 - Thermochemistry -
 -------------------
 Temperature   298.150 Kelvin.  Pressure   1.00000 Atm.
 Atom     1 has atomic number  6 and mass  12.00000

 Molecular mass:    84.00337 amu.
 Principal axes and moments of inertia in atomic units:
                           1         2         3
     Eigenvalues --   233.83928 352.15969 585.99897
           X            0.00000   0.00000   1.00000
           Y            0.00000   1.00000   0.00000
           Z            1.00000   0.00000   0.00000
 This molecule is an asymmetric top.
 Rotational symmetry number  2.
 Rotational temperatures (Kelvin)      0.37040     0.24595     0.14781
 Rotational constants (GHZ):           7.71787     5.12478     3.07977
 Zero-point vibrational energy     176429.9 (Joules/Mol)
                                   42.16776 (Kcal/Mol)
 Warning -- explicit consideration of   3 degrees of freedom as
           vibrations may cause significant error
 Vibrational temperatures:    634.69   845.49   862.14   972.53  1055.78
          (Kelvin)           1074.97  1123.45  1271.82  1344.78  1388.56
                             1484.49  1639.11  1648.01  1877.57  2009.78
                             2116.92  2279.27  4646.71  4667.40  4744.84
                             4750.92

 Zero-point correction=                           0.067199 (Hartree/Particle)
 Thermal correction to Energy=                    0.071281
 Thermal correction to Enthalpy=                  0.072225
 Thermal correction to Gibbs Free Energy=         0.040551
 Sum of electronic and zero-point Energies=           -550.116911
 Sum of electronic and thermal Energies=              -550.112829
 Sum of electronic and thermal Enthalpies=            -550.111884
 Sum of electronic and thermal Free Energies=         -550.143558

                     E (Thermal)             CV                S
                      KCal/Mol        Cal/Mol-Kelvin    Cal/Mol-Kelvin
 Total                   44.729             15.120             66.663
 Electronic               0.000              0.000              0.000
 Translational            0.889              2.981             39.198
 Rotational               0.889              2.981             24.004
 Vibrational             42.952              9.159              3.460
 Vibration     1          0.801              1.380              0.823
 Vibration     2          0.945              1.058              0.471
 Vibration     3          0.957              1.033              0.451

 Optimization completed.
    -- Stationary point found.
 Normal termination of Gaussian 09 at Sun Jan 10 23:06:24 2016.
