 Gaussian 09, Revision D.01,
 Gaussian 09:  ES64L-G09RevD.01 24-Apr-2013

 ------------------------------------------------------------
 #P AM1(Input,print) CIS(Singlets,NStates=15) pop(full) force
 ------------------------------------------------------------

 -----------------
 AM1-Reparam Input
 -----------------
 Symbolic Z-matrix:
 Charge =  0 Multiplicity = 1

                         Standard orientation:
 ---------------------------------------------------------------------
 Center     Atomic      Atomic             Coordinates (Angstroms)
 Number     Number       Type             X           Y           Z
 ---------------------------------------------------------------------
      1          6           0        0.000000    0.715963   -0.955475
      2          6           0        0.000000    1.092818    0.345627
      3          8           0        0.000000    0.000000    1.157305
      4          6           0        0.000000   -1.092818    0.345627
      5          6           0        0.000000   -0.715963   -0.955475
      6          1           0        0.000000   -1.369382   -1.810438
      7          1           0        0.000000   -2.046884    0.840307
      8          1           0        0.000000    2.046884    0.840307
      9          1           0        0.000000    1.369382   -1.810438
 ---------------------------------------------------------------------

 SCF Done:  E(RAM1) = -0.512628329469     A.U. after   12 cycles

 Excitation energies and oscillator strengths:

 Excited State   1:      Singlet-B2     4.6338 eV  267.56 nm  f=0.0889  <S**2>=0.000
      12 -> 15        -0.24868
      13 -> 14         0.65575
 This state for optimization and/or second-order correction.
 Total Energy, E(CIS) = -0.342338367434
 Copying the excited state density for this state as the 1-particle RhoCI density.

 Excited State   2:      Singlet-A1     5.3368 eV  232.32 nm  f=0.0118  <S**2>=0.000
      12 -> 14         0.39401
      13 -> 15         0.58413

 Excited State   3:      Singlet-A2     5.8886 eV  210.55 nm  f=0.0000  <S**2>=0.000
      13 -> 16         0.68615
      13 -> 20        -0.12567

 Excited State   4:      Singlet-A1     6.5765 eV  188.53 nm  f=0.5129  <S**2>=0.000
      12 -> 14         0.56903
      13 -> 15        -0.37967

 Excited State   5:      Singlet-B2     6.6796 eV  185.62 nm  f=0.1884  <S**2>=0.000
      12 -> 15         0.65492
      13 -> 14         0.24169

 Excited State   6:      Singlet-B1     7.0831 eV  175.04 nm  f=0.0013  <S**2>=0.000
       7 -> 16        -0.12661
      12 -> 16         0.65461
      12 -> 18         0.12767
      12 -> 20        -0.10188
      13 -> 24         0.10937

 Excited State   7:      Singlet-B1     7.1440 eV  173.55 nm  f=0.0001  <S**2>=0.000
      12 -> 22         0.12974
      13 -> 17         0.62549
      13 -> 19         0.18961
      13 -> 21         0.16654

 Excited State   8:      Singlet-B1     7.4008 eV  167.53 nm  f=0.0000  <S**2>=0.000
       9 -> 14         0.39861
      10 -> 15        -0.32755
      11 -> 14         0.35285
      12 -> 22        -0.10393
      13 -> 17         0.15233
      13 -> 19        -0.16461
      13 -> 24        -0.15365

 Excited State   9:      Singlet-A2     7.4396 eV  166.65 nm  f=0.0000  <S**2>=0.000
       9 -> 15         0.10065
      10 -> 14        -0.32242
      11 -> 15         0.20951
      12 -> 19         0.12801
      12 -> 21         0.15549
      12 -> 24         0.13761
      13 -> 18         0.33242
      13 -> 22         0.39366

 Excited State  10:      Singlet-A2     7.7273 eV  160.45 nm  f=0.0000  <S**2>=0.000
       9 -> 15        -0.11147
      10 -> 14         0.42342
      11 -> 15        -0.27137
      12 -> 17         0.19166
      12 -> 19         0.11381
      12 -> 21         0.16287
      13 -> 20         0.11162
      13 -> 22         0.34764

 Excited State  11:      Singlet-A2     7.7756 eV  159.45 nm  f=0.0000  <S**2>=0.000
      10 -> 14         0.20683
      12 -> 17        -0.39939
      12 -> 19        -0.11555
      13 -> 18         0.48125
      13 -> 22        -0.10520

 Excited State  12:      Singlet-B1     7.8800 eV  157.34 nm  f=0.0122  <S**2>=0.000
       9 -> 14         0.26036
      10 -> 15        -0.15649
      12 -> 16        -0.13734
      12 -> 18         0.19515
      12 -> 22         0.25416
      13 -> 17        -0.16655
      13 -> 19         0.29977
      13 -> 21         0.25686
      13 -> 24         0.29184

 Excited State  13:      Singlet-B1     8.0661 eV  153.71 nm  f=0.0020  <S**2>=0.000
       8 -> 15         0.12014
       9 -> 14        -0.36921
      11 -> 14         0.56247
      13 -> 17        -0.11166

 Excited State  14:      Singlet-A2     8.1971 eV  151.25 nm  f=0.0000  <S**2>=0.000
       8 -> 14         0.11229
       9 -> 15        -0.30968
      10 -> 14         0.23930
      11 -> 15         0.53425
      13 -> 20         0.14442

 Excited State  15:      Singlet-A2     8.3559 eV  148.38 nm  f=0.0000  <S**2>=0.000
      12 -> 17        -0.21567
      12 -> 19        -0.31179
      12 -> 21        -0.14788
      12 -> 23         0.10999
      12 -> 24         0.13976
      13 -> 18        -0.11652
      13 -> 20         0.47535
      13 -> 22         0.18657

 The electronic state is 1-A1.
 Alpha  occ. eigenvalues --   -1.54709  -1.19128  -1.07845  -0.83308  -0.78849
 Alpha  occ. eigenvalues --   -0.71760  -0.64171  -0.57461  -0.52466  -0.51702
 Alpha  occ. eigenvalues --   -0.51135  -0.40744  -0.36056
 Alpha virt. eigenvalues --    0.03022   0.06293   0.11877   0.15443   0.16655
 Alpha virt. eigenvalues --    0.18294   0.19514   0.20528   0.22353   0.24106
 Alpha virt. eigenvalues --    0.24488

 Mulliken charges:
               1
     1  C   -0.200579
     2  C   -0.033882
     3  O   -0.154862
     4  C   -0.033882
     5  C   -0.200579
     6  H    0.146040
     7  H    0.165852
     8  H    0.165852
     9  H    0.146040
 Sum of Mulliken charges =   0.00000

 Dipole moment (field-independent basis, Debye):
    X=              0.0000    Y=              0.0000    Z=             -0.4549  Tot=              0.4549
 N-N= 1.031820514832D+02 E-N=-1.708746151627D+02  KE=-1.712808482187D+01
 Symmetry A1   KE=-9.259937250036D+00
 Symmetry A2   KE=-6.709728419750D-01
 Symmetry B1   KE=-1.825005653402D+00
 Symmetry B2   KE=-5.372169076454D+00
 Orbital energies and kinetic energies (alpha):
                                 1                 2
   1         (A1)--O          -1.547090         -1.326238
   2         (A1)--O          -1.191284         -1.034292
   3         (B2)--O          -1.078447         -0.957470

 Normal termination of Gaussian 09 at Tue Oct  6 15:41:39 2015.
