 Gaussian 09, Revision D.01,
 Gaussian 09:  ES64L-G09RevD.01 24-Apr-2013

 -----------------------
 #P AM1(Input,print) opt
 -----------------------

 -----------------
 AM1-Reparam Input
 -----------------
 Symbolic Z-matrix:
 Charge =  0 Multiplicity = 1

 SCF Done:  E(RAM1) = -0.259507645730     A.U. after   13 cycles
 SCF Done:  E(RAM1) = -0.260128875016     A.U. after   11 cycles
 SCF Done:  E(RAM1) = -0.260346335300     A.U. after   10 cycles
 SCF Done:  E(RAM1) = -0.260353925013     A.U. after    9 cycles
 SCF Done:  E(RAM1) = -0.260355235742     A.U. after    8 cycles
 Optimization completed.
    -- Stationary point found.

                         Standard orientation:
 ---------------------------------------------------------------------
 Center     Atomic      Atomic             Coordinates (Angstroms)
 Number     Number       Type             X           Y           Z
 ---------------------------------------------------------------------
      1          6           0        0.000000    0.711016   -0.961953
      2          6           0        0.000000    1.092462    0.344506
      3          8           0        0.000000    0.000000    1.172700
      4          6           0        0.000000   -1.092462    0.344506
      5          6           0        0.000000   -0.711016   -0.961953
      6          1           0        0.000000   -1.338923   -1.833504
      7          1           0        0.000000   -2.041953    0.847381
      8          1           0        0.000000    2.041953    0.847381
      9          1           0        0.000000    1.338923   -1.833504
 ---------------------------------------------------------------------

 The electronic state is 1-A1.
 Alpha  occ. eigenvalues --   -1.55065  -1.22597  -1.06870  -0.81537  -0.80152
 Alpha  occ. eigenvalues --   -0.68421  -0.60503  -0.54552  -0.50487  -0.49156
 Alpha  occ. eigenvalues --   -0.48732  -0.38979  -0.34171
 Alpha virt. eigenvalues --    0.04909   0.08454   0.12915   0.17545   0.19720
 Alpha virt. eigenvalues --    0.20419   0.21787   0.23208   0.24266   0.25247
 Alpha virt. eigenvalues --    0.26248

 Mulliken charges:
               1
     1  C   -0.219132
     2  C   -0.149865
     3  O    0.004553
     4  C   -0.149865
     5  C   -0.219132
     6  H    0.171679
     7  H    0.195041
     8  H    0.195041
     9  H    0.171679
 Sum of Mulliken charges =   0.00000

 Dipole moment (field-independent basis, Debye):
    X=              0.0000    Y=              0.0000    Z=             -0.1094  Tot=              0.1094
 N-N= 1.035034139430D+02 E-N=-1.721926312477D+02  KE=-1.631047358475D+01
 Symmetry A1   KE=-8.989729102814D+00
 Symmetry A2   KE=-5.812733558301D-01
 Symmetry B1   KE=-1.642146422060D+00
 Symmetry B2   KE=-5.097324704042D+00
 Leave Link  601 at Tue Oct  6 15:45:32 2015, MaxMem=    33554432 cpu:         0.0
 (Enter /home/Applications/g09/g09/l9999.exe)
 1\1\GINC-DUSTIN-DESKTOP\FOpt\RAM1\ZDO\C4H4O1\DUSTIN\06-Oct-2015\0\\#P
 AM1(Input,print) opt\\AM1-Reparam Input\\0,1\C,0.9584209806,-0.7110163
 736,0.\C,-0.3480377063,-1.0924623281,0.\O,-1.176231842,0.,0.\C,-0.3480

 Normal termination of Gaussian 09 at Tue Oct  6 15:45:32 2015.
