 Gaussian 09, Revision D.01,
 Gaussian 09:  ES64L-G09RevD.01 24-Apr-2013

 ------------------------------------------------------------
 #P AM1(Input,print) CIS(Singlets,NStates=15) pop(full) force
 ------------------------------------------------------------

 -----------------
 AM1-Reparam Input
 -----------------
 Symbolic Z-matrix:
 Charge =  0 Multiplicity = 1

                         Standard orientation:
 ---------------------------------------------------------------------
 Center     Atomic      Atomic             Coordinates (Angstroms)
 Number     Number       Type             X           Y           Z
 ---------------------------------------------------------------------
      1          6           0       -0.600845    1.011082   -0.011114
      2          6           0       -1.134477   -0.269980   -0.037861
      3          8           0       -0.093479   -1.155839    0.034801
      4          6           0        1.096304   -0.450574   -0.034439
      5          6           0        0.759577    0.910126    0.013513
      6          1           0        1.468851    1.740545    0.047492
      7          1           0        1.958711   -0.939815   -0.005863
      8          1           0       -2.157857   -0.646201    0.045303
      9          1           0       -1.245235    1.888258    0.054067
 ---------------------------------------------------------------------

 SCF Done:  E(RAM1) =   1.70507148992     A.U. after   13 cycles

 Excitation energies and oscillator strengths:

 Excited State   1:      Singlet-A      5.8026 eV  213.67 nm  f=0.3256  <S**2>=0.000
      13 -> 14         0.68770
 This state for optimization and/or second-order correction.
 Total Energy, E(CIS) =   1.91831144809
 Copying the excited state density for this state as the 1-particle RhoCI density.

 Excited State   2:      Singlet-A      7.4364 eV  166.73 nm  f=0.0004  <S**2>=0.000
      12 -> 14         0.69957

 Excited State   3:      Singlet-A      7.5532 eV  164.15 nm  f=0.0086  <S**2>=0.000
      10 -> 15         0.10262
      11 -> 14         0.16776
      13 -> 15         0.63134
      13 -> 16         0.16458
      13 -> 17        -0.15622

 Excited State   4:      Singlet-A      7.7979 eV  159.00 nm  f=0.0044  <S**2>=0.000
      11 -> 14         0.67520
      13 -> 15        -0.18159

 Excited State   5:      Singlet-A      7.9874 eV  155.23 nm  f=0.0019  <S**2>=0.000
      13 -> 15        -0.12434
      13 -> 16         0.64844
      13 -> 19         0.15653

 Excited State   6:      Singlet-A      9.3759 eV  132.24 nm  f=0.0011  <S**2>=0.000
      10 -> 15        -0.11297
      13 -> 17        -0.27457
      13 -> 18         0.55955
      13 -> 22        -0.27769

 Excited State   7:      Singlet-A      9.4163 eV  131.67 nm  f=0.1000  <S**2>=0.000
      10 -> 14         0.68901

 Excited State   8:      Singlet-A      9.6549 eV  128.42 nm  f=0.0079  <S**2>=0.000
      10 -> 16        -0.14216
      13 -> 15         0.10145
      13 -> 17         0.59690
      13 -> 18         0.28612

 Excited State   9:      Singlet-A     10.0166 eV  123.78 nm  f=0.1117  <S**2>=0.000
      11 -> 15         0.37257
      11 -> 16         0.24490
      11 -> 17        -0.27747
      12 -> 15        -0.11482
      12 -> 16         0.16294
      12 -> 18        -0.29227
      13 -> 14         0.13530

 Excited State  10:      Singlet-A     10.3054 eV  120.31 nm  f=0.0004  <S**2>=0.000
      10 -> 15         0.11997
      10 -> 16         0.13528
      13 -> 17        -0.10295
      13 -> 18         0.13212
      13 -> 19         0.63006
      13 -> 22         0.12478

 Excited State  11:      Singlet-A     10.5444 eV  117.58 nm  f=0.0657  <S**2>=0.000
      11 -> 15         0.31921
      11 -> 16        -0.13978
      11 -> 19        -0.11400
      12 -> 15         0.55923
      12 -> 17        -0.14964

 Excited State  12:      Singlet-A     10.8331 eV  114.45 nm  f=0.1681  <S**2>=0.000
      11 -> 15        -0.11145
      11 -> 16        -0.31882
      11 -> 19        -0.10381
      12 -> 16         0.56294
      12 -> 19         0.14299

 Excited State  13:      Singlet-A     10.9997 eV  112.72 nm  f=0.0436  <S**2>=0.000
      13 -> 18         0.21154
      13 -> 19        -0.14201
      13 -> 20        -0.42589
      13 -> 22         0.46811

 Excited State  14:      Singlet-A     11.0473 eV  112.23 nm  f=0.0495  <S**2>=0.000
       8 -> 15        -0.10601
       8 -> 16         0.11081
       9 -> 15        -0.13025
      10 -> 15         0.13271
      11 -> 15         0.19351
      11 -> 16        -0.17090
      11 -> 18        -0.21143
      11 -> 19        -0.19828
      12 -> 15        -0.21559
      12 -> 16        -0.12968
      12 -> 17        -0.15584
      12 -> 18         0.11166
      12 -> 20         0.12823
      13 -> 20         0.26751
      13 -> 21        -0.11060
      13 -> 22         0.16845

 Excited State  15:      Singlet-A     11.0517 eV  112.19 nm  f=0.0547  <S**2>=0.000
      10 -> 15         0.10624
      10 -> 16        -0.12837
      11 -> 18         0.14686
      11 -> 19         0.13246
      12 -> 15         0.11187
      12 -> 17         0.12458
      13 -> 18         0.14316
      13 -> 20         0.43019
      13 -> 21         0.10813
      13 -> 22         0.32209

 The electronic state is 1-A.
 Alpha  occ. eigenvalues --   -1.90043  -1.17999  -0.92072  -0.81345  -0.79249
 Alpha  occ. eigenvalues --   -0.70451  -0.66962  -0.57733  -0.55933  -0.46643
 Alpha  occ. eigenvalues --   -0.44123  -0.43303  -0.32365
 Alpha virt. eigenvalues --    0.10884   0.18858   0.21106   0.26606   0.28073
 Alpha virt. eigenvalues --    0.30153   0.31826   0.33384   0.35064   0.41663
 Alpha virt. eigenvalues --    0.45900

 Mulliken charges:
               1
     1  C   -0.157784
     2  C   -2.053083
     3  O    3.314793
     4  C   -2.052211
     5  C   -0.142305
     6  H    0.211067
     7  H    0.326896
     8  H    0.340192
     9  H    0.212436
 Sum of Mulliken charges =   0.00000

 Dipole moment (field-independent basis, Debye):
    X=             -1.2774    Y=            -10.0975    Z=              1.3266  Tot=             10.2640
 N-N= 1.036344045229D+02 E-N=-1.688001706683D+02  KE=-1.549409077430D+01
 Orbital energies and kinetic energies (alpha):
                                 1                 2
   1         O                -1.900426         -1.356582
   2         O                -1.179993         -1.053050
   3         O                -0.920721         -0.886845
   4         O                -0.813449         -0.572065
   5         O                -0.792486         -0.693204
   6         O                -0.704515         -0.603115
   7         O                -0.669615         -0.539577

 Normal termination of Gaussian 09 at Tue Dec 15 17:09:37 2015.
