 Gaussian 09, Revision D.01,
 Gaussian 09:  ES64L-G09RevD.01 24-Apr-2013

 ------------------------------------------------------------
 #P AM1(Input,print) CIS(Singlets,NStates=15) pop(full) force
 ------------------------------------------------------------

 -----------------
 AM1-Reparam Input
 -----------------
 Symbolic Z-matrix:
 Charge =  0 Multiplicity = 1

                         Standard orientation:
 ---------------------------------------------------------------------
 Center     Atomic      Atomic             Coordinates (Angstroms)
 Number     Number       Type             X           Y           Z
 ---------------------------------------------------------------------
      1          6           0        0.997475    0.685063   -0.014824
      2          6           0        0.940449   -0.633211   -0.000099
      3          8           0       -0.343307   -1.080257   -0.024714
      4          6           0       -1.184418   -0.037306    0.038479
      5          6           0       -0.389944    1.104132    0.005761
      6          1           0       -0.719698    2.168621   -0.062461
      7          1           0       -2.209550   -0.159561   -0.029901
      8          1           0        1.684739   -1.406406    0.074416
      9          1           0        1.809589    1.327340    0.039754
 ---------------------------------------------------------------------

 SCF Done:  E(RAM1) =   1.38588618497     A.U. after   13 cycles

 Excitation energies and oscillator strengths:

 Excited State   1:      Singlet-A      5.8214 eV  212.98 nm  f=0.3041  <S**2>=0.000
      13 -> 14         0.68537
 This state for optimization and/or second-order correction.
 Total Energy, E(CIS) =   1.59981915282
 Copying the excited state density for this state as the 1-particle RhoCI density.

 Excited State   2:      Singlet-A      6.2749 eV  197.59 nm  f=0.0154  <S**2>=0.000
      13 -> 14         0.10515
      13 -> 15         0.65963
      13 -> 17         0.15279

 Excited State   3:      Singlet-A      6.6853 eV  185.46 nm  f=0.0014  <S**2>=0.000
      13 -> 16         0.64028
      13 -> 17         0.11082
      13 -> 18        -0.13473
      13 -> 21        -0.14410
      13 -> 22        -0.12611

 Excited State   4:      Singlet-A      7.2028 eV  172.13 nm  f=0.0003  <S**2>=0.000
      11 -> 14        -0.41643
      12 -> 14         0.55014

 Excited State   5:      Singlet-A      7.6021 eV  163.09 nm  f=0.0060  <S**2>=0.000
      13 -> 15        -0.14156
      13 -> 17         0.57191
      13 -> 18         0.16910
      13 -> 20        -0.13995
      13 -> 22         0.28574

 Excited State   6:      Singlet-A      7.9583 eV  155.79 nm  f=0.0016  <S**2>=0.000
      13 -> 16         0.16921
      13 -> 17        -0.33756
      13 -> 18         0.31207
      13 -> 20        -0.22702
      13 -> 22         0.39581

 Excited State   7:      Singlet-A      8.4253 eV  147.16 nm  f=0.0203  <S**2>=0.000
      10 -> 14         0.48176
      11 -> 14        -0.35073
      12 -> 14        -0.23434
      13 -> 18        -0.12784
      13 -> 19        -0.22792

 Excited State   8:      Singlet-A      8.4418 eV  146.87 nm  f=0.0154  <S**2>=0.000
      10 -> 14         0.49210
      11 -> 14         0.30905
      12 -> 14         0.27643
      13 -> 19         0.23557

 Excited State   9:      Singlet-A      8.6056 eV  144.07 nm  f=0.0130  <S**2>=0.000
      13 -> 18         0.53536
      13 -> 19        -0.13610
      13 -> 20         0.17125
      13 -> 21        -0.22782
      13 -> 22        -0.28758

 Excited State  10:      Singlet-A      8.7861 eV  141.11 nm  f=0.0007  <S**2>=0.000
      13 -> 16         0.12382
      13 -> 18         0.14189
      13 -> 20         0.21178
      13 -> 21         0.61530
      13 -> 22        -0.10108

 Excited State  11:      Singlet-A      9.1164 eV  136.00 nm  f=0.0727  <S**2>=0.000
      11 -> 16        -0.16897
      12 -> 16        -0.14630
      13 -> 19         0.21483
      13 -> 20         0.50500
      13 -> 21        -0.14677
      13 -> 22         0.31089

 Excited State  12:      Singlet-A      9.2920 eV  133.43 nm  f=0.0556  <S**2>=0.000
      11 -> 14        -0.13679
      11 -> 15         0.34564
      11 -> 16         0.17920
      12 -> 14        -0.11078
      12 -> 15         0.32827
      13 -> 16         0.14601
      13 -> 19         0.32668
      13 -> 21         0.11154

 Excited State  13:      Singlet-A      9.4246 eV  131.55 nm  f=0.1587  <S**2>=0.000
      11 -> 14        -0.23087
      11 -> 15        -0.20612
      12 -> 14        -0.17679
      12 -> 15        -0.28016
      13 -> 18         0.11006
      13 -> 19         0.42448
      13 -> 20        -0.18933
      13 -> 22        -0.14871

 Excited State  14:      Singlet-A      9.6270 eV  128.79 nm  f=0.1119  <S**2>=0.000
       8 -> 15         0.20700
      10 -> 17         0.10907
      11 -> 15        -0.31115
      12 -> 15         0.37779
      12 -> 16        -0.31784
      13 -> 20        -0.10371

 Excited State  15:      Singlet-A      9.7904 eV  126.64 nm  f=0.0167  <S**2>=0.000
       7 -> 15         0.10349
      11 -> 15        -0.30703
      11 -> 16         0.46622
      12 -> 16         0.26016
      13 -> 15         0.12371
      13 -> 20         0.17256
      13 -> 23         0.10422

 The electronic state is 1-A.
 Alpha  occ. eigenvalues --   -1.90126  -1.18662  -0.96876  -0.79324  -0.77621
 Alpha  occ. eigenvalues --   -0.67853  -0.62489  -0.51227  -0.48132  -0.41502
 Alpha  occ. eigenvalues --   -0.37841  -0.37651  -0.24952
 Alpha virt. eigenvalues --    0.16649   0.21214   0.23095   0.28509   0.30283
 Alpha virt. eigenvalues --    0.30885   0.32643   0.33551   0.34444   0.40800
 Alpha virt. eigenvalues --    0.46858

 Mulliken charges:
               1
     1  C   -0.034068
     2  C   -1.547419
     3  O    2.802093
     4  C   -1.584700
     5  C   -0.107932
     6  H    0.067951
     7  H    0.179732
     8  H    0.157181
     9  H    0.067162
 Sum of Mulliken charges =   0.00000

 Dipole moment (field-independent basis, Debye):
    X=             -2.4213    Y=             -8.8387    Z=             -0.5233  Tot=              9.1792
 N-N= 1.038215724583D+02 E-N=-1.702920345868D+02  KE=-1.589418034841D+01
 Orbital energies and kinetic energies (alpha):
                                 1                 2
   1         O                -1.901262         -1.397382
   2         O                -1.186621         -1.067221
   3         O                -0.968764         -0.877640
   4         O                -0.793243         -0.641877
   5         O                -0.776211         -0.705374
   6         O                -0.678525         -0.620469
   7         O                -0.624887         -0.543586

 Normal termination of Gaussian 09 at Tue Dec 15 17:08:08 2015.
