 Gaussian 09, Revision D.01,
 Gaussian 09:  ES64L-G09RevD.01 24-Apr-2013

 ------------------------------------------------------------
 #P AM1(Input,print) CIS(Singlets,NStates=15) pop(full) force
 ------------------------------------------------------------

 -----------------
 AM1-Reparam Input
 -----------------
 Symbolic Z-matrix:
 Charge =  0 Multiplicity = 1

                         Standard orientation:
 ---------------------------------------------------------------------
 Center     Atomic      Atomic             Coordinates (Angstroms)
 Number     Number       Type             X           Y           Z
 ---------------------------------------------------------------------
      1          6           0       -0.997617    0.663434    0.002578
      2          6           0       -0.876975   -0.703491   -0.019168
      3          8           0        0.403608   -1.045229    0.013682
      4          6           0        1.141382    0.032805   -0.004873
      5          6           0        0.313001    1.104345   -0.014920
      6          1           0        0.565638    2.173084    0.016866
      7          1           0        2.267236   -0.017053    0.024764
      8          1           0       -1.574377   -1.494734   -0.004473
      9          1           0       -1.966114    1.117970    0.071685
 ---------------------------------------------------------------------

 SCF Done:  E(RAM1) =   1.83666616417     A.U. after   14 cycles

 Excitation energies and oscillator strengths:

 Excited State   1:      Singlet-A      5.8753 eV  211.03 nm  f=0.3005  <S**2>=0.000
      11 -> 17        -0.11257
      13 -> 14         0.68395
 This state for optimization and/or second-order correction.
 Total Energy, E(CIS) =   2.05257908478
 Copying the excited state density for this state as the 1-particle RhoCI density.

 Excited State   2:      Singlet-A      6.7268 eV  184.31 nm  f=0.0061  <S**2>=0.000
      12 -> 14         0.16496
      13 -> 15         0.53614
      13 -> 16         0.35034
      13 -> 17        -0.19641

 Excited State   3:      Singlet-A      6.8111 eV  182.03 nm  f=0.0002  <S**2>=0.000
      12 -> 14         0.67846
      13 -> 15        -0.15819

 Excited State   4:      Singlet-A      6.9044 eV  179.57 nm  f=0.0002  <S**2>=0.000
      10 -> 15         0.10022
      13 -> 15        -0.35777
      13 -> 16         0.55402
      13 -> 19         0.15887

 Excited State   5:      Singlet-A      7.7250 eV  160.50 nm  f=0.0058  <S**2>=0.000
      10 -> 14        -0.10870
      11 -> 14         0.68815

 Excited State   6:      Singlet-A      8.3269 eV  148.90 nm  f=0.0042  <S**2>=0.000
      10 -> 16         0.14167
      13 -> 16         0.13558
      13 -> 17         0.54833
      13 -> 18         0.33170
      13 -> 21        -0.18969

 Excited State   7:      Singlet-A      8.5416 eV  145.15 nm  f=0.0104  <S**2>=0.000
      10 -> 15         0.12732
      13 -> 15        -0.11832
      13 -> 17        -0.35888
      13 -> 18         0.52297
      13 -> 21        -0.23191

 Excited State   8:      Singlet-A      8.9546 eV  138.46 nm  f=0.0064  <S**2>=0.000
       8 -> 15         0.11517
      10 -> 14        -0.29051
      11 -> 15        -0.19076
      11 -> 16        -0.16286
      11 -> 17         0.19938
      12 -> 15        -0.19159
      12 -> 16         0.29079
      12 -> 17        -0.17995
      12 -> 18        -0.26111
      12 -> 21         0.10474
      13 -> 14         0.10819

 Excited State   9:      Singlet-A      9.0156 eV  137.52 nm  f=0.0671  <S**2>=0.000
       8 -> 16         0.11578
      10 -> 14         0.53638
      11 -> 15        -0.13095
      11 -> 17         0.12988
      11 -> 18        -0.12463
      12 -> 15         0.18478
      12 -> 16         0.25461

 Excited State  10:      Singlet-A      9.1667 eV  135.26 nm  f=0.0006  <S**2>=0.000
      13 -> 18         0.11054
      13 -> 19         0.66436

 Excited State  11:      Singlet-A      9.2481 eV  134.06 nm  f=0.1111  <S**2>=0.000
       9 -> 15        -0.12156
      10 -> 14        -0.23163
      11 -> 15        -0.14521
      12 -> 15         0.58453
      12 -> 17        -0.17307
      12 -> 19        -0.12796

 Excited State  12:      Singlet-A      9.6171 eV  128.92 nm  f=0.1104  <S**2>=0.000
       9 -> 16        -0.11933
      11 -> 16         0.52925
      11 -> 17        -0.12545
      11 -> 19         0.12541
      12 -> 16         0.35107
      12 -> 17        -0.11643

 Excited State  13:      Singlet-A      9.7809 eV  126.76 nm  f=0.1056  <S**2>=0.000
       8 -> 16         0.16458
       9 -> 15         0.12405
      10 -> 14        -0.20198
      11 -> 15         0.14873
      11 -> 16        -0.15762
      11 -> 19        -0.18382
      12 -> 16         0.28747
      12 -> 17         0.23162
      12 -> 18         0.28938
      12 -> 19         0.14512
      12 -> 20         0.11974

 Excited State  14:      Singlet-A      9.8430 eV  125.96 nm  f=0.0183  <S**2>=0.000
      10 -> 15        -0.28842
      10 -> 16        -0.16499
      12 -> 16         0.10629
      13 -> 18         0.27150
      13 -> 19        -0.10833
      13 -> 20         0.11254
      13 -> 21         0.47167

 Excited State  15:      Singlet-A      9.9790 eV  124.24 nm  f=0.0422  <S**2>=0.000
      10 -> 15         0.47164
      11 -> 15         0.11707
      13 -> 20         0.40181
      13 -> 21         0.23945

 The electronic state is 1-A.
 Alpha  occ. eigenvalues --   -1.96688  -1.23189  -0.99056  -0.81886  -0.80110
 Alpha  occ. eigenvalues --   -0.70913  -0.66744  -0.53155  -0.49461  -0.42761
 Alpha  occ. eigenvalues --   -0.41237  -0.38584  -0.29469
 Alpha virt. eigenvalues --    0.13746   0.18121   0.19389   0.25517   0.27599
 Alpha virt. eigenvalues --    0.29740   0.31678   0.34602   0.39332   0.47570
 Alpha virt. eigenvalues --    0.53047

 Mulliken charges:
               1
     1  C   -0.084409
     2  C   -1.963844
     3  O    3.145595
     4  C   -1.965500
     5  C   -0.089125
     6  H    0.155479
     7  H    0.331796
     8  H    0.310331
     9  H    0.159677
 Sum of Mulliken charges =   0.00000

 Dipole moment (field-independent basis, Debye):
    X=              3.5293    Y=             -8.7099    Z=              0.4930  Tot=              9.4107
 N-N= 1.050476304594D+02 E-N=-1.712192563559D+02  KE=-1.573759615492D+01
 Orbital energies and kinetic energies (alpha):
                                 1                 2
   1         O                -1.966884         -1.464294
   2         O                -1.231894         -1.088832
   3         O                -0.990562         -0.908749
   4         O                -0.818857         -0.616034
   5         O                -0.801101         -0.694586
   6         O                -0.709134         -0.586206
   7         O                -0.667438         -0.582019

 Normal termination of Gaussian 09 at Tue Dec 15 17:09:57 2015.
