 Gaussian 09, Revision D.01,
 Gaussian 09:  ES64L-G09RevD.01 24-Apr-2013

 ------------------------------------------------------------
 #P AM1(Input,print) CIS(Singlets,NStates=15) pop(full) force
 ------------------------------------------------------------

 -----------------
 AM1-Reparam Input
 -----------------
 Symbolic Z-matrix:
 Charge =  0 Multiplicity = 1

                         Standard orientation:
 ---------------------------------------------------------------------
 Center     Atomic      Atomic             Coordinates (Angstroms)
 Number     Number       Type             X           Y           Z
 ---------------------------------------------------------------------
      1          6           0        0.136899    1.145612    0.021080
      2          6           0       -1.020423    0.469537   -0.029252
      3          8           0       -0.771031   -0.829433    0.032619
      4          6           0        0.514860   -0.998840   -0.016891
      5          6           0        1.165948    0.247622   -0.024180
      6          1           0        2.287033    0.389486    0.061056
      7          1           0        0.891306   -1.977307   -0.014250
      8          1           0       -2.083258    0.774374   -0.043303
      9          1           0        0.289466    2.265327    0.031001
 ---------------------------------------------------------------------

 SCF Done:  E(RAM1) =   1.36214521540     A.U. after   13 cycles

 Excitation energies and oscillator strengths:

 Excited State   1:      Singlet-A      6.4165 eV  193.23 nm  f=0.3010  <S**2>=0.000
      13 -> 14         0.68795
 This state for optimization and/or second-order correction.
 Total Energy, E(CIS) =   1.59794576898
 Copying the excited state density for this state as the 1-particle RhoCI density.

 Excited State   2:      Singlet-A      6.6419 eV  186.67 nm  f=0.0064  <S**2>=0.000
      12 -> 16        -0.12409
      13 -> 15         0.63164
      13 -> 16         0.11618
      13 -> 17        -0.21521

 Excited State   3:      Singlet-A      6.9710 eV  177.86 nm  f=0.0019  <S**2>=0.000
      12 -> 15        -0.19362
      13 -> 15        -0.13761
      13 -> 16         0.62375
      13 -> 17        -0.11054
      13 -> 20        -0.10372

 Excited State   4:      Singlet-A      7.6367 eV  162.35 nm  f=0.0020  <S**2>=0.000
      11 -> 14         0.65564
      12 -> 14         0.20589

 Excited State   5:      Singlet-A      7.9051 eV  156.84 nm  f=0.0065  <S**2>=0.000
      10 -> 14        -0.14379
      12 -> 16        -0.16119
      13 -> 15         0.16788
      13 -> 16         0.11716
      13 -> 17         0.62817

 Excited State   6:      Singlet-A      8.3373 eV  148.71 nm  f=0.0007  <S**2>=0.000
      12 -> 15         0.17459
      13 -> 18         0.54573
      13 -> 22        -0.39012

 Excited State   7:      Singlet-A      8.3473 eV  148.53 nm  f=0.0012  <S**2>=0.000
      10 -> 14         0.67156
      13 -> 17         0.13943

 Excited State   8:      Singlet-A      8.6229 eV  143.79 nm  f=0.0697  <S**2>=0.000
      11 -> 14        -0.20486
      12 -> 14         0.63779
      13 -> 20         0.10231
      13 -> 21         0.10945

 Excited State   9:      Singlet-A      8.8587 eV  139.96 nm  f=0.0007  <S**2>=0.000
      12 -> 15         0.43491
      12 -> 16         0.18124
      13 -> 16         0.11073
      13 -> 18        -0.31180
      13 -> 19        -0.13115
      13 -> 20        -0.18014
      13 -> 21         0.11877
      13 -> 22        -0.25695

 Excited State  10:      Singlet-A      9.0806 eV  136.54 nm  f=0.0128  <S**2>=0.000
      12 -> 16        -0.19673
      13 -> 18        -0.28426
      13 -> 19         0.37066
      13 -> 20         0.29700
      13 -> 21        -0.16769
      13 -> 22        -0.32155

 Excited State  11:      Singlet-A      9.2308 eV  134.32 nm  f=0.0054  <S**2>=0.000
      12 -> 15         0.23951
      12 -> 16         0.25311
      12 -> 17        -0.10363
      12 -> 19        -0.10768
      13 -> 16         0.23361
      13 -> 20         0.35685
      13 -> 21        -0.25949
      13 -> 22         0.29020

 Excited State  12:      Singlet-A      9.2998 eV  133.32 nm  f=0.0457  <S**2>=0.000
      12 -> 15        -0.32461
      12 -> 16         0.34741
      13 -> 19        -0.32005
      13 -> 20         0.15824
      13 -> 21        -0.16860
      13 -> 22        -0.25574

 Excited State  13:      Singlet-A      9.6348 eV  128.68 nm  f=0.0426  <S**2>=0.000
       8 -> 15        -0.16510
       9 -> 16         0.11773
      10 -> 15        -0.26280
      10 -> 17         0.30918
      10 -> 18         0.11135
      11 -> 16         0.28849
      11 -> 17        -0.24449
      11 -> 18         0.22914

 Excited State  14:      Singlet-A      9.6465 eV  128.53 nm  f=0.0486  <S**2>=0.000
      12 -> 15        -0.13353
      12 -> 16         0.37853
      13 -> 15         0.16929
      13 -> 19         0.44713
      13 -> 20        -0.14503
      13 -> 21         0.21530

 Excited State  15:      Singlet-A      9.9215 eV  124.96 nm  f=0.1367  <S**2>=0.000
       8 -> 16        -0.12071
      10 -> 18         0.10757
      11 -> 15         0.58516
      11 -> 16        -0.10576
      11 -> 18        -0.13355
      11 -> 19        -0.14539
      13 -> 21         0.10000

 The electronic state is 1-A.
 Alpha  occ. eigenvalues --   -1.92342  -1.20450  -0.96351  -0.79152  -0.77770
 Alpha  occ. eigenvalues --   -0.67436  -0.64036  -0.50482  -0.48094  -0.40380
 Alpha  occ. eigenvalues --   -0.38722  -0.37059  -0.26986
 Alpha virt. eigenvalues --    0.17663   0.20855   0.22191   0.27021   0.29032
 Alpha virt. eigenvalues --    0.31905   0.33119   0.33563   0.35672   0.42881
 Alpha virt. eigenvalues --    0.48899

 Mulliken charges:
               1
     1  C   -0.019285
     2  C   -1.582776
     3  O    2.810974
     4  C   -1.618405
     5  C   -0.062317
     6  H    0.066313
     7  H    0.176566
     8  H    0.168766
     9  H    0.060163
 Sum of Mulliken charges =   0.00000

 Dipole moment (field-independent basis, Debye):
    X=             -6.0736    Y=             -6.3915    Z=              0.6862  Tot=              8.8437
 N-N= 1.044041662320D+02 E-N=-1.713437295647D+02  KE=-1.595509796091D+01
 Orbital energies and kinetic energies (alpha):
                                 1                 2
   1         O                -1.923423         -1.435973
   2         O                -1.204499         -1.079772
   3         O                -0.963509         -0.862410
   4         O                -0.791519         -0.636600
   5         O                -0.777704         -0.702107
   6         O                -0.674356         -0.626012
   7         O                -0.640359         -0.556237

 Normal termination of Gaussian 09 at Tue Dec 15 17:08:09 2015.
