 Gaussian 09, Revision D.01,
 Gaussian 09:  ES64L-G09RevD.01 24-Apr-2013

 ------------------------------------------------------------
 #P AM1(Input,print) CIS(Singlets,NStates=15) pop(full) force
 ------------------------------------------------------------

 -----------------
 AM1-Reparam Input
 -----------------
 Symbolic Z-matrix:
 Charge =  0 Multiplicity = 1

                         Standard orientation:
 ---------------------------------------------------------------------
 Center     Atomic      Atomic             Coordinates (Angstroms)
 Number     Number       Type             X           Y           Z
 ---------------------------------------------------------------------
      1          6           0       -0.680242    0.948863   -0.013063
      2          6           0       -1.083726   -0.310280    0.007307
      3          8           0       -0.016349   -1.107750    0.006145
      4          6           0        1.040856   -0.382702    0.006055
      5          6           0        0.727086    0.908568   -0.010395
      6          1           0        1.462002    1.801478    0.044368
      7          1           0        2.026513   -0.922641   -0.039495
      8          1           0       -2.094448   -0.811625   -0.032368
      9          1           0       -1.287123    1.808097    0.038915
 ---------------------------------------------------------------------

 SCF Done:  E(RAM1) =   2.14840128897     A.U. after   13 cycles

 Excitation energies and oscillator strengths:

 Excited State   1:      Singlet-A      5.5893 eV  221.82 nm  f=0.3442  <S**2>=0.000
      13 -> 14         0.69439
 This state for optimization and/or second-order correction.
 Total Energy, E(CIS) =   2.35380613014
 Copying the excited state density for this state as the 1-particle RhoCI density.

 Excited State   2:      Singlet-A      6.2541 eV  198.25 nm  f=0.0013  <S**2>=0.000
      10 -> 15         0.11213
      13 -> 15         0.67501
      13 -> 17        -0.10629

 Excited State   3:      Singlet-A      6.5680 eV  188.77 nm  f=0.0008  <S**2>=0.000
      10 -> 16        -0.11956
      13 -> 16         0.67120
      13 -> 17        -0.10620
      13 -> 19         0.11479

 Excited State   4:      Singlet-A      7.2505 eV  171.00 nm  f=0.0004  <S**2>=0.000
      12 -> 14         0.69752

 Excited State   5:      Singlet-A      8.0278 eV  154.44 nm  f=0.0094  <S**2>=0.000
      10 -> 14         0.11672
      11 -> 14         0.59776
      13 -> 17         0.33203

 Excited State   6:      Singlet-A      8.1387 eV  152.34 nm  f=0.0004  <S**2>=0.000
      11 -> 14         0.22227
      13 -> 17        -0.27828
      13 -> 18         0.48257
      13 -> 19         0.11332
      13 -> 20        -0.16221
      13 -> 21         0.29003

 Excited State   7:      Singlet-A      8.2977 eV  149.42 nm  f=0.0035  <S**2>=0.000
      11 -> 14        -0.26105
      13 -> 15         0.10707
      13 -> 17         0.52310
      13 -> 18         0.31844
      13 -> 21         0.12208

 Excited State   8:      Singlet-A      9.1329 eV  135.76 nm  f=0.0520  <S**2>=0.000
      10 -> 14         0.60308
      11 -> 14        -0.11707
      12 -> 15        -0.15860
      12 -> 16        -0.11488
      13 -> 19        -0.19236

 Excited State   9:      Singlet-A      9.1424 eV  135.61 nm  f=0.0094  <S**2>=0.000
      10 -> 14         0.19398
      13 -> 18        -0.23571
      13 -> 19         0.60444

 Excited State  10:      Singlet-A      9.4424 eV  131.31 nm  f=0.0779  <S**2>=0.000
       8 -> 15        -0.13305
      11 -> 17        -0.13440
      12 -> 15         0.54956
      12 -> 16        -0.26730
      12 -> 18        -0.18017

 Excited State  11:      Singlet-A      9.5736 eV  129.51 nm  f=0.0272  <S**2>=0.000
      13 -> 18        -0.28108
      13 -> 19        -0.20199
      13 -> 20        -0.40644
      13 -> 21         0.42841

 Excited State  12:      Singlet-A      9.7792 eV  126.78 nm  f=0.0368  <S**2>=0.000
       9 -> 15         0.14692
      10 -> 14        -0.16523
      11 -> 15         0.36773
      11 -> 17        -0.19598
      12 -> 15        -0.26000
      12 -> 16        -0.31301
      12 -> 17         0.17328
      12 -> 18        -0.14412

 Excited State  13:      Singlet-A      9.9218 eV  124.96 nm  f=0.1670  <S**2>=0.000
      10 -> 14         0.10376
      10 -> 15        -0.14294
      11 -> 15         0.19254
      11 -> 16         0.33310
      11 -> 17        -0.19854
      12 -> 16         0.43705
      12 -> 18        -0.17178

 Excited State  14:      Singlet-A      9.9688 eV  124.37 nm  f=0.0718  <S**2>=0.000
      10 -> 15         0.39893
      13 -> 20         0.40771
      13 -> 21         0.32401

 Excited State  15:      Singlet-A     10.0956 eV  122.81 nm  f=0.0378  <S**2>=0.000
      10 -> 15         0.47189
      10 -> 16         0.16330
      13 -> 15        -0.11069
      13 -> 20        -0.32533
      13 -> 21        -0.29886

 The electronic state is 1-A.
 Alpha  occ. eigenvalues --   -1.97403  -1.21397  -0.94424  -0.81990  -0.77862
 Alpha  occ. eigenvalues --   -0.69007  -0.68792  -0.55765  -0.53475  -0.45479
 Alpha  occ. eigenvalues --   -0.44356  -0.41802  -0.29781
 Alpha virt. eigenvalues --    0.11769   0.15693   0.17148   0.24710   0.26844
 Alpha virt. eigenvalues --    0.29505   0.30505   0.32372   0.35360   0.43142
 Alpha virt. eigenvalues --    0.48110

 Mulliken charges:
               1
     1  C   -0.126389
     2  C   -1.886674
     3  O    3.207607
     4  C   -1.900979
     5  C   -0.183616
     6  H    0.166369
     7  H    0.287460
     8  H    0.277742
     9  H    0.158480
 Sum of Mulliken charges =   0.00000

 Dipole moment (field-independent basis, Debye):
    X=              0.1021    Y=            -10.0724    Z=             -0.0779  Tot=             10.0732
 N-N= 1.052774520511D+02 E-N=-1.712206377671D+02  KE=-1.540686188251D+01
 Orbital energies and kinetic energies (alpha):
                                 1                 2
   1         O                -1.974027         -1.428962
   2         O                -1.213968         -1.054947
   3         O                -0.944238         -0.879483
   4         O                -0.819900         -0.563274
   5         O                -0.778616         -0.683606
   6         O                -0.690069         -0.578508
   7         O                -0.687920         -0.547829

 Normal termination of Gaussian 09 at Tue Dec 15 17:08:34 2015.
