 Gaussian 09, Revision D.01,
 Gaussian 09:  ES64L-G09RevD.01 24-Apr-2013

 ------------------------------------------------------------
 #P AM1(Input,print) CIS(Singlets,NStates=15) pop(full) force
 ------------------------------------------------------------

 -----------------
 AM1-Reparam Input
 -----------------
 Symbolic Z-matrix:
 Charge =  0 Multiplicity = 1

                         Standard orientation:
 ---------------------------------------------------------------------
 Center     Atomic      Atomic             Coordinates (Angstroms)
 Number     Number       Type             X           Y           Z
 ---------------------------------------------------------------------
      1          6           0       -0.885270    0.787392    0.015701
      2          6           0       -1.065905   -0.472591   -0.015346
      3          8           0        0.213108   -1.146504    0.022311
      4          6           0        1.169657   -0.156108   -0.021829
      5          6           0        0.536669    1.068398   -0.009674
      6          1           0        1.077165    1.969415    0.057703
      7          1           0        2.133243   -0.528447   -0.004625
      8          1           0       -1.874166   -1.175156   -0.029939
      9          1           0       -1.572016    1.543671   -0.014736
 ---------------------------------------------------------------------

 SCF Done:  E(RAM1) =  -4.39340199541     A.U. after   13 cycles

 Excitation energies and oscillator strengths:

 Excited State   1:      Singlet-A      6.5028 eV  190.66 nm  f=0.3399  <S**2>=0.000
      13 -> 14         0.69188
 This state for optimization and/or second-order correction.
 Total Energy, E(CIS) =  -4.15442793369
 Copying the excited state density for this state as the 1-particle RhoCI density.

 Excited State   2:      Singlet-A      7.8685 eV  157.57 nm  f=0.0001  <S**2>=0.000
      12 -> 14         0.68366

 Excited State   3:      Singlet-A      7.9881 eV  155.21 nm  f=0.0081  <S**2>=0.000
      12 -> 14         0.13465
      13 -> 15         0.53360
      13 -> 16        -0.37384
      13 -> 17        -0.10700
      13 -> 18         0.19244

 Excited State   4:      Singlet-A      8.4221 eV  147.21 nm  f=0.0582  <S**2>=0.000
      10 -> 14         0.12249
      13 -> 15         0.37589
      13 -> 16         0.38316
      13 -> 17         0.40375
      13 -> 21         0.13496

 Excited State   5:      Singlet-A      8.5207 eV  145.51 nm  f=0.0463  <S**2>=0.000
      10 -> 14        -0.11475
      13 -> 15        -0.16395
      13 -> 16        -0.40725
      13 -> 17         0.50857
      13 -> 21         0.14464

 Excited State   6:      Singlet-A      8.9867 eV  137.96 nm  f=0.0043  <S**2>=0.000
      11 -> 14         0.69513

 Excited State   7:      Singlet-A      9.9873 eV  124.14 nm  f=0.0236  <S**2>=0.000
      10 -> 17        -0.12267
      13 -> 15        -0.12294
      13 -> 16         0.13580
      13 -> 18         0.66117

 Excited State   8:      Singlet-A     10.2995 eV  120.38 nm  f=0.0034  <S**2>=0.000
      13 -> 17        -0.16761
      13 -> 19         0.29975
      13 -> 20        -0.27641
      13 -> 21         0.45460
      13 -> 22         0.19081
      13 -> 23        -0.19466

 Excited State   9:      Singlet-A     10.5754 eV  117.24 nm  f=0.1511  <S**2>=0.000
      10 -> 14         0.61596
      12 -> 15        -0.10790
      12 -> 17        -0.15174
      12 -> 18         0.10413
      13 -> 15        -0.10529
      13 -> 16        -0.11207
      13 -> 19        -0.10554

 Excited State  10:      Singlet-A     10.6602 eV  116.31 nm  f=0.0045  <S**2>=0.000
      13 -> 19         0.59444
      13 -> 21        -0.24706
      13 -> 22        -0.22345

 Excited State  11:      Singlet-A     11.1251 eV  111.45 nm  f=0.0004  <S**2>=0.000
      13 -> 20         0.62362
      13 -> 21         0.29475

 Excited State  12:      Singlet-A     11.3277 eV  109.45 nm  f=0.1271  <S**2>=0.000
       8 -> 15        -0.10047
      10 -> 14         0.19409
      10 -> 15        -0.12906
      12 -> 15         0.47387
      12 -> 16         0.14857
      12 -> 17         0.34795
      12 -> 21         0.11903

 Excited State  13:      Singlet-A     11.4159 eV  108.61 nm  f=0.0539  <S**2>=0.000
      10 -> 15        -0.10508
      12 -> 15        -0.38712
      12 -> 16        -0.26894
      12 -> 17         0.41295
      12 -> 21         0.14521

 Excited State  14:      Singlet-A     11.5740 eV  107.12 nm  f=0.0054  <S**2>=0.000
      12 -> 15        -0.24480
      12 -> 16         0.58635
      12 -> 18        -0.14420

 Excited State  15:      Singlet-A     11.6317 eV  106.59 nm  f=0.0023  <S**2>=0.000
      13 -> 20         0.11205
      13 -> 21        -0.26503
      13 -> 22         0.57653
      13 -> 23        -0.18881
      13 -> 24         0.14308

 The electronic state is 1-A.
 Alpha  occ. eigenvalues --   -2.98803  -1.12902  -0.89081  -0.85144  -0.81240
 Alpha  occ. eigenvalues --   -0.79534  -0.70229  -0.59047  -0.57773  -0.49615
 Alpha  occ. eigenvalues --   -0.48092  -0.44843  -0.32386
 Alpha virt. eigenvalues --    0.12960   0.20771   0.21298   0.22411   0.27877
 Alpha virt. eigenvalues --    0.32006   0.32535   0.34487   0.36684   0.37628
 Alpha virt. eigenvalues --    0.39673

 Mulliken charges:
               1
     1  C   -0.111214
     2  C   -1.386937
     3  O    2.664656
     4  C   -1.439804
     5  C   -0.265827
     6  H    0.123166
     7  H    0.158234
     8  H    0.143699
     9  H    0.114027
 Sum of Mulliken charges =   0.00000

 Dipole moment (field-independent basis, Debye):
    X=              1.5276    Y=            -10.2455    Z=              0.5104  Tot=             10.3713
 N-N= 1.020121720853D+02 E-N=-1.691299702723D+02  KE=-2.150738427071D+01
 Orbital energies and kinetic energies (alpha):
                                 1                 2
   1         O                -2.988026         -2.371021
   2         O                -1.129020         -1.101451
   3         O                -0.890809         -0.804015
   4         O                -0.851438         -0.879296
   5         O                -0.812404         -0.935702
   6         O                -0.795338         -0.779180
   7         O                -0.702290         -0.743431

 Normal termination of Gaussian 09 at Fri Dec 11 13:41:42 2015.
