 Gaussian 09, Revision D.01,
 Gaussian 09:  ES64L-G09RevD.01 24-Apr-2013

 ------------------------------------------------------------
 #P AM1(Input,print) CIS(Singlets,NStates=15) pop(full) force
 ------------------------------------------------------------

 -----------------
 AM1-Reparam Input
 -----------------
 Symbolic Z-matrix:
 Charge =  0 Multiplicity = 1

                         Standard orientation:
 ---------------------------------------------------------------------
 Center     Atomic      Atomic             Coordinates (Angstroms)
 Number     Number       Type             X           Y           Z
 ---------------------------------------------------------------------
      1          6           0       -0.885270    0.787392    0.015701
      2          6           0       -1.065905   -0.472591   -0.015346
      3          8           0        0.213108   -1.146504    0.022311
      4          6           0        1.169657   -0.156108   -0.021829
      5          6           0        0.536669    1.068398   -0.009674
      6          1           0        1.077165    1.969415    0.057703
      7          1           0        2.133243   -0.528447   -0.004625
      8          1           0       -1.874166   -1.175156   -0.029939
      9          1           0       -1.572016    1.543671   -0.014736
 ---------------------------------------------------------------------

 SCF Done:  E(RAM1) =  -4.52329387126     A.U. after   13 cycles

 Excitation energies and oscillator strengths:

 Excited State   1:      Singlet-A      6.3905 eV  194.01 nm  f=0.3875  <S**2>=0.000
      13 -> 14         0.69324
 This state for optimization and/or second-order correction.
 Total Energy, E(CIS) =  -4.28844581226
 Copying the excited state density for this state as the 1-particle RhoCI density.

 Excited State   2:      Singlet-A      7.1738 eV  172.83 nm  f=0.0011  <S**2>=0.000
      12 -> 14         0.68933

 Excited State   3:      Singlet-A      8.0496 eV  154.03 nm  f=0.0057  <S**2>=0.000
      11 -> 14         0.18076
      12 -> 14         0.11948
      13 -> 16         0.51762
      13 -> 17         0.17142
      13 -> 19        -0.23644
      13 -> 20        -0.27903

 Excited State   4:      Singlet-A      8.2178 eV  150.87 nm  f=0.0012  <S**2>=0.000
      11 -> 14         0.59060
      13 -> 15        -0.24764
      13 -> 16        -0.13708
      13 -> 17        -0.24711

 Excited State   5:      Singlet-A      8.3313 eV  148.82 nm  f=0.0320  <S**2>=0.000
      11 -> 14         0.32281
      13 -> 15         0.50017
      13 -> 17         0.32586

 Excited State   6:      Singlet-A      9.0899 eV  136.40 nm  f=0.0547  <S**2>=0.000
      13 -> 15        -0.39912
      13 -> 16        -0.12819
      13 -> 17         0.52214
      13 -> 19         0.15902

 Excited State   7:      Singlet-A      9.5066 eV  130.42 nm  f=0.0042  <S**2>=0.000
      10 -> 15        -0.11593
      13 -> 16         0.30908
      13 -> 17        -0.13724
      13 -> 18        -0.11086
      13 -> 19         0.55970
      13 -> 22        -0.18315

 Excited State   8:      Singlet-A      9.5711 eV  129.54 nm  f=0.0326  <S**2>=0.000
      10 -> 14         0.27641
      13 -> 18         0.62889

 Excited State   9:      Singlet-A      9.8032 eV  126.47 nm  f=0.0102  <S**2>=0.000
      13 -> 16         0.25836
      13 -> 19        -0.11078
      13 -> 20         0.61944
      13 -> 21        -0.11655

 Excited State  10:      Singlet-A     10.2334 eV  121.16 nm  f=0.0592  <S**2>=0.000
      10 -> 14         0.14294
      11 -> 17         0.14193
      12 -> 15        -0.19331
      12 -> 16         0.41786
      12 -> 19        -0.36144
      12 -> 20        -0.19461
      12 -> 22         0.16984

 Excited State  11:      Singlet-A     10.7707 eV  115.11 nm  f=0.1402  <S**2>=0.000
       9 -> 14        -0.23512
      10 -> 14         0.52664
      11 -> 16         0.12208
      11 -> 19        -0.10968
      12 -> 19         0.12684
      13 -> 18        -0.22180

 Excited State  12:      Singlet-A     10.8727 eV  114.03 nm  f=0.0256  <S**2>=0.000
       9 -> 14        -0.13585
      10 -> 14        -0.11472
      13 -> 20         0.10414
      13 -> 21         0.61233
      13 -> 22         0.18049
      13 -> 23         0.11953

 Excited State  13:      Singlet-A     11.0166 eV  112.54 nm  f=0.0181  <S**2>=0.000
       9 -> 14         0.51975
      11 -> 16         0.12917
      12 -> 15        -0.27171
      12 -> 17        -0.12597
      13 -> 21         0.21221
      13 -> 22        -0.11404

 Excited State  14:      Singlet-A     11.0614 eV  112.09 nm  f=0.0255  <S**2>=0.000
       9 -> 14         0.27779
      10 -> 14         0.13456
      11 -> 17        -0.11592
      11 -> 20         0.11426
      12 -> 15         0.34605
      12 -> 17         0.43974

 Excited State  15:      Singlet-A     11.2837 eV  109.88 nm  f=0.0024  <S**2>=0.000
       9 -> 14         0.18896
      13 -> 19         0.22941
      13 -> 21        -0.14295
      13 -> 22         0.61039

 The electronic state is 1-A.
 Alpha  occ. eigenvalues --   -3.05010  -1.25022  -0.99090  -0.95509  -0.93303
 Alpha  occ. eigenvalues --   -0.89305  -0.81978  -0.66585  -0.63130  -0.61071
 Alpha  occ. eigenvalues --   -0.55818  -0.52884  -0.42551
 Alpha virt. eigenvalues --    0.01693   0.11144   0.12076   0.14693   0.16980
 Alpha virt. eigenvalues --    0.18133   0.18879   0.21178   0.23876   0.26666
 Alpha virt. eigenvalues --    0.32120

 Mulliken charges:
               1
     1  C   -0.444381
     2  C   -1.838891
     3  O    2.999127
     4  C   -1.892841
     5  C   -0.616920
     6  H    0.444050
     7  H    0.461066
     8  H    0.458433
     9  H    0.430357
 Sum of Mulliken charges =   0.00000

 Dipole moment (field-independent basis, Debye):
    X=              1.6974    Y=            -11.1580    Z=              0.5992  Tot=             11.3022
 N-N= 1.045559028353D+02 E-N=-1.699509349374D+02  KE=-2.358236239153D+01
 Orbital energies and kinetic energies (alpha):
                                 1                 2
   1         O                -3.050101         -2.297562
   2         O                -1.250217         -1.224047
   3         O                -0.990903         -0.957028
   4         O                -0.955086         -0.955084
   5         O                -0.933028         -0.958557
   6         O                -0.893053         -0.902794
   7         O                -0.819781         -0.814145

 Normal termination of Gaussian 09 at Fri Dec 11 13:41:15 2015.
