 Gaussian 09, Revision D.01,
 Gaussian 09:  ES64L-G09RevD.01 24-Apr-2013

 ------------------------------------------------------------
 #P AM1(Input,print) CIS(Singlets,NStates=15) pop(full) force
 ------------------------------------------------------------

 -----------------
 AM1-Reparam Input
 -----------------
 Symbolic Z-matrix:
 Charge =  0 Multiplicity = 1

                         Standard orientation:
 ---------------------------------------------------------------------
 Center     Atomic      Atomic             Coordinates (Angstroms)
 Number     Number       Type             X           Y           Z
 ---------------------------------------------------------------------
      1          6           0       -0.885270    0.787392    0.015701
      2          6           0       -1.065905   -0.472591   -0.015346
      3          8           0        0.213108   -1.146504    0.022311
      4          6           0        1.169657   -0.156108   -0.021829
      5          6           0        0.536669    1.068398   -0.009674
      6          1           0        1.077165    1.969415    0.057703
      7          1           0        2.133243   -0.528447   -0.004625
      8          1           0       -1.874166   -1.175156   -0.029939
      9          1           0       -1.572016    1.543671   -0.014736
 ---------------------------------------------------------------------

 SCF Done:  E(RAM1) =  -2.80596415501     A.U. after   14 cycles

 Excitation energies and oscillator strengths:

 Excited State   1:      Singlet-A      5.6321 eV  220.14 nm  f=0.0006  <S**2>=0.000
      13 -> 14         0.53862
      13 -> 15         0.11256
      13 -> 16        -0.39458
      13 -> 19        -0.11284
      13 -> 20         0.11283
      13 -> 23        -0.10518
 This state for optimization and/or second-order correction.
 Total Energy, E(CIS) =  -2.59898995988
 Copying the excited state density for this state as the 1-particle RhoCI density.

 Excited State   2:      Singlet-A      6.4130 eV  193.33 nm  f=0.0006  <S**2>=0.000
      13 -> 14         0.39077
      13 -> 15        -0.17656
      13 -> 16         0.45347
      13 -> 17        -0.30810

 Excited State   3:      Singlet-A      6.6194 eV  187.30 nm  f=0.0717  <S**2>=0.000
      13 -> 14         0.15605
      13 -> 15        -0.30571
      13 -> 16         0.14130
      13 -> 17         0.58803

 Excited State   4:      Singlet-A      6.8020 eV  182.28 nm  f=0.2413  <S**2>=0.000
      13 -> 15         0.57097
      13 -> 16         0.29085
      13 -> 17         0.21265

 Excited State   5:      Singlet-A      7.8808 eV  157.32 nm  f=0.0108  <S**2>=0.000
      13 -> 18         0.19235
      13 -> 19         0.52242
      13 -> 20         0.39889
      13 -> 21        -0.10088

 Excited State   6:      Singlet-A      8.0715 eV  153.61 nm  f=0.1171  <S**2>=0.000
      10 -> 15         0.11320
      13 -> 18         0.65382
      13 -> 19        -0.17430

 Excited State   7:      Singlet-A      8.3994 eV  147.61 nm  f=0.0031  <S**2>=0.000
      12 -> 15         0.15335
      13 -> 14        -0.11110
      13 -> 16         0.12558
      13 -> 19        -0.37077
      13 -> 20         0.51557

 Excited State   8:      Singlet-A      8.6899 eV  142.68 nm  f=0.1224  <S**2>=0.000
      12 -> 14         0.42161
      12 -> 15         0.43301
      12 -> 16        -0.22954
      12 -> 19        -0.10815
      13 -> 20        -0.11186

 Excited State   9:      Singlet-A      8.7945 eV  140.98 nm  f=0.0569  <S**2>=0.000
      12 -> 14        -0.24598
      12 -> 15         0.50091
      12 -> 16         0.37263

 Excited State  10:      Singlet-A      9.5900 eV  129.29 nm  f=0.0118  <S**2>=0.000
      10 -> 15        -0.13238
      11 -> 15        -0.16631
      13 -> 21         0.61435
      13 -> 22         0.20812

 Excited State  11:      Singlet-A      9.6413 eV  128.60 nm  f=0.1157  <S**2>=0.000
      10 -> 14         0.17545
      10 -> 15         0.11904
      10 -> 16        -0.13544
      10 -> 19        -0.12294
      11 -> 14         0.38548
      11 -> 15         0.20655
      11 -> 16        -0.31357
      11 -> 19        -0.16342
      12 -> 17         0.11767
      12 -> 21        -0.14930
      13 -> 22         0.15454

 Excited State  12:      Singlet-A      9.7185 eV  127.58 nm  f=0.0190  <S**2>=0.000
      10 -> 14        -0.10352
      10 -> 16         0.13354
      11 -> 15         0.14417
      13 -> 21        -0.16807
      13 -> 22         0.61283

 Excited State  13:      Singlet-A      9.8700 eV  125.62 nm  f=0.0400  <S**2>=0.000
      10 -> 14        -0.13335
      10 -> 15         0.22887
      10 -> 16         0.18939
      11 -> 15         0.49432
      11 -> 16         0.13389
      13 -> 21         0.22940
      13 -> 22        -0.17049

 Excited State  14:      Singlet-A      9.9673 eV  124.39 nm  f=0.0570  <S**2>=0.000
       9 -> 14        -0.10851
       9 -> 19        -0.11838
      10 -> 15        -0.22309
      10 -> 16        -0.11195
      12 -> 14         0.36203
      12 -> 15        -0.12073
      12 -> 16         0.40251
      12 -> 17         0.17043
      12 -> 19         0.12595

 Excited State  15:      Singlet-A     10.2452 eV  121.02 nm  f=0.0272  <S**2>=0.000
      11 -> 14        -0.15142
      12 -> 14        -0.13716
      12 -> 17         0.59831

 The electronic state is 1-A.
 Alpha  occ. eigenvalues --   -3.07094  -1.25908  -0.97602  -0.96042  -0.93203
 Alpha  occ. eigenvalues --   -0.83792  -0.76453  -0.61139  -0.59911  -0.49147
 Alpha  occ. eigenvalues --   -0.48475  -0.45475  -0.31178
 Alpha virt. eigenvalues --    0.14624   0.15105   0.15693   0.18857   0.21738
 Alpha virt. eigenvalues --    0.22610   0.25678   0.28509   0.30405   0.33288
 Alpha virt. eigenvalues --    0.38807

 Mulliken charges:
               1
     1  C   -0.096441
     2  C   -1.665861
     3  O    2.835710
     4  C   -1.730378
     5  C   -0.286333
     6  H    0.210691
     7  H    0.281832
     8  H    0.267444
     9  H    0.183337
 Sum of Mulliken charges =   0.00000

 Dipole moment (field-independent basis, Debye):
    X=              1.5226    Y=            -10.3935    Z=              0.5546  Tot=             10.5191
 N-N= 1.050634862781D+02 E-N=-1.704859152751D+02  KE=-2.174459887270D+01
 Orbital energies and kinetic energies (alpha):
                                 1                 2
   1         O                -3.070936         -2.357755
   2         O                -1.259080         -1.183254
   3         O                -0.976020         -0.957096
   4         O                -0.960423         -0.956966
   5         O                -0.932027         -0.807283
   6         O                -0.837922         -0.829837
   7         O                -0.764526         -0.761983

 Normal termination of Gaussian 09 at Fri Dec 11 13:41:26 2015.
