 Gaussian 09, Revision D.01,
 Gaussian 09:  ES64L-G09RevD.01 24-Apr-2013

 ------------------------------------------------------------
 #P AM1(Input,print) CIS(Singlets,NStates=15) pop(full) force
 ------------------------------------------------------------

 -----------------
 AM1-Reparam Input
 -----------------
 Symbolic Z-matrix:
 Charge =  0 Multiplicity = 1

                         Standard orientation:
 ---------------------------------------------------------------------
 Center     Atomic      Atomic             Coordinates (Angstroms)
 Number     Number       Type             X           Y           Z
 ---------------------------------------------------------------------
      1          6           0        0.476524    1.086467    0.033147
      2          6           0        1.157561   -0.080477   -0.016795
      3          8           0        0.259620   -1.161541   -0.013717
      4          6           0       -0.983331   -0.547575    0.051192
      5          6           0       -0.933816    0.784504   -0.032855
      6          1           0       -1.724804    1.440999   -0.075685
      7          1           0       -1.811747   -1.292232   -0.027602
      8          1           0        2.184792   -0.385207   -0.014027
      9          1           0        0.973178    2.071253    0.018917
 ---------------------------------------------------------------------

 SCF Done:  E(RAM1) =   2.56607352849     A.U. after   14 cycles

 Excitation energies and oscillator strengths:

 Excited State   1:      Singlet-A      5.2164 eV  237.68 nm  f=0.3383  <S**2>=0.000
      13 -> 14         0.69522
 This state for optimization and/or second-order correction.
 Total Energy, E(CIS) =   2.75777170863
 Copying the excited state density for this state as the 1-particle RhoCI density.

 Excited State   2:      Singlet-A      5.9465 eV  208.50 nm  f=0.0005  <S**2>=0.000
      11 -> 15        -0.10493
      13 -> 15         0.67587
      13 -> 17        -0.10356

 Excited State   3:      Singlet-A      6.4064 eV  193.53 nm  f=0.0017  <S**2>=0.000
      13 -> 16         0.66241
      13 -> 17        -0.13947
      13 -> 18        -0.12679

 Excited State   4:      Singlet-A      6.8705 eV  180.46 nm  f=0.0002  <S**2>=0.000
      12 -> 14         0.69673

 Excited State   5:      Singlet-A      7.7396 eV  160.20 nm  f=0.0069  <S**2>=0.000
      10 -> 14        -0.13480
      13 -> 15         0.10870
      13 -> 17         0.45349
      13 -> 18        -0.41697
      13 -> 20         0.11856
      13 -> 21        -0.22859

 Excited State   6:      Singlet-A      7.9220 eV  156.51 nm  f=0.0089  <S**2>=0.000
      10 -> 14         0.49989
      11 -> 14         0.32593
      13 -> 17        -0.13531
      13 -> 18        -0.29443
      13 -> 20         0.10146
      13 -> 21        -0.10899

 Excited State   7:      Singlet-A      8.1058 eV  152.96 nm  f=0.0104  <S**2>=0.000
      10 -> 14         0.26764
      11 -> 14         0.19204
      13 -> 16         0.13122
      13 -> 17         0.48054
      13 -> 18         0.32016
      13 -> 21         0.13054

 Excited State   8:      Singlet-A      8.6792 eV  142.85 nm  f=0.0017  <S**2>=0.000
      13 -> 19         0.68005

 Excited State   9:      Singlet-A      8.7857 eV  141.12 nm  f=0.0786  <S**2>=0.000
      10 -> 14        -0.37109
      11 -> 14         0.54956
      12 -> 15        -0.14511

 Excited State  10:      Singlet-A      9.1785 eV  135.08 nm  f=0.0980  <S**2>=0.000
       8 -> 15        -0.15011
       8 -> 16        -0.11211
      10 -> 17        -0.11369
      11 -> 14         0.10149
      12 -> 15         0.53685
      12 -> 16        -0.20919
      12 -> 18         0.18447

 Excited State  11:      Singlet-A      9.4079 eV  131.79 nm  f=0.0104  <S**2>=0.000
      13 -> 18        -0.32440
      13 -> 20        -0.37182
      13 -> 21         0.48141

 Excited State  12:      Singlet-A      9.6831 eV  128.04 nm  f=0.0510  <S**2>=0.000
      10 -> 17        -0.12072
      11 -> 15         0.44480
      11 -> 16         0.12023
      11 -> 17        -0.12742
      12 -> 15        -0.21853
      12 -> 16        -0.27380
      12 -> 18         0.19944
      13 -> 20         0.14088

 Excited State  13:      Singlet-A      9.7960 eV  126.57 nm  f=0.1434  <S**2>=0.000
       9 -> 16         0.10221
      10 -> 15         0.14262
      10 -> 16         0.15551
      10 -> 17        -0.12036
      11 -> 15        -0.13929
      11 -> 16         0.14157
      12 -> 16         0.34057
      12 -> 17        -0.17023
      13 -> 20         0.31952
      13 -> 21         0.29619

 Excited State  14:      Singlet-A      9.8190 eV  126.27 nm  f=0.0731  <S**2>=0.000
      10 -> 15        -0.14983
      10 -> 16         0.17373
      11 -> 15         0.29299
      12 -> 15         0.10311
      12 -> 16         0.40217
      12 -> 17        -0.13191
      13 -> 20        -0.26519
      13 -> 21        -0.22061

 Excited State  15:      Singlet-A      9.8803 eV  125.49 nm  f=0.0897  <S**2>=0.000
      10 -> 15        -0.31015
      10 -> 16        -0.14765
      10 -> 17         0.15364
      11 -> 15         0.24183
      12 -> 15         0.15959
      12 -> 16         0.10921
      12 -> 17         0.11743
      12 -> 18        -0.17841
      13 -> 20         0.34143
      13 -> 21         0.17556

 The electronic state is 1-A.
 Alpha  occ. eigenvalues --   -1.71769  -1.15531  -0.94209  -0.80345  -0.75893
 Alpha  occ. eigenvalues --   -0.67137  -0.63050  -0.53388  -0.50161  -0.43480
 Alpha  occ. eigenvalues --   -0.42876  -0.39751  -0.27259
 Alpha virt. eigenvalues --    0.12393   0.16919   0.18970   0.26464   0.28733
 Alpha virt. eigenvalues --    0.29955   0.32465   0.33583   0.37180   0.47009
 Alpha virt. eigenvalues --    0.50439

 Mulliken charges:
               1
     1  C   -0.065672
     2  C   -1.889936
     3  O    3.216981
     4  C   -1.889036
     5  C   -0.074480
     6  H    0.112543
     7  H    0.240308
     8  H    0.236976
     9  H    0.112316
 Sum of Mulliken charges =   0.00000

 Dipole moment (field-independent basis, Debye):
    X=              2.2757    Y=            -11.4359    Z=             -0.5763  Tot=             11.6743
 N-N= 1.033030419339D+02 E-N=-1.679819510449D+02  KE=-1.499504965473D+01
 Orbital energies and kinetic energies (alpha):
                                 1                 2
   1         O                -1.717687         -1.198826
   2         O                -1.155313         -1.020126
   3         O                -0.942087         -0.871277
   4         O                -0.803446         -0.614118
   5         O                -0.758930         -0.673355
   6         O                -0.671367         -0.572238
   7         O                -0.630495         -0.519869

 Normal termination of Gaussian 09 at Tue Dec 15 17:06:27 2015.
