 Gaussian 09, Revision D.01,
 Gaussian 09:  ES64L-G09RevD.01 24-Apr-2013

 ------------------------------------------------------------
 #P AM1(Input,print) CIS(Singlets,NStates=15) pop(full) force
 ------------------------------------------------------------

 -----------------
 AM1-Reparam Input
 -----------------
 Symbolic Z-matrix:
 Charge =  0 Multiplicity = 1

                         Standard orientation:
 ---------------------------------------------------------------------
 Center     Atomic      Atomic             Coordinates (Angstroms)
 Number     Number       Type             X           Y           Z
 ---------------------------------------------------------------------
      1          6           0       -0.695082    0.999306   -0.007815
      2          6           0       -1.097835   -0.365665    0.016671
      3          8           0       -0.007775   -1.141947    0.000639
      4          6           0        1.078678   -0.372664   -0.009648
      5          6           0        0.747365    0.946265   -0.004641
      6          1           0        1.357938    1.753186    0.037363
      7          1           0        1.990748   -0.858447    0.020310
      8          1           0       -2.098460   -0.798087   -0.038623
      9          1           0       -1.386778    1.795466    0.008438
 ---------------------------------------------------------------------

 SCF Done:  E(RAM1) =   1.67959923408     A.U. after   14 cycles

 Excitation energies and oscillator strengths:

 Excited State   1:      Singlet-A      5.4326 eV  228.22 nm  f=0.3476  <S**2>=0.000
      13 -> 14         0.69425
 This state for optimization and/or second-order correction.
 Total Energy, E(CIS) =   1.87924300805
 Copying the excited state density for this state as the 1-particle RhoCI density.

 Excited State   2:      Singlet-A      6.5030 eV  190.66 nm  f=0.0105  <S**2>=0.000
      11 -> 16        -0.10319
      13 -> 15         0.64238
      13 -> 17         0.26674

 Excited State   3:      Singlet-A      6.8114 eV  182.02 nm  f=0.0000  <S**2>=0.000
      11 -> 15        -0.12866
      13 -> 16         0.61335
      13 -> 18        -0.10980
      13 -> 19         0.27246

 Excited State   4:      Singlet-A      7.1352 eV  173.76 nm  f=0.0006  <S**2>=0.000
      12 -> 14         0.66911
      13 -> 18         0.10783
      13 -> 19         0.10808

 Excited State   5:      Singlet-A      7.5563 eV  164.08 nm  f=0.0000  <S**2>=0.000
      11 -> 15         0.10337
      12 -> 14        -0.18787
      13 -> 16        -0.17172
      13 -> 18         0.25981
      13 -> 19         0.47002
      13 -> 20         0.33214
      13 -> 21         0.11322

 Excited State   6:      Singlet-A      8.0143 eV  154.70 nm  f=0.0251  <S**2>=0.000
      10 -> 14         0.31217
      11 -> 16         0.12961
      13 -> 15        -0.21551
      13 -> 17         0.55486
      13 -> 21        -0.11722

 Excited State   7:      Singlet-A      8.1605 eV  151.93 nm  f=0.0014  <S**2>=0.000
      10 -> 14         0.61953
      13 -> 17        -0.29742

 Excited State   8:      Singlet-A      8.5273 eV  145.40 nm  f=0.0182  <S**2>=0.000
      11 -> 14         0.26058
      11 -> 15        -0.13338
      13 -> 16         0.18053
      13 -> 18         0.53242
      13 -> 19        -0.26238
      13 -> 20         0.11259

 Excited State   9:      Singlet-A      8.5393 eV  145.19 nm  f=0.1006  <S**2>=0.000
      11 -> 14         0.63587
      13 -> 18        -0.21703
      13 -> 19         0.10814

 Excited State  10:      Singlet-A      8.9240 eV  138.93 nm  f=0.0020  <S**2>=0.000
      13 -> 18        -0.26558
      13 -> 19        -0.22694
      13 -> 20         0.59813
      13 -> 21        -0.11622

 Excited State  11:      Singlet-A      9.2618 eV  133.87 nm  f=0.0801  <S**2>=0.000
      13 -> 19        -0.20348
      13 -> 21         0.65859

 Excited State  12:      Singlet-A      9.5636 eV  129.64 nm  f=0.0185  <S**2>=0.000
       8 -> 15        -0.15079
       9 -> 16        -0.12811
      10 -> 15         0.32169
      10 -> 17         0.29428
      12 -> 16        -0.30447
      12 -> 19        -0.23251
      12 -> 20        -0.25395

 Excited State  13:      Singlet-A      9.6552 eV  128.41 nm  f=0.0012  <S**2>=0.000
       7 -> 16         0.10723
      11 -> 15         0.62131
      11 -> 17         0.17615
      13 -> 16         0.18605

 Excited State  14:      Singlet-A     10.0236 eV  123.69 nm  f=0.0535  <S**2>=0.000
       8 -> 16         0.12347
      10 -> 20         0.12636
      11 -> 16        -0.14080
      12 -> 15         0.58174
      12 -> 16        -0.12524
      12 -> 17         0.13983
      12 -> 19        -0.11743
      12 -> 21         0.10635

 Excited State  15:      Singlet-A     10.1530 eV  122.12 nm  f=0.0129  <S**2>=0.000
       7 -> 15         0.14316
      11 -> 16         0.59693
      11 -> 18        -0.13101
      12 -> 16        -0.12508
      13 -> 15         0.15301
      13 -> 17        -0.10203

 The electronic state is 1-A.
 Alpha  occ. eigenvalues --   -1.92017  -1.21578  -0.99919  -0.83233  -0.80387
 Alpha  occ. eigenvalues --   -0.69472  -0.63707  -0.55271  -0.52023  -0.45071
 Alpha  occ. eigenvalues --   -0.42613  -0.42121  -0.29176
 Alpha virt. eigenvalues --    0.11406   0.18051   0.19019   0.24144   0.26462
 Alpha virt. eigenvalues --    0.27488   0.28713   0.28877   0.38447   0.46930
 Alpha virt. eigenvalues --    0.52332

 Mulliken charges:
               1
     1  C   -0.128267
     2  C   -1.989183
     3  O    3.187757
     4  C   -1.950500
     5  C   -0.107020
     6  H    0.180202
     7  H    0.305276
     8  H    0.317650
     9  H    0.184085
 Sum of Mulliken charges =   0.00000

 Dipole moment (field-independent basis, Debye):
    X=             -0.0143    Y=             -9.6206    Z=             -0.0464  Tot=              9.6208
 N-N= 1.041089438458D+02 E-N=-1.695580793980D+02  KE=-1.576889374968D+01
 Orbital energies and kinetic energies (alpha):
                                 1                 2
   1         O                -1.920169         -1.398848
   2         O                -1.215780         -1.095881
   3         O                -0.999189         -0.909158
   4         O                -0.832327         -0.649274
   5         O                -0.803874         -0.699930
   6         O                -0.694715         -0.589131
   7         O                -0.637070         -0.508070

 Normal termination of Gaussian 09 at Tue Dec 15 17:07:08 2015.
