 Gaussian 09, Revision D.01,
 Gaussian 09:  ES64L-G09RevD.01 24-Apr-2013

 ------------------------------------------------------------
 #P AM1(Input,print) CIS(Singlets,NStates=15) pop(full) force
 ------------------------------------------------------------

 -----------------
 AM1-Reparam Input
 -----------------
 Symbolic Z-matrix:
 Charge =  0 Multiplicity = 1

                         Standard orientation:
 ---------------------------------------------------------------------
 Center     Atomic      Atomic             Coordinates (Angstroms)
 Number     Number       Type             X           Y           Z
 ---------------------------------------------------------------------
      1          6           0        0.906798    0.776835   -0.013504
      2          6           0        1.034385   -0.574751    0.020855
      3          8           0       -0.305036   -1.109669   -0.002194
      4          6           0       -1.147473   -0.105361   -0.002074
      5          6           0       -0.458687    1.060529   -0.015200
      6          1           0       -0.909003    2.133576    0.071905
      7          1           0       -2.221451   -0.316488    0.014679
      8          1           0        1.834847   -1.276483   -0.028184
      9          1           0        1.725766    1.393239    0.018693
 ---------------------------------------------------------------------

 SCF Done:  E(RAM1) =  -4.49610406662     A.U. after   14 cycles

 Excitation energies and oscillator strengths:

 Excited State   1:      Singlet-A      6.3926 eV  193.95 nm  f=0.3509  <S**2>=0.000
      13 -> 14         0.69334
 This state for optimization and/or second-order correction.
 Total Energy, E(CIS) =  -4.26117994024
 Copying the excited state density for this state as the 1-particle RhoCI density.

 Excited State   2:      Singlet-A      7.3531 eV  168.61 nm  f=0.0086  <S**2>=0.000
      13 -> 15         0.65909
      13 -> 17        -0.15631

 Excited State   3:      Singlet-A      7.8249 eV  158.45 nm  f=0.0118  <S**2>=0.000
      13 -> 16         0.65832
      13 -> 19         0.15623
      13 -> 20         0.14313

 Excited State   4:      Singlet-A      8.7254 eV  142.10 nm  f=0.0018  <S**2>=0.000
      11 -> 14         0.63739
      13 -> 16         0.10046
      13 -> 19        -0.22497

 Excited State   5:      Singlet-A      9.1284 eV  135.82 nm  f=0.0008  <S**2>=0.000
      11 -> 14         0.24512
      12 -> 15        -0.13650
      13 -> 16        -0.12241
      13 -> 19         0.60940

 Excited State   6:      Singlet-A      9.2945 eV  133.40 nm  f=0.0116  <S**2>=0.000
      10 -> 14         0.11343
      12 -> 16         0.11410
      13 -> 15         0.15260
      13 -> 17         0.65090
      13 -> 20         0.10594

 Excited State   7:      Singlet-A      9.4125 eV  131.72 nm  f=0.0531  <S**2>=0.000
      10 -> 14         0.46148
      12 -> 14         0.49697

 Excited State   8:      Singlet-A      9.5304 eV  130.09 nm  f=0.0624  <S**2>=0.000
      10 -> 14         0.49765
      11 -> 14        -0.10582
      12 -> 14        -0.44930

 Excited State   9:      Singlet-A      9.9231 eV  124.95 nm  f=0.0211  <S**2>=0.000
      13 -> 18         0.67414

 Excited State  10:      Singlet-A     10.4772 eV  118.34 nm  f=0.0193  <S**2>=0.000
      12 -> 16        -0.12672
      12 -> 17        -0.10332
      13 -> 17        -0.10259
      13 -> 20         0.64830

 Excited State  11:      Singlet-A     10.7234 eV  115.62 nm  f=0.0040  <S**2>=0.000
      12 -> 15         0.59260
      12 -> 16         0.15947
      12 -> 17        -0.12659
      13 -> 15         0.11053
      13 -> 19         0.10367
      13 -> 21         0.20169

 Excited State  12:      Singlet-A     11.0502 eV  112.20 nm  f=0.0476  <S**2>=0.000
      12 -> 15        -0.14265
      12 -> 16        -0.16026
      13 -> 21         0.65537

 Excited State  13:      Singlet-A     11.2814 eV  109.90 nm  f=0.0347  <S**2>=0.000
       9 -> 15        -0.10513
      10 -> 16         0.14497
      10 -> 17        -0.13649
      11 -> 15         0.47500
      11 -> 16        -0.23142
      11 -> 18         0.27286
      11 -> 19        -0.21632

 Excited State  14:      Singlet-A     11.3760 eV  108.99 nm  f=0.1332  <S**2>=0.000
       9 -> 15         0.17812
      10 -> 15        -0.26715
      10 -> 16        -0.10843
      10 -> 17         0.18595
      11 -> 15         0.39017
      11 -> 16         0.28343
      11 -> 17        -0.21394
      11 -> 19         0.11703

 Excited State  15:      Singlet-A     11.7081 eV  105.90 nm  f=0.0141  <S**2>=0.000
      12 -> 15        -0.21133
      12 -> 16         0.57710
      12 -> 19        -0.12432
      12 -> 20         0.11446
      13 -> 17        -0.12994

 The electronic state is 1-A.
 Alpha  occ. eigenvalues --   -3.85595  -1.25502  -0.94987  -0.92446  -0.87475
 Alpha  occ. eigenvalues --   -0.86224  -0.80158  -0.66603  -0.65665  -0.58243
 Alpha  occ. eigenvalues --   -0.55886  -0.54509  -0.41076
 Alpha virt. eigenvalues --    0.03937   0.11020   0.14029   0.17148   0.19545
 Alpha virt. eigenvalues --    0.21332   0.23024   0.23714   0.26978   0.35249
 Alpha virt. eigenvalues --    0.44405

 Mulliken charges:
               1
     1  C   -0.051633
     2  C   -1.395011
     3  O    2.893525
     4  C   -1.429526
     5  C   -0.190490
     6  H    0.041096
     7  H    0.077327
     8  H    0.046962
     9  H    0.007750
 Sum of Mulliken charges =   0.00000

 Dipole moment (field-independent basis, Debye):
    X=             -3.3557    Y=            -10.6935    Z=             -0.1286  Tot=             11.2084
 N-N= 1.061494996520D+02 E-N=-1.725961443457D+02  KE=-2.280768775952D+01
 Orbital energies and kinetic energies (alpha):
                                 1                 2
   1         O                -3.855946         -3.046677
   2         O                -1.255017         -1.125361
   3         O                -0.949872         -0.900085
   4         O                -0.924460         -0.865204
   5         O                -0.874754         -0.832873
   6         O                -0.862236         -0.793910
   7         O                -0.801577         -0.711449

 Normal termination of Gaussian 09 at Fri Dec 11 13:41:31 2015.
