 Gaussian 09, Revision D.01,
 Gaussian 09:  ES64L-G09RevD.01 24-Apr-2013

 ------------------------------------------------------------
 #P AM1(Input,print) CIS(Singlets,NStates=15) pop(full) force
 ------------------------------------------------------------

 -----------------
 AM1-Reparam Input
 -----------------
 Symbolic Z-matrix:
 Charge =  0 Multiplicity = 1

                         Standard orientation:
 ---------------------------------------------------------------------
 Center     Atomic      Atomic             Coordinates (Angstroms)
 Number     Number       Type             X           Y           Z
 ---------------------------------------------------------------------
      1          6           0       -0.580822    0.998465   -0.038253
      2          6           0       -1.094022   -0.221458    0.050986
      3          8           0       -0.151048   -1.125212   -0.037750
      4          6           0        1.033067   -0.491337    0.032976
      5          6           0        0.801596    0.893040    0.012313
      6          1           0        1.655578    1.614624   -0.044816
      7          1           0        1.897739   -1.124745   -0.014281
      8          1           0       -2.165750   -0.502364   -0.007960
      9          1           0       -1.138090    1.941924    0.020924
 ---------------------------------------------------------------------

 SCF Done:  E(RAM1) =   2.52763264830     A.U. after   13 cycles

 Excitation energies and oscillator strengths:

 Excited State   1:      Singlet-A      5.5753 eV  222.38 nm  f=0.3227  <S**2>=0.000
      13 -> 14         0.69180
 This state for optimization and/or second-order correction.
 Total Energy, E(CIS) =   2.73252081404
 Copying the excited state density for this state as the 1-particle RhoCI density.

 Excited State   2:      Singlet-A      6.4709 eV  191.60 nm  f=0.0045  <S**2>=0.000
      10 -> 15         0.11219
      13 -> 15         0.65440
      13 -> 16         0.12713
      13 -> 17        -0.16076

 Excited State   3:      Singlet-A      6.8282 eV  181.58 nm  f=0.0014  <S**2>=0.000
      10 -> 16        -0.10968
      13 -> 15        -0.13598
      13 -> 16         0.63599
      13 -> 17        -0.14901
      13 -> 19        -0.15725

 Excited State   4:      Singlet-A      7.0528 eV  175.80 nm  f=0.0006  <S**2>=0.000
       9 -> 14        -0.13552
      12 -> 14         0.68783

 Excited State   5:      Singlet-A      7.7459 eV  160.06 nm  f=0.0047  <S**2>=0.000
      10 -> 14        -0.21809
      11 -> 14         0.65683

 Excited State   6:      Singlet-A      8.2107 eV  151.00 nm  f=0.0002  <S**2>=0.000
      10 -> 16         0.11580
      13 -> 16        -0.12127
      13 -> 17        -0.29140
      13 -> 18         0.51645
      13 -> 21        -0.31461

 Excited State   7:      Singlet-A      8.3863 eV  147.84 nm  f=0.0092  <S**2>=0.000
      10 -> 15         0.10814
      10 -> 16        -0.10487
      13 -> 15         0.12088
      13 -> 17         0.57752
      13 -> 18         0.27154
      13 -> 21        -0.15704

 Excited State   8:      Singlet-A      8.7703 eV  141.37 nm  f=0.0891  <S**2>=0.000
      10 -> 14         0.65092
      11 -> 14         0.21564
      12 -> 15         0.10228

 Excited State   9:      Singlet-A      8.9926 eV  137.87 nm  f=0.0008  <S**2>=0.000
      10 -> 15        -0.10288
      10 -> 16        -0.12186
      13 -> 16         0.10208
      13 -> 18         0.17177
      13 -> 19         0.63645

 Excited State  10:      Singlet-A      9.3698 eV  132.32 nm  f=0.0468  <S**2>=0.000
       9 -> 15        -0.17771
       9 -> 19        -0.10848
      10 -> 15         0.16280
      10 -> 17        -0.10150
      11 -> 15        -0.27303
      11 -> 16        -0.20670
      11 -> 17         0.27683
      12 -> 16        -0.22477
      12 -> 17         0.12159
      12 -> 18        -0.27022

 Excited State  11:      Singlet-A      9.4114 eV  131.74 nm  f=0.0903  <S**2>=0.000
      11 -> 15         0.12240
      12 -> 15         0.63862
      12 -> 16        -0.10673

 Excited State  12:      Singlet-A      9.6095 eV  129.02 nm  f=0.0025  <S**2>=0.000
       9 -> 14         0.17934
      13 -> 18         0.33764
      13 -> 19        -0.15387
      13 -> 20        -0.20622
      13 -> 21         0.51110

 Excited State  13:      Singlet-A      9.8361 eV  126.05 nm  f=0.0653  <S**2>=0.000
      10 -> 15         0.39026
      11 -> 15         0.14859
      11 -> 16         0.37901
      12 -> 16        -0.28223
      13 -> 21         0.10195

 Excited State  14:      Singlet-A      9.8745 eV  125.56 nm  f=0.0412  <S**2>=0.000
      10 -> 15         0.40483
      10 -> 16         0.17101
      11 -> 15         0.11271
      11 -> 16        -0.22743
      12 -> 16         0.38909
      13 -> 21         0.10164

 Excited State  15:      Singlet-A      9.9074 eV  125.14 nm  f=0.0132  <S**2>=0.000
       9 -> 14         0.60640
      10 -> 16        -0.12179
      12 -> 14         0.12026
      13 -> 20         0.26258

 The electronic state is 1-A.
 Alpha  occ. eigenvalues --   -1.76287  -1.16912  -0.95802  -0.81356  -0.75777
 Alpha  occ. eigenvalues --   -0.67575  -0.65600  -0.55445  -0.49546  -0.43869
 Alpha  occ. eigenvalues --   -0.43521  -0.41375  -0.30301
 Alpha virt. eigenvalues --    0.11399   0.16486   0.18313   0.24297   0.26579
 Alpha virt. eigenvalues --    0.28152   0.30170   0.32053   0.41999   0.50969
 Alpha virt. eigenvalues --    0.55896

 Mulliken charges:
               1
     1  C   -0.071699
     2  C   -1.954517
     3  O    3.226618
     4  C   -1.948592
     5  C   -0.043218
     6  H    0.122912
     7  H    0.254753
     8  H    0.290220
     9  H    0.123524
 Sum of Mulliken charges =   0.00000

 Dipole moment (field-independent basis, Debye):
    X=             -1.8528    Y=             -9.6941    Z=             -1.2696  Tot=              9.9509
 N-N= 1.043280260018D+02 E-N=-1.696631533933D+02  KE=-1.507029957683D+01
 Orbital energies and kinetic energies (alpha):
                                 1                 2
   1         O                -1.762873         -1.278034
   2         O                -1.169117         -1.015892
   3         O                -0.958020         -0.861209
   4         O                -0.813562         -0.613108
   5         O                -0.757771         -0.683227
   6         O                -0.675753         -0.567973
   7         O                -0.656005         -0.538461

 Normal termination of Gaussian 09 at Tue Dec 15 17:06:24 2015.
