 Gaussian 09, Revision D.01,
 Gaussian 09:  ES64L-G09RevD.01 24-Apr-2013

 ------------------------------------------------------------
 #P AM1(Input,print) CIS(Singlets,NStates=15) pop(full) force
 ------------------------------------------------------------

 -----------------
 AM1-Reparam Input
 -----------------
 Symbolic Z-matrix:
 Charge =  0 Multiplicity = 1

                         Standard orientation:
 ---------------------------------------------------------------------
 Center     Atomic      Atomic             Coordinates (Angstroms)
 Number     Number       Type             X           Y           Z
 ---------------------------------------------------------------------
      1          6           0       -0.520978    1.102256   -0.031309
      2          6           0       -1.158001   -0.172240   -0.009191
      3          8           0       -0.207656   -1.147392    0.007263
      4          6           0        1.042012   -0.528583   -0.022241
      5          6           0        0.868888    0.809823    0.035096
      6          1           0        1.608042    1.564539    0.007360
      7          1           0        1.895582   -1.141840   -0.003126
      8          1           0       -2.203763   -0.517997    0.079096
      9          1           0       -1.030141    2.006900    0.024441
 ---------------------------------------------------------------------

 SCF Done:  E(RAM1) =  0.150605226498E-01 A.U. after   14 cycles

 Excitation energies and oscillator strengths:

 Excited State   1:      Singlet-A      4.2453 eV  292.05 nm  f=0.1017  <S**2>=0.000
      12 -> 15         0.18408
      13 -> 14         0.67294
 This state for optimization and/or second-order correction.
 Total Energy, E(CIS) =  0.171072734538
 Copying the excited state density for this state as the 1-particle RhoCI density.

 Excited State   2:      Singlet-A      4.7269 eV  262.29 nm  f=0.0004  <S**2>=0.000
      13 -> 16         0.68732
      13 -> 22         0.11215

 Excited State   3:      Singlet-A      4.8872 eV  253.69 nm  f=0.0123  <S**2>=0.000
      12 -> 14        -0.39531
      13 -> 15         0.57984

 Excited State   4:      Singlet-A      5.5598 eV  223.00 nm  f=0.0020  <S**2>=0.000
      12 -> 17         0.14702
      13 -> 17         0.48905
      13 -> 18         0.29957
      13 -> 20         0.11591
      13 -> 21        -0.22027
      13 -> 22         0.13085
      13 -> 23        -0.15159

 Excited State   5:      Singlet-A      5.9555 eV  208.19 nm  f=0.0240  <S**2>=0.000
       7 -> 16        -0.18385
      12 -> 14         0.14381
      12 -> 16         0.62034
      12 -> 22         0.13247
      13 -> 15         0.11010

 Excited State   6:      Singlet-A      6.0828 eV  203.83 nm  f=0.0948  <S**2>=0.000
      12 -> 14        -0.28496
      12 -> 19        -0.19491
      12 -> 23         0.12024
      13 -> 15        -0.18815
      13 -> 17         0.11299
      13 -> 18        -0.12354
      13 -> 19         0.42434
      13 -> 20        -0.10021
      13 -> 22        -0.10506
      13 -> 23        -0.19189

 Excited State   7:      Singlet-A      6.0991 eV  203.28 nm  f=0.2399  <S**2>=0.000
      12 -> 14         0.44277
      12 -> 16        -0.19717
      12 -> 19        -0.13863
      13 -> 15         0.30545
      13 -> 19         0.23492
      13 -> 23        -0.11296

 Excited State   8:      Singlet-A      6.3654 eV  194.78 nm  f=0.0637  <S**2>=0.000
      12 -> 15         0.47830
      13 -> 14        -0.11772
      13 -> 17        -0.22847
      13 -> 18         0.35881
      13 -> 19         0.19444

 Excited State   9:      Singlet-A      6.4370 eV  192.61 nm  f=0.0754  <S**2>=0.000
      12 -> 15         0.46766
      13 -> 14        -0.12007
      13 -> 17         0.22368
      13 -> 18        -0.35636
      13 -> 19        -0.22327

 Excited State  10:      Singlet-A      6.8472 eV  181.07 nm  f=0.0094  <S**2>=0.000
      10 -> 14        -0.29133
      11 -> 14         0.55608
      11 -> 15         0.25452

 Excited State  11:      Singlet-A      7.1070 eV  174.45 nm  f=0.0009  <S**2>=0.000
      12 -> 18         0.48537
      12 -> 19         0.17043
      12 -> 20        -0.15784
      13 -> 17        -0.11005
      13 -> 18        -0.22574
      13 -> 21        -0.18998
      13 -> 22         0.24230

 Excited State  12:      Singlet-A      7.2486 eV  171.05 nm  f=0.0067  <S**2>=0.000
      12 -> 17         0.10840
      12 -> 18        -0.23813
      12 -> 19         0.18823
      12 -> 20         0.19761
      12 -> 23        -0.16088
      13 -> 17        -0.11820
      13 -> 18        -0.12722
      13 -> 19         0.24656
      13 -> 20         0.38566
      13 -> 21        -0.10072
      13 -> 22         0.12734
      13 -> 23        -0.10158
      13 -> 24        -0.13890

 Excited State  13:      Singlet-A      7.3862 eV  167.86 nm  f=0.0004  <S**2>=0.000
       9 -> 14         0.48131
       9 -> 15        -0.30414
      10 -> 14         0.29185
      11 -> 14         0.15900
      11 -> 15         0.15328
      13 -> 22         0.10881

 Excited State  14:      Singlet-A      7.4277 eV  166.92 nm  f=0.0054  <S**2>=0.000
      12 -> 19         0.34642
      12 -> 20        -0.12649
      12 -> 22        -0.19198
      13 -> 17         0.22542
      13 -> 19         0.17696
      13 -> 22        -0.30064
      13 -> 23         0.26164
      13 -> 24        -0.20597

 Excited State  15:      Singlet-A      7.6209 eV  162.69 nm  f=0.0020  <S**2>=0.000
      10 -> 14         0.16755
      10 -> 15         0.11953
      11 -> 15         0.10178
      12 -> 17         0.41861
      12 -> 18         0.15400
      12 -> 19         0.11227
      12 -> 20         0.15287
      12 -> 22         0.15423
      12 -> 24        -0.12142
      13 -> 17        -0.14911
      13 -> 22        -0.25720
      13 -> 24         0.20461

 The electronic state is 1-A.
 Alpha  occ. eigenvalues --   -1.54590  -1.23407  -1.08914  -0.82431  -0.81525
 Alpha  occ. eigenvalues --   -0.68260  -0.59445  -0.57029  -0.51041  -0.50700
 Alpha  occ. eigenvalues --   -0.49378  -0.39538  -0.33907
 Alpha virt. eigenvalues --    0.02500   0.06166   0.09319   0.13725   0.14810
 Alpha virt. eigenvalues --    0.15560   0.18352   0.18522   0.18960   0.20901
 Alpha virt. eigenvalues --    0.22074

 Mulliken charges:
               1
     1  C   -0.210921
     2  C   -0.105276
     3  O   -0.087907
     4  C   -0.103399
     5  C   -0.185212
     6  H    0.152537
     7  H    0.186768
     8  H    0.195844
     9  H    0.157566
 Sum of Mulliken charges =   0.00000

 Dipole moment (field-independent basis, Debye):
    X=             -0.0578    Y=              0.3261    Z=              0.1393  Tot=              0.3593
 N-N= 1.030770101619D+02 E-N=-1.704043766044D+02  KE=-1.651624650141D+01
 Orbital energies and kinetic energies (alpha):
                                 1                 2
   1         O                -1.545898         -1.297750
   2         O                -1.234072         -1.051913
   3         O                -1.089140         -0.954764
   4         O                -0.824308         -0.721336
   5         O                -0.815252         -0.714969
   6         O                -0.682596         -0.602297
   7         O                -0.594452         -0.481802

 Normal termination of Gaussian 09 at Tue Dec 15 16:11:15 2015.
