 Gaussian 09, Revision D.01,
 Gaussian 09:  ES64L-G09RevD.01 24-Apr-2013

 ------------------------------------------------------------
 #P AM1(Input,print) CIS(Singlets,NStates=15) pop(full) force
 ------------------------------------------------------------

 -----------------
 AM1-Reparam Input
 -----------------
 Symbolic Z-matrix:
 Charge =  0 Multiplicity = 1

                         Standard orientation:
 ---------------------------------------------------------------------
 Center     Atomic      Atomic             Coordinates (Angstroms)
 Number     Number       Type             X           Y           Z
 ---------------------------------------------------------------------
      1          6           0       -0.197900    1.156390    0.043568
      2          6           0       -1.108520    0.162563   -0.029677
      3          8           0       -0.565897   -1.014703   -0.009038
      4          6           0        0.806026   -0.773399    0.040957
      5          6           0        1.094403    0.493035   -0.035791
      6          1           0        2.056486    1.014981   -0.046533
      7          1           0        1.469283   -1.654014   -0.007324
      8          1           0       -2.224715    0.233390    0.020765
      9          1           0       -0.337938    2.291729   -0.008945
 ---------------------------------------------------------------------

 SCF Done:  E(RAM1) =   1.72863165148     A.U. after   14 cycles

 Excitation energies and oscillator strengths:

 Excited State   1:      Singlet-A      5.2031 eV  238.29 nm  f=0.3384  <S**2>=0.000
      13 -> 14         0.69585
 This state for optimization and/or second-order correction.
 Total Energy, E(CIS) =   1.91984152747
 Copying the excited state density for this state as the 1-particle RhoCI density.

 Excited State   2:      Singlet-A      5.7475 eV  215.72 nm  f=0.0022  <S**2>=0.000
      13 -> 15         0.67258
      13 -> 17         0.14372

 Excited State   3:      Singlet-A      6.2041 eV  199.84 nm  f=0.0010  <S**2>=0.000
      11 -> 16        -0.11353
      13 -> 16         0.66004
      13 -> 20         0.17870

 Excited State   4:      Singlet-A      6.7432 eV  183.87 nm  f=0.0004  <S**2>=0.000
      12 -> 14         0.68743

 Excited State   5:      Singlet-A      7.2909 eV  170.05 nm  f=0.0017  <S**2>=0.000
      12 -> 14         0.12329
      13 -> 16        -0.14438
      13 -> 17         0.16737
      13 -> 20         0.47761
      13 -> 21         0.43629

 Excited State   6:      Singlet-A      7.4199 eV  167.10 nm  f=0.0150  <S**2>=0.000
      13 -> 15        -0.15288
      13 -> 17         0.65067
      13 -> 20        -0.15651

 Excited State   7:      Singlet-A      7.9338 eV  156.27 nm  f=0.0060  <S**2>=0.000
      10 -> 14         0.12852
      13 -> 18         0.66726
      13 -> 21         0.10261

 Excited State   8:      Singlet-A      8.2131 eV  150.96 nm  f=0.0040  <S**2>=0.000
      10 -> 14         0.57507
      11 -> 14         0.18932
      13 -> 18        -0.17656
      13 -> 19         0.27837
      13 -> 21         0.10308

 Excited State   9:      Singlet-A      8.3273 eV  148.89 nm  f=0.0006  <S**2>=0.000
      10 -> 14        -0.25125
      11 -> 14        -0.14039
      13 -> 19         0.33470
      13 -> 20        -0.30975
      13 -> 21         0.42602

 Excited State  10:      Singlet-A      8.6007 eV  144.16 nm  f=0.0756  <S**2>=0.000
      11 -> 14        -0.27761
      12 -> 16         0.13767
      13 -> 19         0.45883
      13 -> 20         0.27665
      13 -> 21        -0.27856

 Excited State  11:      Singlet-A      8.7187 eV  142.21 nm  f=0.0656  <S**2>=0.000
      10 -> 14        -0.26698
      11 -> 14         0.52032
      12 -> 15        -0.14379
      12 -> 16        -0.13640
      13 -> 19         0.24678
      13 -> 20         0.10254

 Excited State  12:      Singlet-A      9.0175 eV  137.49 nm  f=0.1299  <S**2>=0.000
       8 -> 15         0.14623
      10 -> 17         0.14305
      12 -> 15         0.48697
      12 -> 16        -0.29046
      12 -> 18         0.16855
      12 -> 20        -0.17251
      12 -> 21        -0.12243
      13 -> 19         0.11314

 Excited State  13:      Singlet-A      9.3538 eV  132.55 nm  f=0.0602  <S**2>=0.000
       7 -> 15        -0.10804
      10 -> 15        -0.13933
      11 -> 14         0.17432
      11 -> 15         0.45508
      12 -> 15         0.25094
      12 -> 16         0.30954

 Excited State  14:      Singlet-A      9.4809 eV  130.77 nm  f=0.0877  <S**2>=0.000
      11 -> 14        -0.19220
      11 -> 15         0.47363
      12 -> 15        -0.28569
      12 -> 16        -0.27704

 Excited State  15:      Singlet-A      9.7499 eV  127.16 nm  f=0.1517  <S**2>=0.000
       8 -> 16        -0.13669
       9 -> 15         0.13036
      10 -> 15         0.23712
      10 -> 17         0.24140
      12 -> 15        -0.13579
      12 -> 16         0.28885
      12 -> 17        -0.19749
      12 -> 18         0.22341
      12 -> 20        -0.16039
      12 -> 21        -0.27329

 The electronic state is 1-A.
 Alpha  occ. eigenvalues --   -1.92223  -1.22273  -0.99088  -0.81643  -0.79615
 Alpha  occ. eigenvalues --   -0.68233  -0.64020  -0.53155  -0.51037  -0.43569
 Alpha  occ. eigenvalues --   -0.42278  -0.38849  -0.26372
 Alpha virt. eigenvalues --    0.13192   0.16605   0.19057   0.25785   0.26849
 Alpha virt. eigenvalues --    0.28719   0.29207   0.30358   0.37926   0.47080
 Alpha virt. eigenvalues --    0.51190

 Mulliken charges:
               1
     1  C   -0.211445
     2  C   -1.940372
     3  O    3.169353
     4  C   -1.902839
     5  C   -0.068369
     6  H    0.166121
     7  H    0.294327
     8  H    0.317741
     9  H    0.175483
 Sum of Mulliken charges =   0.00000

 Dipole moment (field-independent basis, Debye):
    X=             -5.1379    Y=             -9.1375    Z=             -0.2912  Tot=             10.4870
 N-N= 1.041785407612D+02 E-N=-1.699166340409D+02  KE=-1.573605095653D+01
 Orbital energies and kinetic energies (alpha):
                                 1                 2
   1         O                -1.922232         -1.400124
   2         O                -1.222735         -1.103095
   3         O                -0.990885         -0.913673
   4         O                -0.816434         -0.616950
   5         O                -0.796154         -0.702494
   6         O                -0.682331         -0.569736
   7         O                -0.640198         -0.518489

 Normal termination of Gaussian 09 at Tue Dec 15 17:07:03 2015.
