 Gaussian 09, Revision D.01,
 Gaussian 09:  ES64L-G09RevD.01 24-Apr-2013

 ------------------------------------------------------------
 #P AM1(Input,print) CIS(Singlets,NStates=15) pop(full) force
 ------------------------------------------------------------

 -----------------
 AM1-Reparam Input
 -----------------
 Symbolic Z-matrix:
 Charge =  0 Multiplicity = 1

                         Standard orientation:
 ---------------------------------------------------------------------
 Center     Atomic      Atomic             Coordinates (Angstroms)
 Number     Number       Type             X           Y           Z
 ---------------------------------------------------------------------
      1          6           0        0.757171    0.896867   -0.007864
      2          6           0        1.115852   -0.438017   -0.018797
      3          8           0       -0.113448   -1.144788    0.022470
      4          6           0       -1.135647   -0.256853   -0.027972
      5          6           0       -0.613125    0.984238    0.020463
      6          1           0       -1.228986    1.966866   -0.028794
      7          1           0       -2.111270   -0.674049    0.012461
      8          1           0        1.989501   -0.939612   -0.011258
      9          1           0        1.512834    1.687690    0.052856
 ---------------------------------------------------------------------

 SCF Done:  E(RAM1) =   2.82351033463     A.U. after   13 cycles

 Excitation energies and oscillator strengths:

 Excited State   1:      Singlet-A      5.4919 eV  225.76 nm  f=0.3113  <S**2>=0.000
      13 -> 14         0.69119
 This state for optimization and/or second-order correction.
 Total Energy, E(CIS) =   3.02533499527
 Copying the excited state density for this state as the 1-particle RhoCI density.

 Excited State   2:      Singlet-A      6.6591 eV  186.19 nm  f=0.0068  <S**2>=0.000
      10 -> 15         0.11661
      13 -> 15         0.62382
      13 -> 16         0.20169
      13 -> 17         0.18492

 Excited State   3:      Singlet-A      7.0089 eV  176.90 nm  f=0.0001  <S**2>=0.000
       9 -> 14        -0.12768
      12 -> 14         0.68139

 Excited State   4:      Singlet-A      7.0878 eV  174.93 nm  f=0.0048  <S**2>=0.000
      12 -> 14        -0.10687
      13 -> 15        -0.17652
      13 -> 16         0.61713
      13 -> 18        -0.10082
      13 -> 19         0.15961

 Excited State   5:      Singlet-A      7.5363 eV  164.52 nm  f=0.0045  <S**2>=0.000
      10 -> 14         0.12043
      11 -> 14         0.68313

 Excited State   6:      Singlet-A      8.0639 eV  153.75 nm  f=0.0017  <S**2>=0.000
      13 -> 18        -0.44778
      13 -> 19        -0.10852
      13 -> 20        -0.10933
      13 -> 21         0.48907

 Excited State   7:      Singlet-A      8.1508 eV  152.11 nm  f=0.0057  <S**2>=0.000
      10 -> 16         0.12251
      13 -> 15        -0.17033
      13 -> 17         0.63839
      13 -> 19        -0.16265

 Excited State   8:      Singlet-A      8.6902 eV  142.67 nm  f=0.0964  <S**2>=0.000
      10 -> 14         0.67796
      11 -> 14        -0.11776

 Excited State   9:      Singlet-A      8.9332 eV  138.79 nm  f=0.0002  <S**2>=0.000
      10 -> 16         0.11853
      13 -> 16        -0.12731
      13 -> 17         0.15558
      13 -> 19         0.64039

 Excited State  10:      Singlet-A      9.0254 eV  137.37 nm  f=0.0129  <S**2>=0.000
      13 -> 18         0.52246
      13 -> 20        -0.12842
      13 -> 21         0.43786

 Excited State  11:      Singlet-A      9.3555 eV  132.53 nm  f=0.1042  <S**2>=0.000
      11 -> 15         0.22572
      11 -> 16         0.30488
      11 -> 17         0.28176
      12 -> 15        -0.12281
      12 -> 16         0.17248
      12 -> 18        -0.28884
      12 -> 21         0.15783
      13 -> 14        -0.10731

 Excited State  12:      Singlet-A      9.5821 eV  129.39 nm  f=0.0925  <S**2>=0.000
      13 -> 20         0.65595
      13 -> 21         0.16925

 Excited State  13:      Singlet-A      9.6193 eV  128.89 nm  f=0.0899  <S**2>=0.000
      11 -> 15         0.23650
      12 -> 15         0.59755
      12 -> 17         0.12788

 Excited State  14:      Singlet-A     10.0096 eV  123.87 nm  f=0.0929  <S**2>=0.000
      10 -> 15         0.24521
      11 -> 16        -0.36509
      11 -> 19        -0.17078
      12 -> 16         0.42773
      12 -> 17         0.12475

 Excited State  15:      Singlet-A     10.0718 eV  123.10 nm  f=0.0133  <S**2>=0.000
       7 -> 15        -0.11353
       9 -> 14        -0.13962
      10 -> 15         0.52949
      10 -> 16         0.18584
      11 -> 15        -0.10187
      11 -> 16         0.12705
      12 -> 16        -0.21929
      13 -> 15        -0.13954

 The electronic state is 1-A.
 Alpha  occ. eigenvalues --   -1.71045  -1.12178  -0.92690  -0.78457  -0.76054
 Alpha  occ. eigenvalues --   -0.66296  -0.63446  -0.55078  -0.50377  -0.42942
 Alpha  occ. eigenvalues --   -0.42141  -0.40524  -0.29441
 Alpha virt. eigenvalues --    0.11890   0.18289   0.21237   0.24182   0.26462
 Alpha virt. eigenvalues --    0.27934   0.29277   0.30373   0.35765   0.44443
 Alpha virt. eigenvalues --    0.49029

 Mulliken charges:
               1
     1  C   -0.111805
     2  C   -1.971295
     3  O    3.230116
     4  C   -1.959248
     5  C   -0.157087
     6  H    0.187271
     7  H    0.302371
     8  H    0.296643
     9  H    0.183036
 Sum of Mulliken charges =   0.00000

 Dipole moment (field-independent basis, Debye):
    X=             -1.4982    Y=             -9.9939    Z=              0.7222  Tot=             10.1313
 N-N= 1.038185189809D+02 E-N=-1.688134144615D+02  KE=-1.476322562561D+01
 Orbital energies and kinetic energies (alpha):
                                 1                 2
   1         O                -1.710453         -1.198178
   2         O                -1.121784         -0.979264
   3         O                -0.926895         -0.849496
   4         O                -0.784571         -0.593830
   5         O                -0.760541         -0.685244
   6         O                -0.662960         -0.567782
   7         O                -0.634456         -0.524275

 Normal termination of Gaussian 09 at Tue Dec 15 17:06:01 2015.
