 Gaussian 09, Revision D.01,
 Gaussian 09:  ES64L-G09RevD.01 24-Apr-2013

 ------------------------------------------------------------
 #P AM1(Input,print) CIS(Singlets,NStates=15) pop(full) force
 ------------------------------------------------------------

 -----------------
 AM1-Reparam Input
 -----------------
 Symbolic Z-matrix:
 Charge =  0 Multiplicity = 1

                         Standard orientation:
 ---------------------------------------------------------------------
 Center     Atomic      Atomic             Coordinates (Angstroms)
 Number     Number       Type             X           Y           Z
 ---------------------------------------------------------------------
      1          6           0       -0.611481    1.018234   -0.012699
      2          6           0       -1.096582   -0.170793    0.015960
      3          8           0       -0.181562   -1.109748   -0.010608
      4          6           0        1.017743   -0.505011    0.001332
      5          6           0        0.894040    0.834652    0.013340
      6          1           0        1.602161    1.597933   -0.015683
      7          1           0        1.865715   -1.158445   -0.001804
      8          1           0       -2.192187   -0.563814    0.011929
      9          1           0       -1.045513    1.939813   -0.017174
 ---------------------------------------------------------------------

 SCF Done:  E(RAM1) =   1.78616985160     A.U. after   13 cycles

 Excitation energies and oscillator strengths:

 Excited State   1:      Singlet-A      5.0240 eV  246.78 nm  f=0.3880  <S**2>=0.000
      13 -> 14         0.69812
 This state for optimization and/or second-order correction.
 Total Energy, E(CIS) =   1.97079860762
 Copying the excited state density for this state as the 1-particle RhoCI density.

 Excited State   2:      Singlet-A      6.1502 eV  201.59 nm  f=0.0003  <S**2>=0.000
      13 -> 15         0.68175
      13 -> 17         0.12204

 Excited State   3:      Singlet-A      6.4921 eV  190.98 nm  f=0.0001  <S**2>=0.000
      12 -> 14         0.70326

 Excited State   4:      Singlet-A      6.8437 eV  181.17 nm  f=0.0018  <S**2>=0.000
      13 -> 16         0.66113
      13 -> 17        -0.16964
      13 -> 18         0.11346

 Excited State   5:      Singlet-A      8.0762 eV  153.52 nm  f=0.0007  <S**2>=0.000
      13 -> 16         0.15840
      13 -> 17         0.64279
      13 -> 21         0.18164

 Excited State   6:      Singlet-A      8.1890 eV  151.40 nm  f=0.0076  <S**2>=0.000
      11 -> 14         0.69711

 Excited State   7:      Singlet-A      8.9754 eV  138.14 nm  f=0.0147  <S**2>=0.000
      13 -> 18         0.67757
      13 -> 19        -0.10214

 Excited State   8:      Singlet-A      9.1255 eV  135.87 nm  f=0.1258  <S**2>=0.000
       8 -> 15         0.12735
      10 -> 14        -0.33453
      12 -> 15         0.54758
      12 -> 17         0.18558

 Excited State   9:      Singlet-A      9.3781 eV  132.21 nm  f=0.1656  <S**2>=0.000
      10 -> 14         0.56613
      12 -> 15         0.24688
      12 -> 16        -0.23060
      12 -> 17         0.15426

 Excited State  10:      Singlet-A      9.4987 eV  130.53 nm  f=0.0008  <S**2>=0.000
      13 -> 19         0.68182

 Excited State  11:      Singlet-A      9.9266 eV  124.90 nm  f=0.0307  <S**2>=0.000
      10 -> 14         0.16137
      11 -> 15        -0.18999
      11 -> 18        -0.14839
      12 -> 15         0.30706
      12 -> 16         0.40754
      12 -> 17        -0.32392

 Excited State  12:      Singlet-A     10.4159 eV  119.03 nm  f=0.0626  <S**2>=0.000
      13 -> 17         0.12119
      13 -> 20         0.59035
      13 -> 21        -0.32535

 Excited State  13:      Singlet-A     10.5137 eV  117.93 nm  f=0.0604  <S**2>=0.000
      11 -> 16         0.16813
      11 -> 18         0.13318
      12 -> 16         0.39430
      12 -> 17         0.30980
      12 -> 19         0.13411
      13 -> 20        -0.11524
      13 -> 21        -0.32354

 Excited State  14:      Singlet-A     10.5367 eV  117.67 nm  f=0.0498  <S**2>=0.000
      12 -> 16         0.21857
      12 -> 17         0.18769
      13 -> 17        -0.11027
      13 -> 20         0.33464
      13 -> 21         0.48613

 Excited State  15:      Singlet-A     10.8401 eV  114.38 nm  f=0.0237  <S**2>=0.000
       8 -> 15         0.18682
       9 -> 14        -0.17789
       9 -> 15         0.26427
      10 -> 15        -0.21215
      11 -> 15         0.41643
      11 -> 19        -0.13659
      12 -> 17        -0.19783
      12 -> 18        -0.17362

 The electronic state is 1-A.
 Alpha  occ. eigenvalues --   -1.92955  -1.17604  -0.93692  -0.83367  -0.77809
 Alpha  occ. eigenvalues --   -0.70456  -0.69085  -0.56551  -0.54646  -0.47995
 Alpha  occ. eigenvalues --   -0.46502  -0.40756  -0.28762
 Alpha virt. eigenvalues --    0.09700   0.15529   0.19117   0.27560   0.28668
 Alpha virt. eigenvalues --    0.31053   0.33420   0.35468   0.35924   0.44499
 Alpha virt. eigenvalues --    0.48419

 Mulliken charges:
               1
     1  C   -0.206750
     2  C   -1.984354
     3  O    3.283890
     4  C   -2.003186
     5  C   -0.183064
     6  H    0.205614
     7  H    0.332337
     8  H    0.347252
     9  H    0.208261
 Sum of Mulliken charges =   0.00000

 Dipole moment (field-independent basis, Debye):
    X=             -2.2773    Y=            -10.5720    Z=             -0.3057  Tot=             10.8189
 N-N= 1.044999256532D+02 E-N=-1.702836027318D+02  KE=-1.554030033729D+01
 Orbital energies and kinetic energies (alpha):
                                 1                 2
   1         O                -1.929551         -1.406527
   2         O                -1.176036         -1.048978
   3         O                -0.936925         -0.891514
   4         O                -0.833670         -0.573082
   5         O                -0.778089         -0.695932
   6         O                -0.704561         -0.580985
   7         O                -0.690850         -0.541564

 Normal termination of Gaussian 09 at Tue Dec 15 17:09:33 2015.
