 Gaussian 09, Revision D.01,
 Gaussian 09:  ES64L-G09RevD.01 24-Apr-2013

 ------------------------------------------------------------
 #P AM1(Input,print) CIS(Singlets,NStates=15) pop(full) force
 ------------------------------------------------------------

 -----------------
 AM1-Reparam Input
 -----------------
 Symbolic Z-matrix:
 Charge =  0 Multiplicity = 1

                         Standard orientation:
 ---------------------------------------------------------------------
 Center     Atomic      Atomic             Coordinates (Angstroms)
 Number     Number       Type             X           Y           Z
 ---------------------------------------------------------------------
      1          6           0       -0.281351    1.148219   -0.011564
      2          6           0       -1.110725    0.093769    0.001486
      3          8           0       -0.445888   -1.085625   -0.008252
      4          6           0        0.885337   -0.704822   -0.005958
      5          6           0        1.004143    0.621537    0.018903
      6          1           0        1.947620    1.175873   -0.023501
      7          1           0        1.577096   -1.497072    0.026344
      8          1           0       -2.272191   -0.085348    0.053848
      9          1           0       -0.669843    2.139323   -0.007879
 ---------------------------------------------------------------------

 SCF Done:  E(RAM1) =   2.57303421208     A.U. after   13 cycles

 Excitation energies and oscillator strengths:

 Excited State   1:      Singlet-A      5.4898 eV  225.84 nm  f=0.3218  <S**2>=0.000
      11 -> 17         0.10385
      13 -> 14         0.69238
 This state for optimization and/or second-order correction.
 Total Energy, E(CIS) =   2.77478174886
 Copying the excited state density for this state as the 1-particle RhoCI density.

 Excited State   2:      Singlet-A      5.8918 eV  210.43 nm  f=0.0023  <S**2>=0.000
      10 -> 15         0.12882
      13 -> 15         0.67674
      13 -> 17        -0.11795

 Excited State   3:      Singlet-A      6.6049 eV  187.72 nm  f=0.0018  <S**2>=0.000
      10 -> 16        -0.12364
      13 -> 16         0.66475
      13 -> 17        -0.12981
      13 -> 19         0.12175

 Excited State   4:      Singlet-A      7.1559 eV  173.26 nm  f=0.0002  <S**2>=0.000
       9 -> 14         0.10672
      12 -> 14         0.69522

 Excited State   5:      Singlet-A      7.7879 eV  159.20 nm  f=0.0113  <S**2>=0.000
      11 -> 14         0.61016
      13 -> 17        -0.31155

 Excited State   6:      Singlet-A      7.9688 eV  155.59 nm  f=0.0030  <S**2>=0.000
      11 -> 14         0.32995
      13 -> 17         0.52504
      13 -> 18        -0.21698
      13 -> 19         0.13260
      13 -> 21        -0.15279

 Excited State   7:      Singlet-A      8.2249 eV  150.74 nm  f=0.0044  <S**2>=0.000
      10 -> 16        -0.10204
      13 -> 16         0.10238
      13 -> 17         0.27322
      13 -> 18         0.54991
      13 -> 21         0.29626

 Excited State   8:      Singlet-A      8.8610 eV  139.92 nm  f=0.0000  <S**2>=0.000
      13 -> 18         0.18435
      13 -> 19         0.64865

 Excited State   9:      Singlet-A      8.8867 eV  139.52 nm  f=0.0447  <S**2>=0.000
       8 -> 15        -0.12808
      10 -> 14         0.57510
      11 -> 15        -0.11853
      12 -> 15        -0.33263

 Excited State  10:      Singlet-A      9.1055 eV  136.16 nm  f=0.1080  <S**2>=0.000
       8 -> 15         0.13473
       8 -> 16         0.10056
      10 -> 14         0.32490
      11 -> 17         0.11307
      12 -> 15         0.50026
      12 -> 16        -0.17973
      12 -> 18         0.12317

 Excited State  11:      Singlet-A      9.3599 eV  132.46 nm  f=0.0416  <S**2>=0.000
       9 -> 15        -0.21798
      10 -> 14         0.12055
      10 -> 15         0.18209
      11 -> 15         0.46390
      11 -> 16         0.13255
      11 -> 17        -0.25444
      12 -> 16         0.11812
      12 -> 18        -0.18296

 Excited State  12:      Singlet-A      9.4124 eV  131.72 nm  f=0.0049  <S**2>=0.000
       7 -> 15        -0.12895
      10 -> 15         0.61580
      11 -> 15        -0.14331
      13 -> 15        -0.15021

 Excited State  13:      Singlet-A      9.6892 eV  127.96 nm  f=0.0007  <S**2>=0.000
      10 -> 15         0.13428
      13 -> 18        -0.31027
      13 -> 19         0.10732
      13 -> 21         0.60055

 Excited State  14:      Singlet-A      9.8621 eV  125.72 nm  f=0.1634  <S**2>=0.000
       9 -> 16        -0.13397
      11 -> 16        -0.32858
      11 -> 17         0.13649
      11 -> 19        -0.12153
      12 -> 16         0.49614
      12 -> 17        -0.17533
      12 -> 18         0.13072

 Excited State  15:      Singlet-A      9.9527 eV  124.57 nm  f=0.1052  <S**2>=0.000
       8 -> 15         0.16509
       8 -> 16        -0.13581
       9 -> 15         0.13428
      10 -> 14         0.16011
      11 -> 15        -0.21887
      11 -> 16         0.10417
      11 -> 18         0.11876
      11 -> 19         0.14915
      12 -> 15         0.17793
      12 -> 16         0.33711
      12 -> 17         0.16576
      12 -> 18        -0.19422
      13 -> 20         0.22230

 The electronic state is 1-A.
 Alpha  occ. eigenvalues --   -1.73828  -1.17442  -0.94621  -0.80849  -0.75637
 Alpha  occ. eigenvalues --   -0.67025  -0.64614  -0.53333  -0.49994  -0.43157
 Alpha  occ. eigenvalues --   -0.42380  -0.40305  -0.28307
 Alpha virt. eigenvalues --    0.13061   0.15205   0.19212   0.25778   0.28492
 Alpha virt. eigenvalues --    0.29845   0.32558   0.33958   0.38967   0.48787
 Alpha virt. eigenvalues --    0.52291

 Mulliken charges:
               1
     1  C   -0.086546
     2  C   -1.901454
     3  O    3.214827
     4  C   -1.906443
     5  C   -0.040902
     6  H    0.111312
     7  H    0.247001
     8  H    0.245145
     9  H    0.117061
 Sum of Mulliken charges =   0.00000

 Dipole moment (field-independent basis, Debye):
    X=             -4.5099    Y=            -10.3709    Z=              0.0469  Tot=             11.3091
 N-N= 1.040075056435D+02 E-N=-1.691836595752D+02  KE=-1.505542968868D+01
 Orbital energies and kinetic energies (alpha):
                                 1                 2
   1         O                -1.738284         -1.237211
   2         O                -1.174418         -1.030816
   3         O                -0.946208         -0.873393
   4         O                -0.808494         -0.611059
   5         O                -0.756370         -0.667640
   6         O                -0.670255         -0.574569
   7         O                -0.646139         -0.531551

 Normal termination of Gaussian 09 at Tue Dec 15 17:06:19 2015.
