 Gaussian 09, Revision D.01,
 Gaussian 09:  ES64L-G09RevD.01 24-Apr-2013

 ------------------------------------------------------------
 #P AM1(Input,print) CIS(Singlets,NStates=15) pop(full) force
 ------------------------------------------------------------

 -----------------
 AM1-Reparam Input
 -----------------
 Symbolic Z-matrix:
 Charge =  0 Multiplicity = 1

                         Standard orientation:
 ---------------------------------------------------------------------
 Center     Atomic      Atomic             Coordinates (Angstroms)
 Number     Number       Type             X           Y           Z
 ---------------------------------------------------------------------
      1          6           0       -0.937434    0.729833   -0.021719
      2          6           0       -0.962978   -0.593631    0.027571
      3          8           0        0.283689   -1.138888   -0.009341
      4          6           0        1.131678   -0.042859    0.014813
      5          6           0        0.467148    1.095240   -0.003600
      6          1           0        0.883264    2.063284    0.038627
      7          1           0        2.221465   -0.377353   -0.046116
      8          1           0       -1.789787   -1.219029   -0.025289
      9          1           0       -1.774941    1.512701    0.005117
 ---------------------------------------------------------------------

 SCF Done:  E(RAM1) =   2.14973817195     A.U. after   13 cycles

 Excitation energies and oscillator strengths:

 Excited State   1:      Singlet-A      5.3368 eV  232.32 nm  f=0.3553  <S**2>=0.000
      13 -> 14         0.69663
 This state for optimization and/or second-order correction.
 Total Energy, E(CIS) =   2.34586016975
 Copying the excited state density for this state as the 1-particle RhoCI density.

 Excited State   2:      Singlet-A      6.0087 eV  206.34 nm  f=0.0003  <S**2>=0.000
      10 -> 15         0.10929
      13 -> 15         0.67907
      13 -> 19        -0.10487

 Excited State   3:      Singlet-A      6.3519 eV  195.19 nm  f=0.0015  <S**2>=0.000
      10 -> 16        -0.10077
      13 -> 16         0.67565
      13 -> 18        -0.10832

 Excited State   4:      Singlet-A      7.0529 eV  175.79 nm  f=0.0002  <S**2>=0.000
      12 -> 14         0.70084

 Excited State   5:      Singlet-A      7.7853 eV  159.25 nm  f=0.0012  <S**2>=0.000
      13 -> 17         0.52284
      13 -> 18        -0.30618
      13 -> 19         0.20973
      13 -> 22        -0.23793

 Excited State   6:      Singlet-A      8.1062 eV  152.95 nm  f=0.0089  <S**2>=0.000
      10 -> 14        -0.13400
      11 -> 14         0.47953
      13 -> 17         0.25153
      13 -> 18         0.36967
      13 -> 19        -0.11303
      13 -> 22         0.14158

 Excited State   7:      Singlet-A      8.2901 eV  149.56 nm  f=0.0004  <S**2>=0.000
      10 -> 14        -0.11795
      11 -> 14         0.47224
      13 -> 17        -0.34750
      13 -> 18        -0.32856
      13 -> 22        -0.11107

 Excited State   8:      Singlet-A      8.8386 eV  140.28 nm  f=0.0059  <S**2>=0.000
      13 -> 17        -0.12383
      13 -> 18         0.29376
      13 -> 19         0.61479

 Excited State   9:      Singlet-A      8.9783 eV  138.09 nm  f=0.0334  <S**2>=0.000
      10 -> 14         0.57801
      11 -> 14         0.15121
      12 -> 15        -0.22163
      13 -> 20         0.23187

 Excited State  10:      Singlet-A      9.3437 eV  132.69 nm  f=0.1206  <S**2>=0.000
       8 -> 15         0.11590
       9 -> 16         0.10517
      10 -> 14         0.14215
      11 -> 17        -0.11013
      12 -> 15         0.49499
      12 -> 16        -0.28525
      12 -> 17        -0.12401
      12 -> 18         0.14381
      12 -> 19        -0.10919

 Excited State  11:      Singlet-A      9.4673 eV  130.96 nm  f=0.0218  <S**2>=0.000
      12 -> 15        -0.10195
      13 -> 18        -0.21817
      13 -> 19         0.14891
      13 -> 20        -0.13270
      13 -> 21        -0.33782
      13 -> 22         0.51047

 Excited State  12:      Singlet-A      9.7362 eV  127.34 nm  f=0.0741  <S**2>=0.000
      13 -> 20         0.26597
      13 -> 21         0.50705
      13 -> 22         0.36136

 Excited State  13:      Singlet-A      9.8500 eV  125.87 nm  f=0.0441  <S**2>=0.000
      10 -> 14         0.10484
      11 -> 15        -0.29192
      11 -> 17         0.17360
      12 -> 15         0.28526
      12 -> 16         0.40231
      12 -> 17         0.10260
      12 -> 18        -0.19279
      13 -> 20         0.15346
      13 -> 21        -0.11789

 Excited State  14:      Singlet-A      9.9499 eV  124.61 nm  f=0.1557  <S**2>=0.000
      10 -> 14        -0.27846
      12 -> 15        -0.12277
      12 -> 16        -0.13201
      13 -> 20         0.54374
      13 -> 21        -0.25076

 Excited State  15:      Singlet-A     10.1088 eV  122.65 nm  f=0.0095  <S**2>=0.000
       7 -> 15        -0.11451
      10 -> 15         0.56083
      11 -> 15         0.18275
      11 -> 16         0.13833
      12 -> 16         0.21645
      13 -> 15        -0.12363

 The electronic state is 1-A.
 Alpha  occ. eigenvalues --   -1.93585  -1.19526  -0.93496  -0.80111  -0.78290
 Alpha  occ. eigenvalues --   -0.69182  -0.65949  -0.54076  -0.53167  -0.44329
 Alpha  occ. eigenvalues --   -0.43811  -0.40242  -0.27420
 Alpha virt. eigenvalues --    0.12567   0.16871   0.19025   0.26363   0.28210
 Alpha virt. eigenvalues --    0.30662   0.31296   0.32095   0.33609   0.40090
 Alpha virt. eigenvalues --    0.43521

 Mulliken charges:
               1
     1  C   -0.171447
     2  C   -1.873903
     3  O    3.196064
     4  C   -1.835700
     5  C   -0.143871
     6  H    0.152062
     7  H    0.247751
     8  H    0.272541
     9  H    0.156503
 Sum of Mulliken charges =   0.00000

 Dipole moment (field-independent basis, Debye):
    X=              2.7293    Y=            -11.0167    Z=             -0.5444  Tot=             11.3628
 N-N= 1.041597210406D+02 E-N=-1.694315774024D+02  KE=-1.532469997170D+01
 Orbital energies and kinetic energies (alpha):
                                 1                 2
   1         O                -1.935854         -1.356582
   2         O                -1.195261         -1.057118
   3         O                -0.934957         -0.891098
   4         O                -0.801107         -0.560161
   5         O                -0.782904         -0.687881
   6         O                -0.691820         -0.577338
   7         O                -0.659487         -0.534302

 Normal termination of Gaussian 09 at Tue Dec 15 17:09:30 2015.
