 Gaussian 09, Revision D.01,
 Gaussian 09:  ES64L-G09RevD.01 24-Apr-2013

 -------------------------------------------------------
 #P B3LYP/3-21G CIS(Singlets,NStates=15) pop(full) force
 -------------------------------------------------------

 --------
 FuranDFT
 --------
 Symbolic Z-matrix:
 Charge =  0 Multiplicity = 1

                         Standard orientation:
 ---------------------------------------------------------------------
 Center     Atomic      Atomic             Coordinates (Angstroms)
 Number     Number       Type             X           Y           Z
 ---------------------------------------------------------------------
      1          6           0       -1.158379    0.268987    0.024399
      2          6           0       -0.594766   -0.916088    0.019218
      3          8           0        0.769663   -0.928633   -0.014536
      4          6           0        1.047387    0.466421   -0.002715
      5          6           0       -0.099143    1.174056   -0.022885
      6          1           0       -0.130116    2.278516    0.031869
      7          1           0        2.082167    0.677807    0.071047
      8          1           0       -1.035090   -1.957870   -0.020945
      9          1           0       -2.244857    0.470356   -0.073788
 ---------------------------------------------------------------------

 SCF Done:  E(RB3LYP) =  -228.738164802     A.U. after   14 cycles

 Excitation energies and oscillator strengths:

 Excited State   1:      Singlet-A      7.1339 eV  173.79 nm  f=0.1972  <S**2>=0.000
      18 -> 19         0.67633
 This state for optimization and/or second-order correction.
 Total Energy, E(CIS) =  -228.475997240
 Copying the excited state density for this state as the 1-particle RhoCI density.

 Excited State   2:      Singlet-A      7.4867 eV  165.61 nm  f=0.0046  <S**2>=0.000
      17 -> 19         0.50343
      18 -> 20         0.47474

 Excited State   3:      Singlet-A      8.1931 eV  151.33 nm  f=0.0040  <S**2>=0.000
      17 -> 19         0.10400
      18 -> 20        -0.11540
      18 -> 21         0.68079

 Excited State   4:      Singlet-A      9.0680 eV  136.73 nm  f=0.0057  <S**2>=0.000
      16 -> 19         0.68822
      18 -> 22        -0.11797

 Excited State   5:      Singlet-A      9.0999 eV  136.25 nm  f=0.0006  <S**2>=0.000
      16 -> 19         0.10276
      18 -> 22         0.66570
      18 -> 23        -0.11731

 Excited State   6:      Singlet-A      9.5910 eV  129.27 nm  f=0.0159  <S**2>=0.000
      17 -> 20        -0.37056
      17 -> 21         0.55227
      18 -> 22        -0.11232
      18 -> 23        -0.15113

 Excited State   7:      Singlet-A      9.7849 eV  126.71 nm  f=0.1923  <S**2>=0.000
      17 -> 19        -0.26975
      17 -> 20        -0.28126
      18 -> 20         0.29329
      18 -> 21         0.10127
      18 -> 23         0.42478
      18 -> 24        -0.13404

 Excited State   8:      Singlet-A      9.9023 eV  125.21 nm  f=0.0574  <S**2>=0.000
      15 -> 19         0.61293
      17 -> 19        -0.14364
      18 -> 20         0.15288
      18 -> 23        -0.20328
      18 -> 24        -0.10152

 Excited State   9:      Singlet-A      9.9844 eV  124.18 nm  f=0.1185  <S**2>=0.000
      15 -> 19         0.30223
      17 -> 19         0.19110
      17 -> 20         0.15714
      17 -> 21         0.22291
      18 -> 20        -0.20575
      18 -> 23         0.45111

 Excited State  10:      Singlet-A     10.1054 eV  122.69 nm  f=0.2326  <S**2>=0.000
      14 -> 19        -0.13034
      17 -> 19        -0.19870
      17 -> 20         0.44541
      17 -> 21         0.32836
      18 -> 20         0.23878
      18 -> 24         0.13781

 Excited State  11:      Singlet-A     10.2024 eV  121.52 nm  f=0.0104  <S**2>=0.000
      14 -> 19         0.25937
      18 -> 24         0.61989

 Excited State  12:      Singlet-A     10.3108 eV  120.25 nm  f=0.0218  <S**2>=0.000
      14 -> 19         0.59912
      15 -> 19        -0.11112
      17 -> 20         0.11583
      18 -> 23        -0.10027
      18 -> 24        -0.23266

 Excited State  13:      Singlet-A     10.5286 eV  117.76 nm  f=0.0069  <S**2>=0.000
      13 -> 19         0.15589
      17 -> 22         0.66572

 Excited State  14:      Singlet-A     10.6818 eV  116.07 nm  f=0.0040  <S**2>=0.000
      13 -> 19         0.64909
      14 -> 19         0.11614
      16 -> 20         0.12103
      17 -> 22        -0.15388

 Excited State  15:      Singlet-A     10.7554 eV  115.28 nm  f=0.0228  <S**2>=0.000
      18 -> 25         0.67439

 The electronic state is 1-A.
 Alpha  occ. eigenvalues --  -19.11265 -10.17535 -10.17219 -10.12954 -10.12319
 Alpha  occ. eigenvalues --   -1.11508  -0.82594  -0.74136  -0.59763  -0.57014
 Alpha  occ. eigenvalues --   -0.54149  -0.44502  -0.42866  -0.41542  -0.40249
 Alpha  occ. eigenvalues --   -0.37401  -0.28789  -0.23411
 Alpha virt. eigenvalues --    0.01717   0.08863   0.11566   0.14591   0.17495
 Alpha virt. eigenvalues --    0.17890   0.20584   0.23335   0.34912   0.43972
 Alpha virt. eigenvalues --    0.47264   0.67102   0.69770   0.71662   0.76369

 Mulliken charges:
               1
     1  C   -0.236832
     2  C    0.098239
     3  O   -0.461207
     4  C    0.042765
     5  C   -0.245997
     6  H    0.191462
     7  H    0.215201
     8  H    0.204025
     9  H    0.192343
 Sum of Mulliken charges =   0.00000

 Dipole moment (field-independent basis, Debye):
    X=             -0.5680    Y=              0.7364    Z=              0.0205  Tot=              0.9302
 Quadrupole moment (field-independent basis, Debye-Ang):
   XX=            -25.5094   YY=            -26.5870   ZZ=            -31.7344
   XY=              2.1323   XZ=              0.4487   YZ=              0.1654

 Normal termination of Gaussian 09 at Tue Dec 15 16:22:16 2015.
