 Gaussian 09, Revision D.01,
 Gaussian 09:  ES64L-G09RevD.01 24-Apr-2013

 ------------------------------------------------------------
 #P AM1(Input,print) CIS(Singlets,NStates=15) pop(full) force
 ------------------------------------------------------------

 -----------------
 AM1-Reparam Input
 -----------------
 Symbolic Z-matrix:
 Charge =  0 Multiplicity = 1

                         Standard orientation:
 ---------------------------------------------------------------------
 Center     Atomic      Atomic             Coordinates (Angstroms)
 Number     Number       Type             X           Y           Z
 ---------------------------------------------------------------------
      1          6           0        0.700864    0.934248    0.006277
      2          6           0        1.108697   -0.337469   -0.004001
      3          8           0       -0.050307   -1.160973    0.005780
      4          6           0       -1.054767   -0.310436   -0.002874
      5          6           0       -0.677206    0.937314   -0.016136
      6          1           0       -1.415149    1.774369    0.062262
      7          1           0       -2.004087   -0.779762   -0.004379
      8          1           0        2.035659   -0.859894    0.004256
      9          1           0        1.320507    1.811136   -0.007975
 ---------------------------------------------------------------------

 SCF Done:  E(RAM1) =   2.89205098564     A.U. after   14 cycles

 Excitation energies and oscillator strengths:

 Excited State   1:      Singlet-A      5.4222 eV  228.66 nm  f=0.3124  <S**2>=0.000
      11 -> 17        -0.10439
      13 -> 14         0.69238
 This state for optimization and/or second-order correction.
 Total Energy, E(CIS) =   3.09131391535
 Copying the excited state density for this state as the 1-particle RhoCI density.

 Excited State   2:      Singlet-A      6.0994 eV  203.27 nm  f=0.0019  <S**2>=0.000
      10 -> 15         0.11956
      13 -> 15         0.66464
      13 -> 17         0.16750

 Excited State   3:      Singlet-A      6.8808 eV  180.19 nm  f=0.0032  <S**2>=0.000
      10 -> 16        -0.12310
      12 -> 14        -0.18189
      13 -> 16         0.61693
      13 -> 17         0.15140
      13 -> 18        -0.12752
      13 -> 19         0.11981

 Excited State   4:      Singlet-A      6.9471 eV  178.47 nm  f=0.0001  <S**2>=0.000
       9 -> 14         0.10794
      12 -> 14         0.66872
      13 -> 16         0.17596

 Excited State   5:      Singlet-A      7.6428 eV  162.22 nm  f=0.0159  <S**2>=0.000
      11 -> 14         0.48348
      13 -> 15        -0.13189
      13 -> 17         0.45059
      13 -> 18         0.11088

 Excited State   6:      Singlet-A      7.7908 eV  159.14 nm  f=0.0019  <S**2>=0.000
      11 -> 14         0.50135
      13 -> 15         0.11060
      13 -> 17        -0.43457
      13 -> 18        -0.14806

 Excited State   7:      Singlet-A      7.9975 eV  155.03 nm  f=0.0014  <S**2>=0.000
      10 -> 16        -0.11122
      13 -> 16         0.14846
      13 -> 17        -0.19997
      13 -> 18         0.48220
      13 -> 21        -0.40951

 Excited State   8:      Singlet-A      8.6673 eV  143.05 nm  f=0.0011  <S**2>=0.000
      13 -> 16        -0.13424
      13 -> 19         0.66177

 Excited State   9:      Singlet-A      8.7881 eV  141.08 nm  f=0.0636  <S**2>=0.000
      10 -> 14         0.65254
      12 -> 15        -0.11976

 Excited State  10:      Singlet-A      9.0927 eV  136.36 nm  f=0.0115  <S**2>=0.000
      12 -> 15         0.19758
      13 -> 18         0.40274
      13 -> 19         0.11860
      13 -> 20        -0.23883
      13 -> 21         0.42863

 Excited State  11:      Singlet-A      9.1356 eV  135.72 nm  f=0.0274  <S**2>=0.000
       8 -> 15         0.13814
      11 -> 17        -0.16191
      12 -> 15         0.52123
      12 -> 16        -0.13412
      12 -> 18         0.18871
      13 -> 18        -0.16189
      13 -> 21        -0.18973

 Excited State  12:      Singlet-A      9.3707 eV  132.31 nm  f=0.0814  <S**2>=0.000
       9 -> 15        -0.19526
      10 -> 14         0.14565
      11 -> 15         0.44411
      11 -> 17         0.29501
      12 -> 15         0.19334
      12 -> 17         0.10252
      12 -> 18        -0.15335
      13 -> 20         0.11156

 Excited State  13:      Singlet-A      9.4921 eV  130.62 nm  f=0.0883  <S**2>=0.000
      10 -> 15         0.10801
      13 -> 20         0.62129
      13 -> 21         0.24141

 Excited State  14:      Singlet-A      9.7701 eV  126.90 nm  f=0.0035  <S**2>=0.000
       7 -> 15        -0.14481
      10 -> 15         0.63551
      13 -> 15        -0.14378

 Excited State  15:      Singlet-A      9.9520 eV  124.58 nm  f=0.1609  <S**2>=0.000
       8 -> 16        -0.10501
      10 -> 14         0.11208
      11 -> 16        -0.18287
      12 -> 16         0.59056
      12 -> 20        -0.13040

 The electronic state is 1-A.
 Alpha  occ. eigenvalues --   -1.72812  -1.14149  -0.93358  -0.79091  -0.75492
 Alpha  occ. eigenvalues --   -0.66443  -0.64666  -0.52955  -0.49553  -0.42652
 Alpha  occ. eigenvalues --   -0.41728  -0.39358  -0.27915
 Alpha virt. eigenvalues --    0.13197   0.17206   0.20932   0.25026   0.28025
 Alpha virt. eigenvalues --    0.29168   0.30685   0.32285   0.36680   0.46044
 Alpha virt. eigenvalues --    0.49291

 Mulliken charges:
               1
     1  C   -0.082839
     2  C   -1.925270
     3  O    3.203730
     4  C   -1.936140
     5  C   -0.194084
     6  H    0.181045
     7  H    0.298386
     8  H    0.284095
     9  H    0.171078
 Sum of Mulliken charges =   0.00000

 Dipole moment (field-independent basis, Debye):
    X=             -1.1427    Y=            -10.8547    Z=              0.1972  Tot=             10.9165
 N-N= 1.046774578603D+02 E-N=-1.703242678213D+02  KE=-1.484310712068D+01
 Orbital energies and kinetic energies (alpha):
                                 1                 2
   1         O                -1.728123         -1.225346
   2         O                -1.141492         -1.003837
   3         O                -0.933575         -0.862289
   4         O                -0.790909         -0.590708
   5         O                -0.754916         -0.679444
   6         O                -0.664431         -0.562939
   7         O                -0.646664         -0.533169

 Normal termination of Gaussian 09 at Tue Dec 15 17:06:05 2015.
