 Gaussian 09, Revision D.01,
 Gaussian 09:  ES64L-G09RevD.01 24-Apr-2013

 ------------------------------------------------------------
 #P AM1(Input,print) CIS(Singlets,NStates=15) pop(full) force
 ------------------------------------------------------------

 -----------------
 AM1-Reparam Input
 -----------------
 Symbolic Z-matrix:
 Charge =  0 Multiplicity = 1

                         Standard orientation:
 ---------------------------------------------------------------------
 Center     Atomic      Atomic             Coordinates (Angstroms)
 Number     Number       Type             X           Y           Z
 ---------------------------------------------------------------------
      1          6           0       -0.970438    0.756641   -0.000216
      2          6           0       -0.964119   -0.659446    0.018662
      3          8           0        0.356775   -1.098251   -0.032885
      4          6           0        1.120594   -0.024233    0.048534
      5          6           0        0.427731    1.087000   -0.030332
      6          1           0        0.845592    2.120693   -0.014245
      7          1           0        2.155566   -0.269430    0.017029
      8          1           0       -1.711403   -1.383731    0.010699
      9          1           0       -1.826562    1.358707    0.029712
 ---------------------------------------------------------------------

 SCF Done:  E(RAM1) =   2.61254060372     A.U. after   13 cycles

 Excitation energies and oscillator strengths:

 Excited State   1:      Singlet-A      5.0772 eV  244.20 nm  f=0.3573  <S**2>=0.000
      13 -> 14         0.69880
 This state for optimization and/or second-order correction.
 Total Energy, E(CIS) =   2.79912490130
 Copying the excited state density for this state as the 1-particle RhoCI density.

 Excited State   2:      Singlet-A      6.0647 eV  204.44 nm  f=0.0007  <S**2>=0.000
      13 -> 15         0.66922
      13 -> 18         0.12394

 Excited State   3:      Singlet-A      6.5435 eV  189.48 nm  f=0.0009  <S**2>=0.000
      12 -> 14         0.68586
      13 -> 16         0.12670

 Excited State   4:      Singlet-A      6.6299 eV  187.01 nm  f=0.0031  <S**2>=0.000
      12 -> 14        -0.11786
      13 -> 15         0.11205
      13 -> 16         0.65373
      13 -> 17        -0.11607

 Excited State   5:      Singlet-A      7.4337 eV  166.79 nm  f=0.0057  <S**2>=0.000
      10 -> 14         0.65222
      11 -> 14        -0.24291

 Excited State   6:      Singlet-A      7.9062 eV  156.82 nm  f=0.0004  <S**2>=0.000
      13 -> 16         0.11090
      13 -> 17         0.66040
      13 -> 18         0.11517
      13 -> 21        -0.12356

 Excited State   7:      Singlet-A      8.3419 eV  148.63 nm  f=0.1211  <S**2>=0.000
      10 -> 14         0.23839
      11 -> 14         0.65412

 Excited State   8:      Singlet-A      9.0722 eV  136.66 nm  f=0.0063  <S**2>=0.000
       7 -> 15         0.10816
      11 -> 15        -0.26043
      13 -> 17        -0.12408
      13 -> 18         0.61071

 Excited State   9:      Singlet-A      9.2599 eV  133.89 nm  f=0.1296  <S**2>=0.000
       8 -> 15        -0.10172
      12 -> 15         0.58711
      12 -> 16        -0.20557
      12 -> 17         0.18998

 Excited State  10:      Singlet-A      9.4462 eV  131.25 nm  f=0.0839  <S**2>=0.000
       9 -> 15        -0.14397
      10 -> 15        -0.29231
      10 -> 16        -0.12039
      10 -> 18        -0.18432
      11 -> 15         0.13220
      12 -> 15         0.30946
      12 -> 16         0.28844
      12 -> 17        -0.30781
      12 -> 18         0.11046

 Excited State  11:      Singlet-A      9.5776 eV  129.45 nm  f=0.0036  <S**2>=0.000
       7 -> 16         0.11318
      11 -> 16         0.42773
      13 -> 19         0.52411

 Excited State  12:      Singlet-A      9.9292 eV  124.87 nm  f=0.0019  <S**2>=0.000
       7 -> 15        -0.14082
      10 -> 15         0.13983
      11 -> 15         0.58461
      13 -> 15        -0.15268
      13 -> 18         0.24610

 Excited State  13:      Singlet-A     10.2364 eV  121.12 nm  f=0.1789  <S**2>=0.000
      10 -> 15        -0.15751
      10 -> 16         0.51304
      10 -> 19         0.16275
      11 -> 16        -0.16183
      12 -> 16         0.27321
      12 -> 17         0.15195
      13 -> 19         0.12704

 Excited State  14:      Singlet-A     10.4085 eV  119.12 nm  f=0.0115  <S**2>=0.000
       8 -> 15        -0.18070
       8 -> 16         0.17275
       9 -> 14        -0.10083
       9 -> 15         0.12024
       9 -> 16         0.15007
      10 -> 15         0.24980
      10 -> 17        -0.19129
      10 -> 19        -0.12341
      11 -> 16         0.10777
      12 -> 16         0.38904
      12 -> 17         0.18057
      12 -> 18        -0.14191

 Excited State  15:      Singlet-A     10.4554 eV  118.58 nm  f=0.0118  <S**2>=0.000
       9 -> 14         0.37285
      10 -> 15         0.13319
      10 -> 16        -0.18678
      11 -> 16        -0.35566
      13 -> 16        -0.12078
      13 -> 18         0.12783
      13 -> 19         0.31443

 The electronic state is 1-A.
 Alpha  occ. eigenvalues --   -1.85404  -1.12321  -0.88754  -0.79868  -0.74661
 Alpha  occ. eigenvalues --   -0.67139  -0.63627  -0.55752  -0.55119  -0.45298
 Alpha  occ. eigenvalues --   -0.44573  -0.42599  -0.30192
 Alpha virt. eigenvalues --    0.08482   0.15340   0.18391   0.25159   0.27476
 Alpha virt. eigenvalues --    0.29843   0.35475   0.39738   0.48466   0.56058
 Alpha virt. eigenvalues --    0.60063

 Mulliken charges:
               1
     1  C   -0.136584
     2  C   -2.001870
     3  O    3.430973
     4  C   -1.976982
     5  C   -0.226657
     6  H    0.203281
     7  H    0.269176
     8  H    0.259068
     9  H    0.179596
 Sum of Mulliken charges =   0.00000

 Dipole moment (field-independent basis, Debye):
    X=              4.1512    Y=            -10.4988    Z=             -0.9784  Tot=             11.3320
 N-N= 1.040881464092D+02 E-N=-1.696780849151D+02  KE=-1.436697097516D+01
 Orbital energies and kinetic energies (alpha):
                                 1                 2
   1         O                -1.854044         -1.254567
   2         O                -1.123206         -0.962006
   3         O                -0.887544         -0.779167
   4         O                -0.798685         -0.551093
   5         O                -0.746608         -0.625530
   6         O                -0.671393         -0.544178
   7         O                -0.636272         -0.494264

 Normal termination of Gaussian 09 at Tue Dec 15 17:07:35 2015.
