 Gaussian 09, Revision D.01,
 Gaussian 09:  ES64L-G09RevD.01 24-Apr-2013

 ------------------------------------------------------------
 #P AM1(Input,print) CIS(Singlets,NStates=15) pop(full) force
 ------------------------------------------------------------

 -----------------
 AM1-Reparam Input
 -----------------
 Symbolic Z-matrix:
 Charge =  0 Multiplicity = 1

                         Standard orientation:
 ---------------------------------------------------------------------
 Center     Atomic      Atomic             Coordinates (Angstroms)
 Number     Number       Type             X           Y           Z
 ---------------------------------------------------------------------
      1          6           0        0.793690    0.909031   -0.010062
      2          6           0        1.055359   -0.510029    0.011774
      3          8           0       -0.149891   -1.129275   -0.013064
      4          6           0       -1.121935   -0.230682   -0.006400
      5          6           0       -0.571771    1.008855    0.009104
      6          1           0       -1.136870    2.020088    0.001615
      7          1           0       -2.183792   -0.585309    0.049894
      8          1           0        1.969325   -1.125736    0.039170
      9          1           0        1.618412    1.662100   -0.012663
 ---------------------------------------------------------------------

 SCF Done:  E(RAM1) =   1.68304435330     A.U. after   13 cycles

 Excitation energies and oscillator strengths:

 Excited State   1:      Singlet-A      5.8564 eV  211.71 nm  f=0.3304  <S**2>=0.000
      13 -> 14         0.68791
 This state for optimization and/or second-order correction.
 Total Energy, E(CIS) =   1.89826295106
 Copying the excited state density for this state as the 1-particle RhoCI density.

 Excited State   2:      Singlet-A      7.2777 eV  170.36 nm  f=0.0025  <S**2>=0.000
      12 -> 14         0.69582

 Excited State   3:      Singlet-A      7.4805 eV  165.74 nm  f=0.0050  <S**2>=0.000
      10 -> 15         0.10649
      13 -> 15         0.62482
      13 -> 16         0.22056
      13 -> 17        -0.14299

 Excited State   4:      Singlet-A      7.7529 eV  159.92 nm  f=0.0019  <S**2>=0.000
      11 -> 14         0.12096
      13 -> 15        -0.23391
      13 -> 16         0.60655
      13 -> 19         0.16884

 Excited State   5:      Singlet-A      7.9166 eV  156.61 nm  f=0.0037  <S**2>=0.000
      11 -> 14         0.68467
      13 -> 16        -0.13653

 Excited State   6:      Singlet-A      9.2487 eV  134.06 nm  f=0.0007  <S**2>=0.000
      10 -> 16        -0.14063
      13 -> 16         0.10356
      13 -> 17         0.52683
      13 -> 18        -0.37033
      13 -> 21         0.21257

 Excited State   7:      Singlet-A      9.4020 eV  131.87 nm  f=0.0845  <S**2>=0.000
      10 -> 14         0.68366

 Excited State   8:      Singlet-A      9.4818 eV  130.76 nm  f=0.0095  <S**2>=0.000
      10 -> 15         0.11410
      13 -> 15         0.11257
      13 -> 17         0.39661
      13 -> 18         0.49244
      13 -> 19         0.15819
      13 -> 21        -0.18749

 Excited State   9:      Singlet-A      9.9152 eV  125.05 nm  f=0.1516  <S**2>=0.000
      11 -> 15        -0.28409
      11 -> 16        -0.13425
      11 -> 17         0.18901
      11 -> 18         0.18767
      12 -> 15         0.11782
      12 -> 16         0.32543
      12 -> 17        -0.28305
      12 -> 18         0.19144
      13 -> 14        -0.13213

 Excited State  10:      Singlet-A     10.0406 eV  123.48 nm  f=0.0019  <S**2>=0.000
      10 -> 16         0.14397
      13 -> 16        -0.10442
      13 -> 18        -0.21881
      13 -> 19         0.61773

 Excited State  11:      Singlet-A     10.1909 eV  121.66 nm  f=0.1019  <S**2>=0.000
      12 -> 15         0.65347
      12 -> 16        -0.11128
      12 -> 18        -0.11241
      12 -> 19        -0.10856

 Excited State  12:      Singlet-A     10.7019 eV  115.85 nm  f=0.1057  <S**2>=0.000
      11 -> 16         0.58072
      11 -> 17        -0.10395
      11 -> 19         0.19621
      12 -> 16         0.20404
      12 -> 17        -0.17254

 Excited State  13:      Singlet-A     10.8232 eV  114.55 nm  f=0.1220  <S**2>=0.000
       8 -> 16        -0.18443
      11 -> 15         0.10548
      11 -> 18         0.15806
      11 -> 19        -0.10099
      12 -> 16         0.38791
      12 -> 17         0.28667
      12 -> 18        -0.23180
      12 -> 19         0.22902
      12 -> 20         0.14133

 Excited State  14:      Singlet-A     10.8590 eV  114.18 nm  f=0.0812  <S**2>=0.000
      10 -> 16         0.16295
      13 -> 18        -0.11990
      13 -> 20         0.56333
      13 -> 21        -0.32018

 Excited State  15:      Singlet-A     10.8638 eV  114.13 nm  f=0.0279  <S**2>=0.000
      10 -> 15        -0.19707
      13 -> 18         0.20478
      13 -> 19         0.19154
      13 -> 20         0.34034
      13 -> 21         0.48183

 The electronic state is 1-A.
 Alpha  occ. eigenvalues --   -1.91159  -1.17418  -0.90772  -0.81588  -0.77565
 Alpha  occ. eigenvalues --   -0.68931  -0.68041  -0.57510  -0.55269  -0.46648
 Alpha  occ. eigenvalues --   -0.44520  -0.42623  -0.32630
 Alpha virt. eigenvalues --    0.10825   0.17675   0.19311   0.25225   0.27199
 Alpha virt. eigenvalues --    0.29226   0.31028   0.34757   0.36001   0.44046
 Alpha virt. eigenvalues --    0.48867

 Mulliken charges:
               1
     1  C   -0.150141
     2  C   -2.070837
     3  O    3.307703
     4  C   -2.050179
     5  C   -0.147744
     6  H    0.212232
     7  H    0.350539
     8  H    0.336599
     9  H    0.211828
 Sum of Mulliken charges =   0.00000

 Dipole moment (field-independent basis, Debye):
    X=             -1.8036    Y=             -9.5859    Z=             -0.0570  Tot=              9.7542
 N-N= 1.036442953476D+02 E-N=-1.689806926655D+02  KE=-1.544836401490D+01
 Orbital energies and kinetic energies (alpha):
                                 1                 2
   1         O                -1.911587         -1.389011
   2         O                -1.174178         -1.043063
   3         O                -0.907720         -0.859972
   4         O                -0.815882         -0.567250
   5         O                -0.775650         -0.686102
   6         O                -0.689308         -0.598123
   7         O                -0.680405         -0.543249

 Normal termination of Gaussian 09 at Tue Dec 15 17:09:33 2015.
