 Gaussian 09, Revision D.01,
 Gaussian 09:  ES64L-G09RevD.01 24-Apr-2013

 ------------------------------------------------------------
 #P AM1(Input,print) CIS(Singlets,NStates=15) pop(full) force
 ------------------------------------------------------------

 -----------------
 AM1-Reparam Input
 -----------------
 Symbolic Z-matrix:
 Charge =  0 Multiplicity = 1

                         Standard orientation:
 ---------------------------------------------------------------------
 Center     Atomic      Atomic             Coordinates (Angstroms)
 Number     Number       Type             X           Y           Z
 ---------------------------------------------------------------------
      1          6           0       -0.942754    0.721818   -0.008713
      2          6           0       -1.013396   -0.617276   -0.014587
      3          8           0        0.338747   -1.090956    0.005008
      4          6           0        1.173161   -0.066625    0.004058
      5          6           0        0.431732    1.096270   -0.017886
      6          1           0        0.818183    2.137040    0.053337
      7          1           0        2.240727   -0.294566    0.014654
      8          1           0       -1.820827   -1.306558    0.045322
      9          1           0       -1.840517    1.386614    0.069402
 ---------------------------------------------------------------------

 SCF Done:  E(RAM1) =   2.57896595838     A.U. after   13 cycles

 Excitation energies and oscillator strengths:

 Excited State   1:      Singlet-A      5.0530 eV  245.37 nm  f=0.3585  <S**2>=0.000
      13 -> 14         0.69862
 This state for optimization and/or second-order correction.
 Total Energy, E(CIS) =   2.76466147125
 Copying the excited state density for this state as the 1-particle RhoCI density.

 Excited State   2:      Singlet-A      6.1711 eV  200.91 nm  f=0.0015  <S**2>=0.000
      13 -> 15         0.66626
      13 -> 17        -0.10497
      13 -> 18        -0.10208
      13 -> 19        -0.10816

 Excited State   3:      Singlet-A      6.6070 eV  187.66 nm  f=0.0014  <S**2>=0.000
      12 -> 14         0.68375
      13 -> 16         0.11956

 Excited State   4:      Singlet-A      6.7074 eV  184.85 nm  f=0.0036  <S**2>=0.000
      11 -> 14         0.11423
      12 -> 14        -0.12563
      13 -> 16         0.65158

 Excited State   5:      Singlet-A      7.2395 eV  171.26 nm  f=0.0044  <S**2>=0.000
      10 -> 14        -0.16717
      11 -> 14         0.67118

 Excited State   6:      Singlet-A      7.7964 eV  159.03 nm  f=0.0002  <S**2>=0.000
      13 -> 16        -0.12267
      13 -> 17         0.66627
      13 -> 21         0.12187

 Excited State   7:      Singlet-A      8.4719 eV  146.35 nm  f=0.1195  <S**2>=0.000
      10 -> 14         0.67333
      11 -> 14         0.16475

 Excited State   8:      Singlet-A      9.0992 eV  136.26 nm  f=0.0041  <S**2>=0.000
       7 -> 15        -0.10696
      10 -> 15         0.24326
      11 -> 15         0.10945
      13 -> 18         0.62294

 Excited State   9:      Singlet-A      9.3549 eV  132.53 nm  f=0.0047  <S**2>=0.000
       9 -> 15         0.10524
      11 -> 15        -0.11462
      11 -> 16        -0.26999
      11 -> 18         0.18192
      12 -> 15        -0.36567
      12 -> 16         0.16355
      12 -> 17         0.37866

 Excited State  10:      Singlet-A      9.5905 eV  129.28 nm  f=0.1232  <S**2>=0.000
      10 -> 16         0.18246
      11 -> 15         0.29285
      11 -> 16         0.16194
      12 -> 15        -0.29033
      13 -> 19         0.44418

 Excited State  11:      Singlet-A      9.6293 eV  128.76 nm  f=0.1135  <S**2>=0.000
      10 -> 15         0.10258
      10 -> 16         0.18575
      11 -> 15        -0.34381
      11 -> 18         0.13098
      12 -> 15         0.32991
      13 -> 19         0.40070

 Excited State  12:      Singlet-A      9.9734 eV  124.32 nm  f=0.1459  <S**2>=0.000
      10 -> 16        -0.11237
      11 -> 15        -0.18803
      11 -> 16         0.30392
      11 -> 19         0.12292
      12 -> 16         0.53033
      12 -> 19         0.10325

 Excited State  13:      Singlet-A     10.0639 eV  123.20 nm  f=0.0014  <S**2>=0.000
       7 -> 15        -0.13649
      10 -> 15         0.57383
      11 -> 15         0.12710
      12 -> 16         0.11149
      13 -> 15        -0.15661
      13 -> 18        -0.21403
      13 -> 19        -0.13976

 Excited State  14:      Singlet-A     10.4636 eV  118.49 nm  f=0.0052  <S**2>=0.000
       9 -> 14         0.64635
      12 -> 16         0.10230

 Excited State  15:      Singlet-A     10.4810 eV  118.29 nm  f=0.0445  <S**2>=0.000
       8 -> 15         0.16031
       8 -> 16        -0.12833
       9 -> 14        -0.20210
       9 -> 15        -0.17331
       9 -> 16        -0.10773
      10 -> 15        -0.11799
      11 -> 15         0.17290
      11 -> 17         0.30987
      11 -> 19        -0.13391
      12 -> 15         0.20293
      12 -> 16         0.24536
      12 -> 17         0.13477
      12 -> 18         0.12458
      12 -> 20        -0.10220

 The electronic state is 1-A.
 Alpha  occ. eigenvalues --   -1.84357  -1.11720  -0.87575  -0.79037  -0.74389
 Alpha  occ. eigenvalues --   -0.66452  -0.63029  -0.57010  -0.54841  -0.45290
 Alpha  occ. eigenvalues --   -0.44234  -0.42794  -0.30185
 Alpha virt. eigenvalues --    0.08452   0.15778   0.18697   0.24490   0.26963
 Alpha virt. eigenvalues --    0.29539   0.35134   0.39357   0.47810   0.54929
 Alpha virt. eigenvalues --    0.59809

 Mulliken charges:
               1
     1  C   -0.132162
     2  C   -1.984000
     3  O    3.446692
     4  C   -2.024504
     5  C   -0.265270
     6  H    0.206293
     7  H    0.283939
     8  H    0.270257
     9  H    0.198755
 Sum of Mulliken charges =   0.00000

 Dipole moment (field-independent basis, Debye):
    X=              3.3096    Y=            -10.4165    Z=              0.4066  Tot=             10.9372
 N-N= 1.036072084251D+02 E-N=-1.689296720172D+02  KE=-1.430856265007D+01
 Orbital energies and kinetic energies (alpha):
                                 1                 2
   1         O                -1.843567         -1.238480
   2         O                -1.117199         -0.951123
   3         O                -0.875750         -0.784954
   4         O                -0.790368         -0.530098
   5         O                -0.743887         -0.629333
   6         O                -0.664523         -0.537687
   7         O                -0.630288         -0.489186

 Normal termination of Gaussian 09 at Tue Dec 15 17:07:37 2015.
