 Gaussian 09, Revision D.01,
 Gaussian 09:  ES64L-G09RevD.01 24-Apr-2013

 ------------------------------------------------------------
 #P AM1(Input,print) CIS(Singlets,NStates=15) pop(full) force
 ------------------------------------------------------------

 -----------------
 AM1-Reparam Input
 -----------------
 Symbolic Z-matrix:
 Charge =  0 Multiplicity = 1

                         Standard orientation:
 ---------------------------------------------------------------------
 Center     Atomic      Atomic             Coordinates (Angstroms)
 Number     Number       Type             X           Y           Z
 ---------------------------------------------------------------------
      1          6           0       -0.997617    0.663434    0.002578
      2          6           0       -0.876975   -0.703491   -0.019168
      3          8           0        0.403608   -1.045229    0.013682
      4          6           0        1.141382    0.032805   -0.004873
      5          6           0        0.313001    1.104345   -0.014920
      6          1           0        0.565638    2.173084    0.016866
      7          1           0        2.267236   -0.017053    0.024764
      8          1           0       -1.574377   -1.494734   -0.004473
      9          1           0       -1.966114    1.117970    0.071685
 ---------------------------------------------------------------------

 SCF Done:  E(RAM1) =   1.36522876540     A.U. after   13 cycles

 Excitation energies and oscillator strengths:

 Excited State   1:      Singlet-A      6.2720 eV  197.68 nm  f=0.3030  <S**2>=0.000
      13 -> 14         0.69109
 This state for optimization and/or second-order correction.
 Total Energy, E(CIS) =   1.59572147568
 Copying the excited state density for this state as the 1-particle RhoCI density.

 Excited State   2:      Singlet-A      6.4992 eV  190.77 nm  f=0.0028  <S**2>=0.000
      12 -> 16        -0.10108
      13 -> 15         0.62695
      13 -> 16         0.17856
      13 -> 17         0.20488

 Excited State   3:      Singlet-A      6.8832 eV  180.12 nm  f=0.0001  <S**2>=0.000
      12 -> 15        -0.16230
      13 -> 15        -0.19480
      13 -> 16         0.61361
      13 -> 17         0.10980
      13 -> 20         0.11386

 Excited State   4:      Singlet-A      7.5168 eV  164.94 nm  f=0.0011  <S**2>=0.000
      11 -> 14         0.68701

 Excited State   5:      Singlet-A      7.8274 eV  158.40 nm  f=0.0085  <S**2>=0.000
      10 -> 14        -0.10784
      12 -> 16         0.15159
      13 -> 15        -0.13904
      13 -> 16        -0.14354
      13 -> 17         0.62628
      13 -> 22        -0.12885

 Excited State   6:      Singlet-A      8.3085 eV  149.23 nm  f=0.0049  <S**2>=0.000
      12 -> 15        -0.18390
      13 -> 17         0.15414
      13 -> 18         0.46154
      13 -> 22         0.45564

 Excited State   7:      Singlet-A      8.3565 eV  148.37 nm  f=0.0102  <S**2>=0.000
      10 -> 14         0.61775
      12 -> 14        -0.29050
      13 -> 17         0.10227

 Excited State   8:      Singlet-A      8.6518 eV  143.30 nm  f=0.0668  <S**2>=0.000
      10 -> 14         0.29182
      12 -> 14         0.59794
      13 -> 20        -0.11178
      13 -> 21        -0.11889

 Excited State   9:      Singlet-A      8.8522 eV  140.06 nm  f=0.0010  <S**2>=0.000
      12 -> 15         0.40456
      12 -> 16         0.13928
      13 -> 18         0.33076
      13 -> 19        -0.12559
      13 -> 20         0.29107
      13 -> 21        -0.16980
      13 -> 22        -0.21974

 Excited State  10:      Singlet-A      9.0523 eV  136.96 nm  f=0.0027  <S**2>=0.000
      13 -> 16        -0.10340
      13 -> 18        -0.35927
      13 -> 19        -0.16168
      13 -> 20         0.43932
      13 -> 21        -0.24270
      13 -> 22         0.25564

 Excited State  11:      Singlet-A      9.1478 eV  135.53 nm  f=0.0077  <S**2>=0.000
      12 -> 15         0.45562
      12 -> 17         0.11020
      13 -> 15        -0.13471
      13 -> 16         0.16226
      13 -> 18        -0.13897
      13 -> 20        -0.19790
      13 -> 21         0.16261
      13 -> 22         0.35163

 Excited State  12:      Singlet-A      9.3953 eV  131.96 nm  f=0.0522  <S**2>=0.000
      12 -> 16         0.44811
      13 -> 19         0.43948
      13 -> 21        -0.22211
      13 -> 22         0.11180

 Excited State  13:      Singlet-A      9.6579 eV  128.38 nm  f=0.0088  <S**2>=0.000
       8 -> 15         0.13180
       8 -> 16         0.10627
       9 -> 15        -0.10398
       9 -> 16         0.10463
      10 -> 15        -0.23189
      10 -> 17        -0.26623
      10 -> 18        -0.10434
      11 -> 15         0.24050
      11 -> 16         0.29350
      11 -> 17         0.26175
      11 -> 18        -0.15329
      13 -> 19         0.13020

 Excited State  14:      Singlet-A      9.7048 eV  127.76 nm  f=0.0308  <S**2>=0.000
      12 -> 15        -0.10919
      12 -> 16         0.42381
      13 -> 15         0.12971
      13 -> 16         0.11121
      13 -> 19        -0.39238
      13 -> 21         0.23730

 Excited State  15:      Singlet-A      9.7589 eV  127.05 nm  f=0.0945  <S**2>=0.000
       8 -> 15        -0.13559
      11 -> 15         0.58482
      11 -> 16        -0.16206
      11 -> 18         0.20048
      11 -> 19         0.10241

 The electronic state is 1-A.
 Alpha  occ. eigenvalues --   -1.92045  -1.20527  -0.96778  -0.79745  -0.77380
 Alpha  occ. eigenvalues --   -0.67797  -0.63924  -0.50932  -0.47911  -0.40800
 Alpha  occ. eigenvalues --   -0.38409  -0.37391  -0.26573
 Alpha virt. eigenvalues --    0.17388   0.20375   0.22353   0.27445   0.29939
 Alpha virt. eigenvalues --    0.32698   0.32999   0.33214   0.35300   0.42597
 Alpha virt. eigenvalues --    0.48863

 Mulliken charges:
               1
     1  C   -0.045320
     2  C   -1.599780
     3  O    2.815688
     4  C   -1.603203
     5  C   -0.059613
     6  H    0.065348
     7  H    0.190243
     8  H    0.165801
     9  H    0.070837
 Sum of Mulliken charges =   0.00000

 Dipole moment (field-independent basis, Debye):
    X=              3.2720    Y=             -8.1650    Z=              0.4079  Tot=              8.8057
 N-N= 1.044796283126D+02 E-N=-1.714614945321D+02  KE=-1.596305598187D+01
 Orbital energies and kinetic energies (alpha):
                                 1                 2
   1         O                -1.920454         -1.432584
   2         O                -1.205270         -1.080779
   3         O                -0.967782         -0.875068
   4         O                -0.797455         -0.633519
   5         O                -0.773800         -0.700061
   6         O                -0.677968         -0.627790
   7         O                -0.639244         -0.555058

 Normal termination of Gaussian 09 at Tue Dec 15 17:07:57 2015.
