 Gaussian 09, Revision D.01,
 Gaussian 09:  ES64L-G09RevD.01 24-Apr-2013

 ------------------------------------------------------------
 #P AM1(Input,print) CIS(Singlets,NStates=15) pop(full) force
 ------------------------------------------------------------

 -----------------
 AM1-Reparam Input
 -----------------
 Symbolic Z-matrix:
 Charge =  0 Multiplicity = 1

                         Standard orientation:
 ---------------------------------------------------------------------
 Center     Atomic      Atomic             Coordinates (Angstroms)
 Number     Number       Type             X           Y           Z
 ---------------------------------------------------------------------
      1          6           0       -0.019172    1.188053   -0.031530
      2          6           0        1.098895    0.359700    0.031743
      3          8           0        0.727362   -0.947149    0.002160
      4          6           0       -0.659023   -0.891027   -0.032035
      5          6           0       -1.176731    0.335006    0.033046
      6          1           0       -2.218232    0.574251    0.032953
      7          1           0       -1.151457   -1.871327   -0.002203
      8          1           0        2.139430    0.634543   -0.023351
      9          1           0       -0.052447    2.289335   -0.032020
 ---------------------------------------------------------------------

 SCF Done:  E(RAM1) =   2.10930188605     A.U. after   13 cycles

 Excitation energies and oscillator strengths:

 Excited State   1:      Singlet-A      5.4620 eV  226.99 nm  f=0.3429  <S**2>=0.000
      13 -> 14         0.69532
 This state for optimization and/or second-order correction.
 Total Energy, E(CIS) =   2.31002846224
 Copying the excited state density for this state as the 1-particle RhoCI density.

 Excited State   2:      Singlet-A      6.3674 eV  194.72 nm  f=0.0007  <S**2>=0.000
      11 -> 15         0.12035
      13 -> 15         0.67545
      13 -> 17        -0.11817

 Excited State   3:      Singlet-A      6.6284 eV  187.05 nm  f=0.0022  <S**2>=0.000
      11 -> 16        -0.11361
      13 -> 16         0.66862
      13 -> 19        -0.12936

 Excited State   4:      Singlet-A      7.1790 eV  172.70 nm  f=0.0015  <S**2>=0.000
      12 -> 14         0.69809

 Excited State   5:      Singlet-A      8.0969 eV  153.13 nm  f=0.0053  <S**2>=0.000
      10 -> 14        -0.23507
      13 -> 15         0.10098
      13 -> 17         0.41520
      13 -> 18        -0.38008
      13 -> 19        -0.16157
      13 -> 20         0.10436
      13 -> 22        -0.25058

 Excited State   6:      Singlet-A      8.2416 eV  150.44 nm  f=0.0063  <S**2>=0.000
      10 -> 14         0.60160
      11 -> 14        -0.12857
      13 -> 18        -0.26463
      13 -> 20         0.10002
      13 -> 22        -0.14710

 Excited State   7:      Singlet-A      8.4898 eV  146.04 nm  f=0.0070  <S**2>=0.000
      10 -> 14         0.22840
      11 -> 16        -0.12004
      13 -> 16         0.11024
      13 -> 17         0.53592
      13 -> 18         0.28952
      13 -> 22         0.16249

 Excited State   8:      Singlet-A      8.9220 eV  138.96 nm  f=0.0740  <S**2>=0.000
      10 -> 14         0.14308
      11 -> 14         0.63407
      12 -> 15         0.13189
      13 -> 21         0.15840

 Excited State   9:      Singlet-A      9.0572 eV  136.89 nm  f=0.0038  <S**2>=0.000
      13 -> 18        -0.31335
      13 -> 19         0.59907

 Excited State  10:      Singlet-A      9.5318 eV  130.07 nm  f=0.0231  <S**2>=0.000
      12 -> 15        -0.19210
      12 -> 16         0.11623
      13 -> 18        -0.25061
      13 -> 19        -0.20834
      13 -> 20        -0.35425
      13 -> 22         0.40790

 Excited State  11:      Singlet-A      9.6027 eV  129.11 nm  f=0.0737  <S**2>=0.000
       8 -> 15         0.15957
      10 -> 16         0.10148
      10 -> 17        -0.13997
      11 -> 14        -0.11551
      12 -> 15         0.45330
      12 -> 16        -0.21585
      12 -> 18         0.15483
      13 -> 18        -0.13156
      13 -> 22         0.26955

 Excited State  12:      Singlet-A      9.8829 eV  125.45 nm  f=0.0887  <S**2>=0.000
      11 -> 16        -0.18983
      12 -> 15        -0.16802
      13 -> 20         0.52295
      13 -> 22         0.34627

 Excited State  13:      Singlet-A     10.0344 eV  123.56 nm  f=0.0450  <S**2>=0.000
      11 -> 15         0.30017
      11 -> 16         0.19871
      12 -> 15         0.21534
      12 -> 16         0.43003
      12 -> 18        -0.12974
      13 -> 20         0.15181
      13 -> 21         0.10865
      13 -> 22         0.12876

 Excited State  14:      Singlet-A     10.2113 eV  121.42 nm  f=0.0862  <S**2>=0.000
      10 -> 16        -0.19493
      10 -> 17         0.12714
      11 -> 15         0.40016
      11 -> 16         0.15489
      12 -> 16        -0.39577
      12 -> 17         0.15181

 Excited State  15:      Singlet-A     10.2242 eV  121.27 nm  f=0.1473  <S**2>=0.000
       9 -> 16        -0.12036
      10 -> 15        -0.13337
      10 -> 16        -0.20102
      10 -> 17         0.14689
      11 -> 14        -0.15748
      11 -> 15        -0.21866
      11 -> 16        -0.23376
      12 -> 15         0.14989
      12 -> 18        -0.18037
      13 -> 21         0.41445

 The electronic state is 1-A.
 Alpha  occ. eigenvalues --   -1.92607  -1.18611  -0.92029  -0.79672  -0.77976
 Alpha  occ. eigenvalues --   -0.69036  -0.65057  -0.53612  -0.53228  -0.44401
 Alpha  occ. eigenvalues --   -0.43590  -0.40909  -0.28279
 Alpha virt. eigenvalues --    0.12418   0.18005   0.18944   0.26677   0.28131
 Alpha virt. eigenvalues --    0.30391   0.31541   0.31721   0.33450   0.40449
 Alpha virt. eigenvalues --    0.43844

 Mulliken charges:
               1
     1  C   -0.166986
     2  C   -1.899735
     3  O    3.199615
     4  C   -1.864851
     5  C   -0.105698
     6  H    0.149859
     7  H    0.258660
     8  H    0.275318
     9  H    0.153818
 Sum of Mulliken charges =   0.00000

 Dipole moment (field-independent basis, Debye):
    X=              6.5134    Y=             -9.1203    Z=             -0.0018  Tot=             11.2073
 N-N= 1.037362548877D+02 E-N=-1.687817294894D+02  KE=-1.529202144478D+01
 Orbital energies and kinetic energies (alpha):
                                 1                 2
   1         O                -1.926072         -1.346137
   2         O                -1.186106         -1.058224
   3         O                -0.920286         -0.884569
   4         O                -0.796716         -0.559622
   5         O                -0.779765         -0.680198
   6         O                -0.690363         -0.587818
   7         O                -0.650574         -0.526691

 Normal termination of Gaussian 09 at Tue Dec 15 17:08:37 2015.
