 Gaussian 09, Revision D.01,
 Gaussian 09:  ES64L-G09RevD.01 24-Apr-2013

 ------------------------------------------------------------
 #P AM1(Input,print) CIS(Singlets,NStates=15) pop(full) force
 ------------------------------------------------------------

 -----------------
 AM1-Reparam Input
 -----------------
 Symbolic Z-matrix:
 Charge =  0 Multiplicity = 1

                         Standard orientation:
 ---------------------------------------------------------------------
 Center     Atomic      Atomic             Coordinates (Angstroms)
 Number     Number       Type             X           Y           Z
 ---------------------------------------------------------------------
      1          6           0       -0.975310    0.715668   -0.009273
      2          6           0       -0.928919   -0.602198   -0.018064
      3          8           0        0.318882   -1.148367    0.018147
      4          6           0        1.166129   -0.012823   -0.013168
      5          6           0        0.405930    1.103118    0.015270
      6          1           0        0.802026    2.164230   -0.016746
      7          1           0        2.195371   -0.198491   -0.022500
      8          1           0       -1.727105   -1.367089   -0.003242
      9          1           0       -1.828327    1.365698    0.048715
 ---------------------------------------------------------------------

 SCF Done:  E(RAM1) =  -5.41446619006     A.U. after   14 cycles

 Excitation energies and oscillator strengths:

 Excited State   1:      Singlet-A      5.7276 eV  216.47 nm  f=0.0019  <S**2>=0.000
      13 -> 15         0.17791
      13 -> 16         0.67251
 This state for optimization and/or second-order correction.
 Total Energy, E(CIS) =  -5.20398125453
 Copying the excited state density for this state as the 1-particle RhoCI density.

 Excited State   2:      Singlet-A      6.6589 eV  186.19 nm  f=0.2235  <S**2>=0.000
      12 -> 15        -0.10936
      13 -> 14         0.67727

 Excited State   3:      Singlet-A      6.9739 eV  177.78 nm  f=0.1361  <S**2>=0.000
      12 -> 14         0.19491
      13 -> 15         0.64458
      13 -> 16        -0.16545

 Excited State   4:      Singlet-A      7.7761 eV  159.44 nm  f=0.0003  <S**2>=0.000
      13 -> 17         0.68099

 Excited State   5:      Singlet-A      8.3917 eV  147.75 nm  f=0.0012  <S**2>=0.000
      11 -> 14         0.67385
      13 -> 17         0.10680

 Excited State   6:      Singlet-A      8.5027 eV  145.82 nm  f=0.0014  <S**2>=0.000
      12 -> 15         0.20619
      12 -> 16         0.64834
      13 -> 18         0.13164

 Excited State   7:      Singlet-A      9.0847 eV  136.48 nm  f=0.0131  <S**2>=0.000
      10 -> 14         0.59565
      10 -> 15        -0.16516
      11 -> 15         0.14461
      12 -> 14        -0.11322
      13 -> 18        -0.18174

 Excited State   8:      Singlet-A      9.1950 eV  134.84 nm  f=0.1971  <S**2>=0.000
      12 -> 14         0.23887
      12 -> 15         0.58362
      12 -> 16        -0.20759

 Excited State   9:      Singlet-A      9.3425 eV  132.71 nm  f=0.1372  <S**2>=0.000
      11 -> 16         0.15320
      12 -> 14         0.44026
      12 -> 15        -0.23012
      13 -> 18        -0.38203
      13 -> 19        -0.14588
      13 -> 21         0.11052

 Excited State  10:      Singlet-A      9.3834 eV  132.13 nm  f=0.1040  <S**2>=0.000
      10 -> 14         0.22981
      11 -> 16         0.12830
      12 -> 14         0.37338
      12 -> 15        -0.12079
      12 -> 16        -0.11547
      13 -> 18         0.42036
      13 -> 19         0.15520
      13 -> 21        -0.12394

 Excited State  11:      Singlet-A      9.8024 eV  126.48 nm  f=0.0175  <S**2>=0.000
      10 -> 14        -0.10321
      11 -> 15         0.27926
      13 -> 18        -0.14552
      13 -> 19         0.50924
      13 -> 20         0.31770

 Excited State  12:      Singlet-A      9.9025 eV  125.21 nm  f=0.0215  <S**2>=0.000
       8 -> 14        -0.10105
       9 -> 14         0.10474
      10 -> 14        -0.14458
      10 -> 15        -0.10172
      11 -> 15         0.57162
      13 -> 19        -0.25668
      13 -> 20        -0.15333

 Excited State  13:      Singlet-A     10.2821 eV  120.58 nm  f=0.2467  <S**2>=0.000
      11 -> 16         0.54018
      12 -> 14        -0.13916
      13 -> 15         0.11878
      13 -> 18         0.11937
      13 -> 20         0.17808
      13 -> 21         0.24834

 Excited State  14:      Singlet-A     10.3077 eV  120.28 nm  f=0.0952  <S**2>=0.000
      11 -> 16        -0.31555
      12 -> 17         0.13162
      13 -> 18         0.22376
      13 -> 20         0.31596
      13 -> 21         0.41049

 Excited State  15:      Singlet-A     10.4883 eV  118.21 nm  f=0.0005  <S**2>=0.000
      12 -> 17        -0.39596
      13 -> 19         0.24605
      13 -> 20        -0.31065
      13 -> 21         0.39884

 The electronic state is 1-A.
 Alpha  occ. eigenvalues --   -3.72127  -1.25489  -0.95915  -0.92291  -0.88973
 Alpha  occ. eigenvalues --   -0.84586  -0.82484  -0.64592  -0.62406  -0.57214
 Alpha  occ. eigenvalues --   -0.55038  -0.52022  -0.41704
 Alpha virt. eigenvalues --    0.02293   0.04087   0.04797   0.12247   0.18462
 Alpha virt. eigenvalues --    0.18969   0.19420   0.22310   0.22695   0.26502
 Alpha virt. eigenvalues --    0.28007

 Mulliken charges:
               1
     1  C   -0.406770
     2  C   -1.133177
     3  O    2.243145
     4  C   -1.132107
     5  C   -0.402005
     6  H    0.259819
     7  H    0.157465
     8  H    0.176982
     9  H    0.236648
 Sum of Mulliken charges =   0.00000

 Dipole moment (field-independent basis, Debye):
    X=              1.9405    Y=             -8.1387    Z=              0.3311  Tot=              8.3734
 N-N= 1.016823111622D+02 E-N=-1.664020094304D+02  KE=-2.229470156910D+01
 Orbital energies and kinetic energies (alpha):
                                 1                 2
   1         O                -3.721274         -3.040921
   2         O                -1.254886         -1.107398
   3         O                -0.959149         -0.835087
   4         O                -0.922907         -0.875266
   5         O                -0.889732         -0.785914
   6         O                -0.845864         -0.769294
   7         O                -0.824842         -0.687877

 Normal termination of Gaussian 09 at Fri Dec 11 13:41:27 2015.
