 Gaussian 09, Revision D.01,
 Gaussian 09:  ES64L-G09RevD.01 24-Apr-2013

 ------------------------------------------------------------
 #P AM1(Input,print) CIS(Singlets,NStates=15) pop(full) force
 ------------------------------------------------------------

 -----------------
 AM1-Reparam Input
 -----------------
 Symbolic Z-matrix:
 Charge =  0 Multiplicity = 1

                         Standard orientation:
 ---------------------------------------------------------------------
 Center     Atomic      Atomic             Coordinates (Angstroms)
 Number     Number       Type             X           Y           Z
 ---------------------------------------------------------------------
      1          6           0       -0.376584    1.124644   -0.024671
      2          6           0       -1.163767    0.018786   -0.011134
      3          8           0       -0.392425   -1.095488    0.009137
      4          6           0        0.940801   -0.648277   -0.018496
      5          6           0        1.003911    0.667765    0.015701
      6          1           0        1.949612    1.267863    0.039996
      7          1           0        1.649509   -1.489261    0.007927
      8          1           0       -2.235078   -0.102056    0.071992
      9          1           0       -0.650812    2.109852    0.038586
 ---------------------------------------------------------------------

 SCF Done:  E(RAM1) =   2.61493091692     A.U. after   13 cycles

 Excitation energies and oscillator strengths:

 Excited State   1:      Singlet-A      4.9245 eV  251.77 nm  f=0.3631  <S**2>=0.000
      13 -> 14         0.69948
 This state for optimization and/or second-order correction.
 Total Energy, E(CIS) =   2.79590166080
 Copying the excited state density for this state as the 1-particle RhoCI density.

 Excited State   2:      Singlet-A      5.9619 eV  207.96 nm  f=0.0001  <S**2>=0.000
      13 -> 15         0.66843
      13 -> 17        -0.14200
      13 -> 19        -0.12724

 Excited State   3:      Singlet-A      6.3400 eV  195.56 nm  f=0.0031  <S**2>=0.000
      10 -> 15         0.10347
      13 -> 16         0.67990
      13 -> 18        -0.11551

 Excited State   4:      Singlet-A      6.4333 eV  192.72 nm  f=0.0004  <S**2>=0.000
      12 -> 14         0.69686

 Excited State   5:      Singlet-A      7.4025 eV  167.49 nm  f=0.0054  <S**2>=0.000
      10 -> 14         0.18280
      11 -> 14         0.67494

 Excited State   6:      Singlet-A      7.6188 eV  162.73 nm  f=0.0002  <S**2>=0.000
      13 -> 15         0.13985
      13 -> 17         0.66141
      13 -> 18         0.12447
      13 -> 21         0.11544

 Excited State   7:      Singlet-A      8.5040 eV  145.79 nm  f=0.1204  <S**2>=0.000
      10 -> 14         0.66957
      11 -> 14        -0.17859

 Excited State   8:      Singlet-A      8.9944 eV  137.85 nm  f=0.0094  <S**2>=0.000
      10 -> 15         0.22914
      12 -> 15         0.10993
      13 -> 17        -0.13585
      13 -> 18         0.62312

 Excited State   9:      Singlet-A      9.1670 eV  135.25 nm  f=0.1030  <S**2>=0.000
       8 -> 16        -0.11906
      11 -> 16         0.12006
      11 -> 18        -0.13929
      12 -> 15         0.55385
      12 -> 17        -0.29038
      13 -> 18        -0.10762

 Excited State  10:      Singlet-A      9.3225 eV  133.00 nm  f=0.0018  <S**2>=0.000
      10 -> 16         0.20750
      13 -> 19         0.64288

 Excited State  11:      Singlet-A      9.7148 eV  127.62 nm  f=0.2479  <S**2>=0.000
       9 -> 15         0.10729
      10 -> 16         0.10138
      11 -> 16         0.40211
      11 -> 18        -0.20687
      12 -> 15        -0.32727
      12 -> 17        -0.32723
      12 -> 19         0.10172

 Excited State  12:      Singlet-A      9.7801 eV  126.77 nm  f=0.0227  <S**2>=0.000
      11 -> 15        -0.34276
      11 -> 16         0.10170
      11 -> 19         0.10896
      12 -> 16         0.55762
      12 -> 18        -0.10491

 Excited State  13:      Singlet-A     10.1551 eV  122.09 nm  f=0.0032  <S**2>=0.000
       7 -> 16        -0.12437
      10 -> 15         0.50467
      10 -> 16        -0.21052
      11 -> 15        -0.23283
      13 -> 16        -0.13759
      13 -> 18        -0.20507
      13 -> 19         0.15814

 Excited State  14:      Singlet-A     10.2670 eV  120.76 nm  f=0.0043  <S**2>=0.000
       7 -> 15        -0.12159
       9 -> 14         0.11023
      10 -> 15         0.31208
      10 -> 16         0.50354
      11 -> 16        -0.12487
      13 -> 15        -0.12972
      13 -> 18        -0.12618
      13 -> 19        -0.14493

 Excited State  15:      Singlet-A     10.3700 eV  119.56 nm  f=0.0123  <S**2>=0.000
       8 -> 15        -0.21875
       8 -> 16        -0.14400
       9 -> 16         0.13540
      10 -> 15         0.11362
      10 -> 16        -0.18093
      11 -> 15         0.34068
      11 -> 16         0.16718
      11 -> 17         0.15206
      11 -> 19        -0.16462
      12 -> 16         0.23474
      12 -> 17         0.17553
      12 -> 18         0.16639

 The electronic state is 1-A.
 Alpha  occ. eigenvalues --   -1.84197  -1.12128  -0.87496  -0.79215  -0.74637
 Alpha  occ. eigenvalues --   -0.66810  -0.62643  -0.55570  -0.54532  -0.44866
 Alpha  occ. eigenvalues --   -0.44341  -0.41692  -0.28806
 Alpha virt. eigenvalues --    0.09059   0.16624   0.17611   0.25555   0.28120
 Alpha virt. eigenvalues --    0.30031   0.36589   0.40692   0.47107   0.54902
 Alpha virt. eigenvalues --    0.58670

 Mulliken charges:
               1
     1  C   -0.233575
     2  C   -2.007033
     3  O    3.437207
     4  C   -1.955239
     5  C   -0.156373
     6  H    0.190681
     7  H    0.257002
     8  H    0.280844
     9  H    0.186486
 Sum of Mulliken charges =   0.00000

 Dipole moment (field-independent basis, Debye):
    X=             -3.7029    Y=            -11.2942    Z=              0.6208  Tot=             11.9019
 N-N= 1.037705981682D+02 E-N=-1.692363484890D+02  KE=-1.433630898329D+01
 Orbital energies and kinetic energies (alpha):
                                 1                 2
   1         O                -1.841969         -1.231618
   2         O                -1.121285         -0.965679
   3         O                -0.874963         -0.798958
   4         O                -0.792151         -0.529422
   5         O                -0.746366         -0.619240
   6         O                -0.668102         -0.543391
   7         O                -0.626431         -0.493204

 Normal termination of Gaussian 09 at Tue Dec 15 17:07:43 2015.
