 Gaussian 09, Revision D.01,
 Gaussian 09:  ES64L-G09RevD.01 24-Apr-2013

 ------------------------------------------------------------
 #P AM1(Input,print) CIS(Singlets,NStates=15) pop(full) force
 ------------------------------------------------------------

 -----------------
 AM1-Reparam Input
 -----------------
 Symbolic Z-matrix:
 Charge =  0 Multiplicity = 1

                         Standard orientation:
 ---------------------------------------------------------------------
 Center     Atomic      Atomic             Coordinates (Angstroms)
 Number     Number       Type             X           Y           Z
 ---------------------------------------------------------------------
      1          6           0       -0.885000    0.851222   -0.017525
      2          6           0       -1.028314   -0.529937    0.024752
      3          8           0        0.176282   -1.125813   -0.025403
      4          6           0        1.140646   -0.185201    0.009596
      5          6           0        0.603293    1.036301    0.004514
      6          1           0        1.084755    1.957468   -0.002401
      7          1           0        2.141008   -0.531214    0.041122
      8          1           0       -1.941124   -1.084861    0.040854
      9          1           0       -1.678640    1.630808   -0.004370
 ---------------------------------------------------------------------

 SCF Done:  E(RAM1) =   1.10872249817     A.U. after   14 cycles

 Excitation energies and oscillator strengths:

 Excited State   1:      Singlet-A      5.2943 eV  234.19 nm  f=0.2340  <S**2>=0.000
      12 -> 16        -0.10574
      13 -> 14         0.68544
 This state for optimization and/or second-order correction.
 Total Energy, E(CIS) =   1.30328371826
 Copying the excited state density for this state as the 1-particle RhoCI density.

 Excited State   2:      Singlet-A      6.3110 eV  196.46 nm  f=0.0049  <S**2>=0.000
      13 -> 15         0.61256
      13 -> 16        -0.30291
      13 -> 19         0.11934

 Excited State   3:      Singlet-A      6.7006 eV  185.03 nm  f=0.0005  <S**2>=0.000
      13 -> 17         0.64860
      13 -> 18        -0.20617
      13 -> 21         0.14021

 Excited State   4:      Singlet-A      6.9386 eV  178.69 nm  f=0.0024  <S**2>=0.000
      12 -> 14         0.42925
      13 -> 15         0.22034
      13 -> 16         0.49909

 Excited State   5:      Singlet-A      7.0783 eV  175.16 nm  f=0.0002  <S**2>=0.000
       9 -> 14        -0.17460
      11 -> 14         0.67665

 Excited State   6:      Singlet-A      7.9484 eV  155.99 nm  f=0.0061  <S**2>=0.000
      12 -> 15        -0.12470
      13 -> 17         0.17952
      13 -> 18         0.61586
      13 -> 22         0.15583

 Excited State   7:      Singlet-A      7.9677 eV  155.61 nm  f=0.1477  <S**2>=0.000
      10 -> 14         0.44091
      11 -> 16         0.14313
      12 -> 14         0.39666
      13 -> 15        -0.13540
      13 -> 16        -0.25390
      13 -> 18        -0.12630

 Excited State   8:      Singlet-A      8.0056 eV  154.87 nm  f=0.1376  <S**2>=0.000
      10 -> 14         0.49228
      11 -> 15         0.11506
      12 -> 14        -0.36550
      13 -> 15         0.15508
      13 -> 16         0.23488

 Excited State   9:      Singlet-A      8.5475 eV  145.05 nm  f=0.0012  <S**2>=0.000
      12 -> 15         0.22925
      13 -> 19         0.17838
      13 -> 20         0.59104
      13 -> 22         0.10945

 Excited State  10:      Singlet-A      8.5903 eV  144.33 nm  f=0.0074  <S**2>=0.000
      12 -> 15         0.57923
      12 -> 16        -0.20640
      13 -> 20        -0.25213
      13 -> 21         0.10213

 Excited State  11:      Singlet-A      8.6664 eV  143.06 nm  f=0.0191  <S**2>=0.000
       9 -> 15         0.18358
       9 -> 16         0.18524
      10 -> 14        -0.18476
      11 -> 15         0.43153
      11 -> 16         0.42199

 Excited State  12:      Singlet-A      8.9596 eV  138.38 nm  f=0.0761  <S**2>=0.000
       9 -> 14        -0.37398
       9 -> 17         0.15668
      10 -> 15        -0.10299
      11 -> 14        -0.10225
      11 -> 17        -0.11871
      11 -> 18         0.14604
      12 -> 15         0.15534
      12 -> 16         0.45641

 Excited State  13:      Singlet-A      9.0556 eV  136.91 nm  f=0.0405  <S**2>=0.000
       9 -> 14         0.52344
       9 -> 17         0.10481
      11 -> 14         0.14331
      12 -> 16         0.31348
      12 -> 17        -0.14116
      13 -> 19        -0.11860

 Excited State  14:      Singlet-A      9.0838 eV  136.49 nm  f=0.0042  <S**2>=0.000
       9 -> 14         0.15293
      12 -> 17         0.53223
      13 -> 19         0.36002

 Excited State  15:      Singlet-A      9.2207 eV  134.46 nm  f=0.0436  <S**2>=0.000
       9 -> 15        -0.20152
       9 -> 16         0.18845
       9 -> 20         0.10066
      10 -> 17         0.16727
      11 -> 15        -0.35978
      11 -> 16         0.40037
      11 -> 20         0.15441
      12 -> 17         0.10334

 The electronic state is 1-A.
 Alpha  occ. eigenvalues --   -1.83507  -1.17370  -0.99721  -0.87776  -0.80205
 Alpha  occ. eigenvalues --   -0.74043  -0.71650  -0.61692  -0.55155  -0.53180
 Alpha  occ. eigenvalues --   -0.49741  -0.47872  -0.37771
 Alpha virt. eigenvalues --    0.02390   0.09638   0.10461   0.11103   0.17840
 Alpha virt. eigenvalues --    0.19462   0.19979   0.21419   0.25768   0.27087
 Alpha virt. eigenvalues --    0.28275

 Mulliken charges:
               1
     1  C   -0.133719
     2  C   -1.277013
     3  O    2.149617
     4  C   -1.248641
     5  C   -0.125396
     6  H    0.104703
     7  H    0.202548
     8  H    0.214826
     9  H    0.113075
 Sum of Mulliken charges =   0.00000

 Dipole moment (field-independent basis, Debye):
    X=              1.0086    Y=             -6.8181    Z=             -0.2936  Tot=              6.8985
 N-N= 1.041793405420D+02 E-N=-1.707812068635D+02  KE=-1.496632982691D+01
 Orbital energies and kinetic energies (alpha):
                                 1                 2
   1         O                -1.835070         -1.248929
   2         O                -1.173704         -0.951246
   3         O                -0.997215         -0.810610
   4         O                -0.877764         -0.634618
   5         O                -0.802050         -0.684604
   6         O                -0.740426         -0.584349
   7         O                -0.716503         -0.507036

 Normal termination of Gaussian 09 at Tue Dec 15 17:05:43 2015.
