 Gaussian 09, Revision D.01,
 Gaussian 09:  ES64L-G09RevD.01 24-Apr-2013

 ------------------------------------------------------------
 #P AM1(Input,print) CIS(Singlets,NStates=15) pop(full) force
 ------------------------------------------------------------

 -----------------
 AM1-Reparam Input
 -----------------
 Symbolic Z-matrix:
 Charge =  0 Multiplicity = 1

                         Standard orientation:
 ---------------------------------------------------------------------
 Center     Atomic      Atomic             Coordinates (Angstroms)
 Number     Number       Type             X           Y           Z
 ---------------------------------------------------------------------
      1          6           0        0.657691    0.968838    0.044262
      2          6           0        1.142680   -0.235774   -0.032656
      3          8           0        0.098969   -1.115651    0.020825
      4          6           0       -1.072876   -0.403624   -0.016764
      5          6           0       -0.822255    0.845673   -0.004951
      6          1           0       -1.530414    1.715047   -0.027783
      7          1           0       -1.984058   -1.063644    0.006417
      8          1           0        2.122164   -0.697798   -0.032013
      9          1           0        1.169120    1.920926   -0.052563
 ---------------------------------------------------------------------

 SCF Done:  E(RAM1) =   1.13346078872     A.U. after   14 cycles

 Excitation energies and oscillator strengths:

 Excited State   1:      Singlet-A      5.1583 eV  240.36 nm  f=0.2198  <S**2>=0.000
      11 -> 15        -0.12156
      13 -> 14         0.68509
 This state for optimization and/or second-order correction.
 Total Energy, E(CIS) =   1.32302491130
 Copying the excited state density for this state as the 1-particle RhoCI density.

 Excited State   2:      Singlet-A      6.0864 eV  203.71 nm  f=0.0058  <S**2>=0.000
      13 -> 15         0.30328
      13 -> 16         0.43893
      13 -> 17         0.40288
      13 -> 19         0.20311

 Excited State   3:      Singlet-A      6.2492 eV  198.40 nm  f=0.0014  <S**2>=0.000
      13 -> 15        -0.12901
      13 -> 16         0.48484
      13 -> 17        -0.43399
      13 -> 18         0.17503
      13 -> 21        -0.13287

 Excited State   4:      Singlet-A      6.5483 eV  189.34 nm  f=0.0460  <S**2>=0.000
      11 -> 14         0.25235
      13 -> 15         0.55361
      13 -> 16        -0.11434
      13 -> 17        -0.29966

 Excited State   5:      Singlet-A      6.8510 eV  180.97 nm  f=0.0008  <S**2>=0.000
       9 -> 14        -0.12275
      12 -> 14         0.68812

 Excited State   6:      Singlet-A      7.5962 eV  163.22 nm  f=0.0001  <S**2>=0.000
      13 -> 16        -0.14620
      13 -> 17         0.10205
      13 -> 18         0.65305
      13 -> 23         0.16888

 Excited State   7:      Singlet-A      7.7760 eV  159.45 nm  f=0.0024  <S**2>=0.000
       9 -> 15        -0.10522
      10 -> 14         0.47515
      12 -> 15        -0.32405
      13 -> 19         0.15750
      13 -> 20         0.31935

 Excited State   8:      Singlet-A      7.8894 eV  157.15 nm  f=0.0007  <S**2>=0.000
      10 -> 14        -0.25637
      12 -> 15         0.24141
      13 -> 17        -0.10998
      13 -> 19         0.33583
      13 -> 20         0.45580
      13 -> 24         0.11893

 Excited State   9:      Singlet-A      8.0871 eV  153.31 nm  f=0.1972  <S**2>=0.000
      11 -> 14         0.62038
      12 -> 19         0.13556
      13 -> 15        -0.21652

 Excited State  10:      Singlet-A      8.2286 eV  150.68 nm  f=0.0177  <S**2>=0.000
       9 -> 15         0.14153
      10 -> 14         0.43838
      12 -> 15         0.50704

 Excited State  11:      Singlet-A      8.7115 eV  142.32 nm  f=0.0086  <S**2>=0.000
      11 -> 15         0.18468
      11 -> 16        -0.18842
      11 -> 17         0.15096
      12 -> 16        -0.17589
      12 -> 18        -0.10347
      13 -> 19         0.44823
      13 -> 20        -0.34262

 Excited State  12:      Singlet-A      8.7682 eV  141.40 nm  f=0.0400  <S**2>=0.000
       9 -> 16         0.13149
      11 -> 15         0.42059
      11 -> 16         0.12150
      12 -> 16        -0.21233
      12 -> 17         0.19528
      12 -> 18        -0.24503
      13 -> 19        -0.20928
      13 -> 20         0.15878

 Excited State  13:      Singlet-A      8.9704 eV  138.21 nm  f=0.0035  <S**2>=0.000
      11 -> 15         0.14424
      11 -> 16         0.29287
      11 -> 17         0.43450
      12 -> 16         0.18131
      13 -> 21         0.32934

 Excited State  14:      Singlet-A      9.0796 eV  136.55 nm  f=0.0608  <S**2>=0.000
       9 -> 16         0.11664
       9 -> 17         0.13286
      10 -> 16        -0.14743
      10 -> 17         0.11015
      12 -> 16         0.40473
      12 -> 17         0.36943
      12 -> 19         0.16368
      13 -> 21        -0.16745

 Excited State  15:      Singlet-A      9.1173 eV  135.99 nm  f=0.0116  <S**2>=0.000
      11 -> 16        -0.25864
      11 -> 17        -0.16033
      11 -> 19        -0.11285
      12 -> 17         0.14649
      13 -> 21         0.53730
      13 -> 22         0.16517

 The electronic state is 1-A.
 Alpha  occ. eigenvalues --   -1.83083  -1.19395  -1.00749  -0.87739  -0.80428
 Alpha  occ. eigenvalues --   -0.73224  -0.72421  -0.61291  -0.55709  -0.51788
 Alpha  occ. eigenvalues --   -0.48530  -0.47860  -0.36440
 Alpha virt. eigenvalues --    0.03423   0.09302   0.10023   0.10741   0.17572
 Alpha virt. eigenvalues --    0.18853   0.19263   0.21874   0.27198   0.27545
 Alpha virt. eigenvalues --    0.27722

 Mulliken charges:
               1
     1  C   -0.187065
     2  C   -1.197943
     3  O    2.105869
     4  C   -1.200041
     5  C   -0.160869
     6  H    0.119893
     7  H    0.204513
     8  H    0.198307
     9  H    0.117337
 Sum of Mulliken charges =   0.00000

 Dipole moment (field-independent basis, Debye):
    X=              0.4077    Y=             -7.3345    Z=              0.3124  Tot=              7.3524
 N-N= 1.046622460215D+02 E-N=-1.717142744806D+02  KE=-1.497015930725D+01
 Orbital energies and kinetic energies (alpha):
                                 1                 2
   1         O                -1.830830         -1.254017
   2         O                -1.193947         -0.956915
   3         O                -1.007488         -0.832159
   4         O                -0.877386         -0.620719
   5         O                -0.804282         -0.681550
   6         O                -0.732240         -0.579409
   7         O                -0.724213         -0.521004

 Normal termination of Gaussian 09 at Tue Dec 15 17:05:34 2015.
