 Gaussian 09, Revision D.01,
 Gaussian 09:  ES64L-G09RevD.01 24-Apr-2013

 -------------------------------------------------------
 #P B3LYP/3-21G CIS(Singlets,NStates=15) pop(full) force
 -------------------------------------------------------

 --------
 FuranDFT
 --------
 Symbolic Z-matrix:
 Charge =  0 Multiplicity = 1

                         Standard orientation:
 ---------------------------------------------------------------------
 Center     Atomic      Atomic             Coordinates (Angstroms)
 Number     Number       Type             X           Y           Z
 ---------------------------------------------------------------------
      1          6           0        0.666294    1.023339    0.017408
      2          6           0        1.136860   -0.249874   -0.014082
      3          8           0        0.089896   -1.178830   -0.004540
      4          6           0       -1.096074   -0.398709    0.011096
      5          6           0       -0.792337    0.873631   -0.015119
      6          1           0       -1.484298    1.786474   -0.001429
      7          1           0       -2.044421   -0.954456    0.016592
      8          1           0        2.101279   -0.747939    0.035972
      9          1           0        1.219823    1.856243   -0.010626
 ---------------------------------------------------------------------

 SCF Done:  E(RB3LYP) =  -228.740834192     A.U. after   14 cycles

 Excitation energies and oscillator strengths:

 Excited State   1:      Singlet-A      7.2879 eV  170.12 nm  f=0.0039  <S**2>=0.000
      17 -> 19         0.53949
      18 -> 20         0.44220
 This state for optimization and/or second-order correction.
 Total Energy, E(CIS) =  -228.473010292
 Copying the excited state density for this state as the 1-particle RhoCI density.

 Excited State   2:      Singlet-A      7.2989 eV  169.87 nm  f=0.1991  <S**2>=0.000
      18 -> 19         0.68066

 Excited State   3:      Singlet-A      8.4407 eV  146.89 nm  f=0.0002  <S**2>=0.000
      18 -> 21         0.69850

 Excited State   4:      Singlet-A      8.7309 eV  142.01 nm  f=0.0042  <S**2>=0.000
      16 -> 19         0.69950

 Excited State   5:      Singlet-A      9.2389 eV  134.20 nm  f=0.0351  <S**2>=0.000
      17 -> 19        -0.10185
      17 -> 20        -0.20203
      18 -> 20         0.14470
      18 -> 22         0.63498

 Excited State   6:      Singlet-A      9.2969 eV  133.36 nm  f=0.0975  <S**2>=0.000
      17 -> 19         0.12606
      17 -> 20         0.50501
      17 -> 21         0.21805
      18 -> 20        -0.17718
      18 -> 22         0.22851
      18 -> 23        -0.26082

 Excited State   7:      Singlet-A      9.3624 eV  132.43 nm  f=0.0288  <S**2>=0.000
      17 -> 20        -0.30846
      17 -> 21         0.44399
      18 -> 22        -0.13133
      18 -> 23        -0.40139

 Excited State   8:      Singlet-A      9.4744 eV  130.86 nm  f=0.0034  <S**2>=0.000
      15 -> 19         0.27428
      17 -> 21         0.46897
      18 -> 23         0.42980

 Excited State   9:      Singlet-A      9.6956 eV  127.88 nm  f=0.0198  <S**2>=0.000
      15 -> 19         0.61897
      17 -> 20        -0.11037
      17 -> 21        -0.13445
      18 -> 23        -0.22318

 Excited State  10:      Singlet-A      9.8198 eV  126.26 nm  f=0.4012  <S**2>=0.000
      14 -> 19        -0.10378
      15 -> 19         0.13759
      17 -> 19        -0.35100
      17 -> 20         0.24097
      18 -> 20         0.43637
      18 -> 23        -0.13096

 Excited State  11:      Singlet-A     10.1525 eV  122.12 nm  f=0.0019  <S**2>=0.000
      17 -> 22         0.69229

 Excited State  12:      Singlet-A     10.4955 eV  118.13 nm  f=0.0002  <S**2>=0.000
      13 -> 19         0.19738
      14 -> 19        -0.10260
      16 -> 20        -0.26028
      17 -> 23         0.54573
      17 -> 25         0.13242
      18 -> 24        -0.21680

 Excited State  13:      Singlet-A     10.5208 eV  117.85 nm  f=0.0006  <S**2>=0.000
      13 -> 19        -0.24321
      16 -> 20         0.53516
      17 -> 23         0.34674

 Excited State  14:      Singlet-A     10.6101 eV  116.86 nm  f=0.0006  <S**2>=0.000
      12 -> 19        -0.10240
      16 -> 20        -0.10346
      17 -> 23         0.15843
      18 -> 24         0.62658
      18 -> 25        -0.16644
      18 -> 26         0.10773

 Excited State  15:      Singlet-A     10.7477 eV  115.36 nm  f=0.0080  <S**2>=0.000
      12 -> 19         0.25715
      13 -> 19         0.23740
      18 -> 24         0.18216
      18 -> 25         0.55615

 The electronic state is 1-A.
 Alpha  occ. eigenvalues --  -19.10225 -10.17886 -10.17518 -10.13199 -10.12288
 Alpha  occ. eigenvalues --   -1.09489  -0.80537  -0.74558  -0.59868  -0.56762
 Alpha  occ. eigenvalues --   -0.53881  -0.43614  -0.43299  -0.43039  -0.38969
 Alpha  occ. eigenvalues --   -0.36040  -0.27544  -0.23915
 Alpha virt. eigenvalues --    0.01890   0.08091   0.11946   0.14106   0.15820
 Alpha virt. eigenvalues --    0.19294   0.19963   0.22208   0.36074   0.41592
 Alpha virt. eigenvalues --    0.46347   0.67074   0.69225   0.69941   0.75478

 Mulliken charges:
               1
     1  C   -0.258375
     2  C    0.080312
     3  O   -0.469219
     4  C    0.073504
     5  C   -0.237684
     6  H    0.184811
     7  H    0.217741
     8  H    0.218016
     9  H    0.190894
 Sum of Mulliken charges =   0.00000

 Dipole moment (field-independent basis, Debye):
    X=             -0.0589    Y=              0.8823    Z=              0.0387  Tot=              0.8851
 Quadrupole moment (field-independent basis, Debye-Ang):
   XX=            -23.3751   YY=            -28.0879   ZZ=            -31.8377
   XY=              0.2783   XZ=              0.0369   YZ=             -0.0816

 Normal termination of Gaussian 09 at Tue Dec 15 16:14:40 2015.
