 Gaussian 09, Revision D.01,
 Gaussian 09:  ES64L-G09RevD.01 24-Apr-2013

 ------------------------------------------------------------
 #P AM1(Input,print) CIS(Singlets,NStates=15) pop(full) force
 ------------------------------------------------------------

 -----------------
 AM1-Reparam Input
 -----------------
 Symbolic Z-matrix:
 Charge =  0 Multiplicity = 1

                         Standard orientation:
 ---------------------------------------------------------------------
 Center     Atomic      Atomic             Coordinates (Angstroms)
 Number     Number       Type             X           Y           Z
 ---------------------------------------------------------------------
      1          6           0       -0.257164    1.151475   -0.027852
      2          6           0        0.996723    0.546250   -0.011402
      3          8           0        0.909943   -0.750057    0.005757
      4          6           0       -0.485246   -1.033249   -0.014089
      5          6           0       -1.214787    0.121354    0.032600
      6          1           0       -2.271530    0.189291   -0.054279
      7          1           0       -0.693412   -2.123085    0.015739
      8          1           0        1.950343    0.986965    0.051470
      9          1           0       -0.502104    2.232304    0.065469
 ---------------------------------------------------------------------

 SCF Done:  E(RAM1) =   2.59863305321     A.U. after   13 cycles

 Excitation energies and oscillator strengths:

 Excited State   1:      Singlet-A      5.2144 eV  237.77 nm  f=0.3481  <S**2>=0.000
      13 -> 14         0.69808
 This state for optimization and/or second-order correction.
 Total Energy, E(CIS) =   2.79025908151
 Copying the excited state density for this state as the 1-particle RhoCI density.

 Excited State   2:      Singlet-A      6.2363 eV  198.81 nm  f=0.0028  <S**2>=0.000
      13 -> 15         0.66540
      13 -> 18         0.10635
      13 -> 19        -0.10749

 Excited State   3:      Singlet-A      6.6157 eV  187.41 nm  f=0.0005  <S**2>=0.000
      12 -> 14         0.68864
      13 -> 16         0.11633

 Excited State   4:      Singlet-A      6.6751 eV  185.74 nm  f=0.0041  <S**2>=0.000
      12 -> 14        -0.10997
      13 -> 15         0.10667
      13 -> 16         0.65269

 Excited State   5:      Singlet-A      7.3906 eV  167.76 nm  f=0.0054  <S**2>=0.000
      10 -> 14         0.52769
      11 -> 14         0.45457

 Excited State   6:      Singlet-A      7.9938 eV  155.10 nm  f=0.0001  <S**2>=0.000
      13 -> 17         0.66915
      13 -> 21         0.12383

 Excited State   7:      Singlet-A      8.4423 eV  146.86 nm  f=0.1187  <S**2>=0.000
      10 -> 14        -0.45225
      11 -> 14         0.52443

 Excited State   8:      Singlet-A      9.1792 eV  135.07 nm  f=0.0060  <S**2>=0.000
       7 -> 15         0.11053
      10 -> 15         0.26346
      11 -> 15        -0.22273
      11 -> 16         0.10576
      12 -> 15         0.17482
      12 -> 16        -0.10431
      12 -> 17        -0.10390
      13 -> 18         0.53193

 Excited State   9:      Singlet-A      9.2861 eV  133.52 nm  f=0.0461  <S**2>=0.000
      10 -> 18         0.10565
      11 -> 15         0.16603
      12 -> 15         0.45216
      12 -> 16        -0.25016
      12 -> 17        -0.25812
      13 -> 18        -0.21720

 Excited State  10:      Singlet-A      9.4903 eV  130.64 nm  f=0.1304  <S**2>=0.000
      10 -> 15        -0.27225
      10 -> 16        -0.10733
      10 -> 18        -0.13893
      11 -> 15        -0.21942
      12 -> 15         0.42303
      12 -> 16         0.19051
      12 -> 17         0.21036
      12 -> 18         0.14279

 Excited State  11:      Singlet-A      9.5536 eV  129.78 nm  f=0.0035  <S**2>=0.000
      10 -> 16        -0.18056
      11 -> 16         0.28763
      13 -> 19         0.58631

 Excited State  12:      Singlet-A      9.9167 eV  125.03 nm  f=0.0010  <S**2>=0.000
       7 -> 15        -0.11243
      10 -> 15        -0.36461
      11 -> 15         0.40677
      13 -> 15        -0.16795
      13 -> 18         0.32661
      13 -> 19        -0.15434

 Excited State  13:      Singlet-A     10.0207 eV  123.73 nm  f=0.1905  <S**2>=0.000
       9 -> 16         0.12310
      10 -> 16         0.29481
      11 -> 16         0.28874
      12 -> 16         0.45549
      12 -> 17        -0.22075

 Excited State  14:      Singlet-A     10.3382 eV  119.93 nm  f=0.0077  <S**2>=0.000
       8 -> 16        -0.20889
       9 -> 15         0.17954
      10 -> 15        -0.14558
      10 -> 16         0.10229
      10 -> 17        -0.12927
      10 -> 19         0.13652
      11 -> 15        -0.22561
      11 -> 16         0.31961
      11 -> 19         0.14384
      12 -> 15        -0.12680
      12 -> 16        -0.23259
      12 -> 17         0.12565
      13 -> 19        -0.15894

 Excited State  15:      Singlet-A     10.4543 eV  118.60 nm  f=0.0064  <S**2>=0.000
       8 -> 16        -0.10426
       9 -> 14        -0.16524
       9 -> 15         0.10038
      10 -> 15        -0.13953
      10 -> 16         0.41368
      10 -> 19         0.11947
      11 -> 16        -0.30475
      13 -> 16        -0.14123
      13 -> 18         0.13305
      13 -> 19         0.24576

 The electronic state is 1-A.
 Alpha  occ. eigenvalues --   -1.84677  -1.12210  -0.86680  -0.79035  -0.74664
 Alpha  occ. eigenvalues --   -0.66604  -0.62981  -0.55577  -0.54019  -0.44432
 Alpha  occ. eigenvalues --   -0.44103  -0.42209  -0.30220
 Alpha virt. eigenvalues --    0.09355   0.16155   0.18051   0.25464   0.27670
 Alpha virt. eigenvalues --    0.29761   0.35439   0.40619   0.48621   0.56370
 Alpha virt. eigenvalues --    0.60024

 Mulliken charges:
               1
     1  C   -0.238463
     2  C   -2.034806
     3  O    3.427679
     4  C   -1.965481
     5  C   -0.101577
     6  H    0.179273
     7  H    0.253448
     8  H    0.285241
     9  H    0.194686
 Sum of Mulliken charges =   0.00000

 Dipole moment (field-independent basis, Debye):
    X=              8.9501    Y=             -7.1585    Z=              0.4760  Tot=             11.4706
 N-N= 1.038032681990D+02 E-N=-1.693264874129D+02  KE=-1.433456623040D+01
 Orbital energies and kinetic energies (alpha):
                                 1                 2
   1         O                -1.846775         -1.245614
   2         O                -1.122101         -0.973138
   3         O                -0.866796         -0.768561
   4         O                -0.790355         -0.545195
   5         O                -0.746641         -0.620374
   6         O                -0.666036         -0.543068
   7         O                -0.629810         -0.492221

 Normal termination of Gaussian 09 at Tue Dec 15 17:07:45 2015.
