 Gaussian 09, Revision D.01,
 Gaussian 09:  ES64L-G09RevD.01 24-Apr-2013

 ------------------------------------------------------------
 #P AM1(Input,print) CIS(Singlets,NStates=15) pop(full) force
 ------------------------------------------------------------

 -----------------
 AM1-Reparam Input
 -----------------
 Symbolic Z-matrix:
 Charge =  0 Multiplicity = 1

                         Standard orientation:
 ---------------------------------------------------------------------
 Center     Atomic      Atomic             Coordinates (Angstroms)
 Number     Number       Type             X           Y           Z
 ---------------------------------------------------------------------
      1          6           0       -1.158379    0.268987    0.024399
      2          6           0       -0.594766   -0.916088    0.019218
      3          8           0        0.769663   -0.928633   -0.014536
      4          6           0        1.047387    0.466421   -0.002715
      5          6           0       -0.099143    1.174056   -0.022885
      6          1           0       -0.130116    2.278516    0.031869
      7          1           0        2.082167    0.677807    0.071047
      8          1           0       -1.035090   -1.957870   -0.020945
      9          1           0       -2.244857    0.470356   -0.073788
 ---------------------------------------------------------------------

 SCF Done:  E(RAM1) =   1.11723797669     A.U. after   14 cycles

 Excitation energies and oscillator strengths:

 Excited State   1:      Singlet-A      5.6291 eV  220.26 nm  f=0.1673  <S**2>=0.000
      12 -> 15         0.16316
      13 -> 14         0.67122
 This state for optimization and/or second-order correction.
 Total Energy, E(CIS) =   1.32410244424
 Copying the excited state density for this state as the 1-particle RhoCI density.

 Excited State   2:      Singlet-A      6.4321 eV  192.76 nm  f=0.0031  <S**2>=0.000
      13 -> 16         0.65669
      13 -> 17         0.12118
      13 -> 18        -0.14411

 Excited State   3:      Singlet-A      6.6641 eV  186.05 nm  f=0.0410  <S**2>=0.000
      12 -> 14        -0.32373
      13 -> 15         0.59810
      13 -> 17        -0.11306

 Excited State   4:      Singlet-A      6.9652 eV  178.01 nm  f=0.0029  <S**2>=0.000
      13 -> 16        -0.13489
      13 -> 17         0.64920
      13 -> 19        -0.11243
      13 -> 21        -0.11530

 Excited State   5:      Singlet-A      7.5434 eV  164.36 nm  f=0.0025  <S**2>=0.000
       9 -> 14         0.11311
      11 -> 14         0.68719

 Excited State   6:      Singlet-A      7.8985 eV  156.97 nm  f=0.0040  <S**2>=0.000
      10 -> 14         0.67353
      11 -> 15         0.11967

 Excited State   7:      Singlet-A      8.0232 eV  154.53 nm  f=0.2502  <S**2>=0.000
      12 -> 14         0.59926
      13 -> 15         0.30704

 Excited State   8:      Singlet-A      8.2622 eV  150.06 nm  f=0.0018  <S**2>=0.000
      12 -> 16         0.29844
      13 -> 18         0.49911
      13 -> 19        -0.24897
      13 -> 20        -0.20847
      13 -> 24        -0.15555

 Excited State   9:      Singlet-A      8.3537 eV  148.42 nm  f=0.1612  <S**2>=0.000
       9 -> 16         0.11399
      12 -> 15         0.59133
      13 -> 14        -0.14064
      13 -> 19         0.19126
      13 -> 20        -0.17095

 Excited State  10:      Singlet-A      8.4397 eV  146.91 nm  f=0.0418  <S**2>=0.000
      12 -> 15         0.25382
      12 -> 16        -0.14202
      13 -> 17        -0.12428
      13 -> 19        -0.32465
      13 -> 20         0.48540
      13 -> 23         0.11024

 Excited State  11:      Singlet-A      8.5735 eV  144.61 nm  f=0.0020  <S**2>=0.000
      12 -> 16         0.56013
      12 -> 17         0.12730
      13 -> 18        -0.13478
      13 -> 19         0.16450
      13 -> 20         0.26514

 Excited State  12:      Singlet-A      8.6777 eV  142.88 nm  f=0.0127  <S**2>=0.000
       6 -> 15         0.11424
       9 -> 15        -0.25690
      10 -> 14        -0.14956
      10 -> 15        -0.14087
      11 -> 15         0.59260

 Excited State  13:      Singlet-A      8.8265 eV  140.47 nm  f=0.0070  <S**2>=0.000
      12 -> 17         0.51889
      13 -> 18        -0.26969
      13 -> 19        -0.23947
      13 -> 20        -0.24344

 Excited State  14:      Singlet-A      9.2442 eV  134.12 nm  f=0.0034  <S**2>=0.000
      12 -> 16         0.13545
      12 -> 17        -0.31641
      13 -> 16        -0.10803
      13 -> 18        -0.15791
      13 -> 19        -0.32789
      13 -> 21         0.45729

 Excited State  15:      Singlet-A      9.3770 eV  132.22 nm  f=0.0010  <S**2>=0.000
       9 -> 16         0.20598
      10 -> 16         0.16079
      10 -> 17         0.29187
      10 -> 19        -0.20369
      10 -> 20        -0.14988
      11 -> 16         0.33134
      11 -> 18        -0.23370
      11 -> 19         0.14753
      12 -> 15        -0.14445

 The electronic state is 1-A.
 Alpha  occ. eigenvalues --   -1.79956  -1.20990  -0.97271  -0.86308  -0.80628
 Alpha  occ. eigenvalues --   -0.73196  -0.71001  -0.58312  -0.55757  -0.50393
 Alpha  occ. eigenvalues --   -0.49203  -0.46109  -0.37365
 Alpha virt. eigenvalues --    0.05211   0.08801   0.09948   0.12631   0.18846
 Alpha virt. eigenvalues --    0.19313   0.20639   0.22641   0.25771   0.27856
 Alpha virt. eigenvalues --    0.29056

 Mulliken charges:
               1
     1  C   -0.154646
     2  C   -1.208110
     3  O    2.082914
     4  C   -1.208243
     5  C   -0.107559
     6  H    0.108835
     7  H    0.173752
     8  H    0.200469
     9  H    0.112588
 Sum of Mulliken charges =   0.00000

 Dipole moment (field-independent basis, Debye):
    X=              4.6012    Y=             -6.3572    Z=             -0.1878  Tot=              7.8499
 N-N= 1.042419991325D+02 E-N=-1.711780763144D+02  KE=-1.494165071823D+01
 Orbital energies and kinetic energies (alpha):
                                 1                 2
   1         O                -1.799562         -1.220765
   2         O                -1.209904         -0.993197
   3         O                -0.972706         -0.835774
   4         O                -0.863081         -0.605019
   5         O                -0.806279         -0.664409
   6         O                -0.731956         -0.591544
   7         O                -0.710007         -0.519848

 Normal termination of Gaussian 09 at Tue Dec 15 17:05:39 2015.
