 Gaussian 09, Revision D.01,
 Gaussian 09:  ES64L-G09RevD.01 24-Apr-2013

 ------------------------------------------------------------
 #P AM1(Input,print) CIS(Singlets,NStates=15) pop(full) force
 ------------------------------------------------------------

 -----------------
 AM1-Reparam Input
 -----------------
 Symbolic Z-matrix:
 Charge =  0 Multiplicity = 1

                         Standard orientation:
 ---------------------------------------------------------------------
 Center     Atomic      Atomic             Coordinates (Angstroms)
 Number     Number       Type             X           Y           Z
 ---------------------------------------------------------------------
      1          6           0        0.070270    1.220215    0.033094
      2          6           0        1.095662    0.248151    0.007007
      3          8           0        0.629743   -0.973439   -0.014514
      4          6           0       -0.702132   -0.852046    0.007143
      5          6           0       -1.140103    0.409482   -0.025611
      6          1           0       -2.147956    0.807186   -0.000010
      7          1           0       -1.313116   -1.781554    0.064889
      8          1           0        2.230622    0.359411   -0.013713
      9          1           0        0.250327    2.247660   -0.064854
 ---------------------------------------------------------------------

 SCF Done:  E(RAM1) =   2.02546087435     A.U. after   13 cycles

 Excitation energies and oscillator strengths:

 Excited State   1:      Singlet-A      5.3762 eV  230.62 nm  f=0.3575  <S**2>=0.000
      13 -> 14         0.69563
 This state for optimization and/or second-order correction.
 Total Energy, E(CIS) =   2.22303104313
 Copying the excited state density for this state as the 1-particle RhoCI density.

 Excited State   2:      Singlet-A      6.6584 eV  186.21 nm  f=0.0074  <S**2>=0.000
      13 -> 15         0.63072
      13 -> 17         0.27432

 Excited State   3:      Singlet-A      6.7774 eV  182.94 nm  f=0.0013  <S**2>=0.000
      12 -> 14         0.69258

 Excited State   4:      Singlet-A      6.8495 eV  181.01 nm  f=0.0047  <S**2>=0.000
      13 -> 16         0.63544
      13 -> 18         0.27107

 Excited State   5:      Singlet-A      7.7871 eV  159.22 nm  f=0.0064  <S**2>=0.000
      10 -> 14         0.68178
      11 -> 14         0.14537

 Excited State   6:      Singlet-A      7.9640 eV  155.68 nm  f=0.0003  <S**2>=0.000
      11 -> 15        -0.10182
      13 -> 15         0.13280
      13 -> 16        -0.19318
      13 -> 17        -0.16006
      13 -> 18         0.39179
      13 -> 19         0.38546
      13 -> 20         0.29827

 Excited State   7:      Singlet-A      8.4788 eV  146.23 nm  f=0.0221  <S**2>=0.000
      11 -> 15         0.11692
      11 -> 16        -0.10161
      13 -> 15        -0.21613
      13 -> 17         0.61246
      13 -> 18         0.13466
      13 -> 19         0.12465

 Excited State   8:      Singlet-A      8.6338 eV  143.60 nm  f=0.1201  <S**2>=0.000
      10 -> 14        -0.14389
      11 -> 14         0.67539

 Excited State   9:      Singlet-A      8.9501 eV  138.53 nm  f=0.0033  <S**2>=0.000
      13 -> 16         0.15888
      13 -> 18        -0.45061
      13 -> 19         0.48823
      13 -> 20         0.10830

 Excited State  10:      Singlet-A      9.5278 eV  130.13 nm  f=0.0625  <S**2>=0.000
       8 -> 15        -0.12878
      10 -> 15        -0.21583
      10 -> 16        -0.13943
      10 -> 17        -0.20594
      12 -> 15        -0.22342
      12 -> 16         0.33016
      12 -> 17        -0.13272
      12 -> 18         0.26255
      12 -> 19         0.20047

 Excited State  11:      Singlet-A      9.6201 eV  128.88 nm  f=0.0069  <S**2>=0.000
      13 -> 18        -0.16555
      13 -> 19        -0.27836
      13 -> 20         0.60335
      13 -> 21         0.13555

 Excited State  12:      Singlet-A      9.9401 eV  124.73 nm  f=0.0209  <S**2>=0.000
      11 -> 15         0.50539
      11 -> 17         0.11110
      12 -> 15         0.20627
      12 -> 16         0.22532
      13 -> 21         0.25495

 Excited State  13:      Singlet-A      9.9783 eV  124.25 nm  f=0.0524  <S**2>=0.000
      11 -> 15        -0.11691
      12 -> 15        -0.21861
      13 -> 21         0.60594

 Excited State  14:      Singlet-A     10.0028 eV  123.95 nm  f=0.0427  <S**2>=0.000
      10 -> 15        -0.25907
      10 -> 17        -0.14432
      11 -> 15        -0.32370
      12 -> 15         0.42250
      12 -> 17         0.22257
      13 -> 21         0.14621

 Excited State  15:      Singlet-A     10.1305 eV  122.39 nm  f=0.1642  <S**2>=0.000
      10 -> 15         0.34549
      10 -> 16         0.13697
      10 -> 17         0.19057
      11 -> 15        -0.17004
      12 -> 16         0.45708

 The electronic state is 1-A.
 Alpha  occ. eigenvalues --   -1.94853  -1.19084  -0.94477  -0.82668  -0.77259
 Alpha  occ. eigenvalues --   -0.68418  -0.65439  -0.53839  -0.53193  -0.44510
 Alpha  occ. eigenvalues --   -0.43831  -0.41408  -0.29483
 Alpha virt. eigenvalues --    0.10724   0.17941   0.18913   0.25129   0.26965
 Alpha virt. eigenvalues --    0.29184   0.30319   0.31282   0.38545   0.47418
 Alpha virt. eigenvalues --    0.51634

 Mulliken charges:
               1
     1  C   -0.222881
     2  C   -2.037162
     3  O    3.170288
     4  C   -2.009926
     5  C   -0.163308
     6  H    0.249053
     7  H    0.382767
     8  H    0.381049
     9  H    0.250118
 Sum of Mulliken charges =   0.00000

 Dipole moment (field-independent basis, Debye):
    X=              5.2457    Y=             -8.5410    Z=             -0.3024  Tot=             10.0278
 N-N= 1.044434575756D+02 E-N=-1.699825140498D+02  KE=-1.548425071389D+01
 Orbital energies and kinetic energies (alpha):
                                 1                 2
   1         O                -1.948525         -1.415410
   2         O                -1.190840         -1.066932
   3         O                -0.944771         -0.856395
   4         O                -0.826684         -0.604395
   5         O                -0.772588         -0.662182
   6         O                -0.684182         -0.570678
   7         O                -0.654395         -0.521401

 Normal termination of Gaussian 09 at Tue Dec 15 17:07:27 2015.
