 Gaussian 09, Revision D.01,
 Gaussian 09:  ES64L-G09RevD.01 24-Apr-2013

 ------------------------------------------------------------
 #P AM1(Input,print) CIS(Singlets,NStates=15) pop(full) force
 ------------------------------------------------------------

 -----------------
 AM1-Reparam Input
 -----------------
 Symbolic Z-matrix:
 Charge =  0 Multiplicity = 1

                         Standard orientation:
 ---------------------------------------------------------------------
 Center     Atomic      Atomic             Coordinates (Angstroms)
 Number     Number       Type             X           Y           Z
 ---------------------------------------------------------------------
      1          6           0       -0.997617    0.663434    0.002578
      2          6           0       -0.876975   -0.703491   -0.019168
      3          8           0        0.403608   -1.045229    0.013682
      4          6           0        1.141382    0.032805   -0.004873
      5          6           0        0.313001    1.104345   -0.014920
      6          1           0        0.565638    2.173084    0.016866
      7          1           0        2.267236   -0.017053    0.024764
      8          1           0       -1.574377   -1.494734   -0.004473
      9          1           0       -1.966114    1.117970    0.071685
 ---------------------------------------------------------------------

 SCF Done:  E(RAM1) =   2.58565393240     A.U. after   14 cycles

 Excitation energies and oscillator strengths:

 Excited State   1:      Singlet-A      5.3250 eV  232.83 nm  f=0.3402  <S**2>=0.000
      13 -> 14         0.69679
 This state for optimization and/or second-order correction.
 Total Energy, E(CIS) =   2.78134567162
 Copying the excited state density for this state as the 1-particle RhoCI density.

 Excited State   2:      Singlet-A      6.5014 eV  190.70 nm  f=0.0003  <S**2>=0.000
      13 -> 15         0.48804
      13 -> 16        -0.45833
      13 -> 17         0.11530
      13 -> 19        -0.14436

 Excited State   3:      Singlet-A      6.5971 eV  187.94 nm  f=0.0039  <S**2>=0.000
      12 -> 14         0.59404
      13 -> 15         0.23570
      13 -> 16         0.26964

 Excited State   4:      Singlet-A      6.6957 eV  185.17 nm  f=0.0021  <S**2>=0.000
      12 -> 14        -0.36736
      13 -> 15         0.39560
      13 -> 16         0.41880

 Excited State   5:      Singlet-A      7.4275 eV  166.93 nm  f=0.0047  <S**2>=0.000
      10 -> 14         0.43767
      11 -> 14         0.53997

 Excited State   6:      Singlet-A      8.0951 eV  153.16 nm  f=0.0002  <S**2>=0.000
      13 -> 17         0.67178
      13 -> 21        -0.12583

 Excited State   7:      Singlet-A      8.4902 eV  146.03 nm  f=0.1138  <S**2>=0.000
      10 -> 14         0.54091
      11 -> 14        -0.44144

 Excited State   8:      Singlet-A      9.2834 eV  133.56 nm  f=0.0346  <S**2>=0.000
       8 -> 16         0.12247
       9 -> 15        -0.11851
      10 -> 15         0.11942
      10 -> 16         0.15912
      10 -> 18        -0.12905
      11 -> 15         0.12971
      11 -> 16         0.19334
      11 -> 18        -0.14630
      12 -> 15        -0.20262
      12 -> 16         0.39375
      12 -> 17        -0.29555

 Excited State   9:      Singlet-A      9.3644 eV  132.40 nm  f=0.0111  <S**2>=0.000
       7 -> 16        -0.10527
      10 -> 15        -0.25184
      10 -> 16         0.10257
      11 -> 15         0.26375
      11 -> 16        -0.16856
      13 -> 18         0.55047

 Excited State  10:      Singlet-A      9.5155 eV  130.30 nm  f=0.2009  <S**2>=0.000
      11 -> 15         0.10508
      12 -> 15         0.63033
      12 -> 16         0.12171
      12 -> 18        -0.12544
      12 -> 19        -0.14269

 Excited State  11:      Singlet-A      9.5760 eV  129.47 nm  f=0.0024  <S**2>=0.000
       7 -> 15        -0.10384
      10 -> 15        -0.14377
      10 -> 16        -0.21503
      11 -> 16         0.34502
      13 -> 17         0.10280
      13 -> 19         0.51386

 Excited State  12:      Singlet-A      9.8823 eV  125.46 nm  f=0.1267  <S**2>=0.000
      10 -> 15        -0.14653
      10 -> 16         0.39665
      11 -> 15        -0.18688
      11 -> 16         0.37613
      11 -> 19         0.10920
      12 -> 16        -0.25547
      13 -> 19        -0.15049

 Excited State  13:      Singlet-A     10.1828 eV  121.76 nm  f=0.0136  <S**2>=0.000
       8 -> 16         0.13862
      10 -> 16         0.16136
      11 -> 15        -0.28277
      12 -> 16         0.28051
      12 -> 17         0.34367
      13 -> 15         0.11334
      13 -> 19         0.22355

 Excited State  14:      Singlet-A     10.2202 eV  121.31 nm  f=0.0139  <S**2>=0.000
       8 -> 16        -0.10749
       9 -> 14         0.11218
      10 -> 15         0.33269
      10 -> 16         0.13607
      11 -> 15        -0.19920
      11 -> 16        -0.14139
      12 -> 16        -0.19479
      12 -> 17        -0.28015
      13 -> 15         0.14474
      13 -> 18         0.18593
      13 -> 19         0.23934

 Excited State  15:      Singlet-A     10.3387 eV  119.92 nm  f=0.0059  <S**2>=0.000
       9 -> 14         0.11258
      10 -> 15        -0.21693
      10 -> 16         0.35264
      11 -> 15         0.19118
      11 -> 16        -0.23075
      13 -> 16        -0.15247
      13 -> 18        -0.34160
      13 -> 19         0.23087

 The electronic state is 1-A.
 Alpha  occ. eigenvalues --   -1.86769  -1.14340  -0.88640  -0.80485  -0.74741
 Alpha  occ. eigenvalues --   -0.66949  -0.64970  -0.56850  -0.54830  -0.45642
 Alpha  occ. eigenvalues --   -0.45080  -0.43169  -0.31819
 Alpha virt. eigenvalues --    0.08464   0.15878   0.16460   0.24417   0.26897
 Alpha virt. eigenvalues --    0.28572   0.34632   0.39555   0.51534   0.58614
 Alpha virt. eigenvalues --    0.63538

 Mulliken charges:
               1
     1  C   -0.166381
     2  C   -2.012415
     3  O    3.426077
     4  C   -2.035944
     5  C   -0.197717
     6  H    0.206648
     7  H    0.308556
     8  H    0.275843
     9  H    0.195333
 Sum of Mulliken charges =   0.00000

 Dipole moment (field-independent basis, Debye):
    X=              3.8258    Y=             -9.5174    Z=              0.5327  Tot=             10.2714
 N-N= 1.048580453593D+02 E-N=-1.710511450556D+02  KE=-1.440794530578D+01
 Orbital energies and kinetic energies (alpha):
                                 1                 2
   1         O                -1.867694         -1.296999
   2         O                -1.143399         -0.972316
   3         O                -0.886403         -0.787128
   4         O                -0.804851         -0.534922
   5         O                -0.747414         -0.626479
   6         O                -0.669493         -0.551758
   7         O                -0.649698         -0.505207

 Normal termination of Gaussian 09 at Tue Dec 15 17:07:37 2015.
