 Gaussian 09, Revision D.01,
 Gaussian 09:  ES64L-G09RevD.01 24-Apr-2013

 ------------------------------------------------------------
 #P AM1(Input,print) CIS(Singlets,NStates=15) pop(full) force
 ------------------------------------------------------------

 -----------------
 AM1-Reparam Input
 -----------------
 Symbolic Z-matrix:
 Charge =  0 Multiplicity = 1

                         Standard orientation:
 ---------------------------------------------------------------------
 Center     Atomic      Atomic             Coordinates (Angstroms)
 Number     Number       Type             X           Y           Z
 ---------------------------------------------------------------------
      1          6           0       -0.589631    1.054575   -0.016792
      2          6           0       -1.111765   -0.243624    0.022295
      3          8           0       -0.166484   -1.104616   -0.019738
      4          6           0        1.022811   -0.500155    0.018573
      5          6           0        0.862725    0.830863    0.001271
      6          1           0        1.536019    1.614345    0.031805
      7          1           0        1.917824   -1.073725   -0.032990
      8          1           0       -2.131600   -0.546810    0.034210
      9          1           0       -1.095214    1.993169   -0.027213
 ---------------------------------------------------------------------

 SCF Done:  E(RAM1) =   2.59913251824     A.U. after   13 cycles

 Excitation energies and oscillator strengths:

 Excited State   1:      Singlet-A      5.0041 eV  247.76 nm  f=0.3731  <S**2>=0.000
      13 -> 14         0.69988
 This state for optimization and/or second-order correction.
 Total Energy, E(CIS) =   2.78303040609
 Copying the excited state density for this state as the 1-particle RhoCI density.

 Excited State   2:      Singlet-A      6.1644 eV  201.13 nm  f=0.0007  <S**2>=0.000
      13 -> 15         0.64904
      13 -> 16        -0.12785
      13 -> 17         0.17863

 Excited State   3:      Singlet-A      6.3086 eV  196.53 nm  f=0.0005  <S**2>=0.000
      12 -> 14         0.69533

 Excited State   4:      Singlet-A      6.6323 eV  186.94 nm  f=0.0054  <S**2>=0.000
      13 -> 15         0.14626
      13 -> 16         0.66269

 Excited State   5:      Singlet-A      7.5558 eV  164.09 nm  f=0.0045  <S**2>=0.000
      10 -> 14         0.69736

 Excited State   6:      Singlet-A      7.7604 eV  159.77 nm  f=0.0001  <S**2>=0.000
      13 -> 15        -0.13721
      13 -> 16         0.11106
      13 -> 17         0.65806
      13 -> 21        -0.11470

 Excited State   7:      Singlet-A      8.3104 eV  149.19 nm  f=0.1338  <S**2>=0.000
      11 -> 14         0.69579

 Excited State   8:      Singlet-A      9.2276 eV  134.36 nm  f=0.1048  <S**2>=0.000
      10 -> 16        -0.14386
      10 -> 18         0.11657
      12 -> 15         0.50434
      12 -> 16        -0.21011
      12 -> 17         0.33359

 Excited State   9:      Singlet-A      9.3780 eV  132.21 nm  f=0.0042  <S**2>=0.000
       7 -> 15        -0.11226
      11 -> 15        -0.37806
      13 -> 18         0.56622

 Excited State  10:      Singlet-A      9.6498 eV  128.48 nm  f=0.0037  <S**2>=0.000
       7 -> 16         0.10241
      11 -> 16        -0.32919
      12 -> 16        -0.13160
      13 -> 19         0.58300

 Excited State  11:      Singlet-A      9.8613 eV  125.73 nm  f=0.0526  <S**2>=0.000
      10 -> 15         0.39341
      10 -> 18        -0.14027
      12 -> 15         0.37244
      12 -> 16         0.31029
      12 -> 17        -0.18044
      12 -> 18        -0.12247

 Excited State  12:      Singlet-A      9.9437 eV  124.69 nm  f=0.1690  <S**2>=0.000
      10 -> 16        -0.31203
      10 -> 18         0.11040
      12 -> 15        -0.10436
      12 -> 16         0.48768
      12 -> 17         0.24646
      12 -> 19         0.13448
      13 -> 19         0.12645

 Excited State  13:      Singlet-A     10.1022 eV  122.73 nm  f=0.0002  <S**2>=0.000
       9 -> 14         0.39230
      11 -> 15         0.42941
      11 -> 16         0.18181
      13 -> 15         0.12463
      13 -> 18         0.26809

 Excited State  14:      Singlet-A     10.1936 eV  121.63 nm  f=0.0012  <S**2>=0.000
       9 -> 14         0.55720
      11 -> 15        -0.31700
      13 -> 18        -0.22214

 Excited State  15:      Singlet-A     10.4846 eV  118.25 nm  f=0.0016  <S**2>=0.000
       8 -> 15        -0.17376
       9 -> 15        -0.15560
       9 -> 16        -0.10147
      10 -> 15         0.31413
      10 -> 17        -0.10923
      10 -> 19        -0.13059
      11 -> 15         0.13993
      11 -> 16        -0.30118
      12 -> 15        -0.14075
      12 -> 16        -0.12542
      12 -> 17         0.24280
      13 -> 18         0.10736
      13 -> 19        -0.17471

 The electronic state is 1-A.
 Alpha  occ. eigenvalues --   -1.87052  -1.12487  -0.89278  -0.80895  -0.75045
 Alpha  occ. eigenvalues --   -0.67769  -0.64957  -0.57464  -0.54774  -0.47287
 Alpha  occ. eigenvalues --   -0.46172  -0.43549  -0.31282
 Alpha virt. eigenvalues --    0.06793   0.15447   0.16815   0.23662   0.27258
 Alpha virt. eigenvalues --    0.28656   0.34136   0.38237   0.51895   0.58708
 Alpha virt. eigenvalues --    0.63983

 Mulliken charges:
               1
     1  C   -0.207368
     2  C   -2.046252
     3  O    3.423333
     4  C   -2.005775
     5  C   -0.133925
     6  H    0.186957
     7  H    0.292184
     8  H    0.299322
     9  H    0.191523
 Sum of Mulliken charges =   0.00000

 Dipole moment (field-independent basis, Debye):
    X=             -1.4659    Y=             -9.8973    Z=             -0.6226  Tot=             10.0246
 N-N= 1.046524203369D+02 E-N=-1.705482227704D+02  KE=-1.439816011453D+01
 Orbital energies and kinetic energies (alpha):
                                 1                 2
   1         O                -1.870522         -1.297559
   2         O                -1.124865         -0.957205
   3         O                -0.892775         -0.778325
   4         O                -0.808954         -0.543549
   5         O                -0.750447         -0.643514
   6         O                -0.677689         -0.545906
   7         O                -0.649569         -0.495343

 Normal termination of Gaussian 09 at Tue Dec 15 17:07:45 2015.
