 Gaussian 09, Revision D.01,
 Gaussian 09:  ES64L-G09RevD.01 24-Apr-2013

 ------------------------------------------------------------
 #P AM1(Input,print) CIS(Singlets,NStates=15) pop(full) force
 ------------------------------------------------------------

 -----------------
 AM1-Reparam Input
 -----------------
 Symbolic Z-matrix:
 Charge =  0 Multiplicity = 1

                         Standard orientation:
 ---------------------------------------------------------------------
 Center     Atomic      Atomic             Coordinates (Angstroms)
 Number     Number       Type             X           Y           Z
 ---------------------------------------------------------------------
      1          6           0       -1.019760    0.708164   -0.025687
      2          6           0       -0.988633   -0.636175    0.046698
      3          8           0        0.370198   -1.136602   -0.036632
      4          6           0        1.185691    0.017817    0.028300
      5          6           0        0.420975    1.089536   -0.014464
      6          1           0        0.751393    2.181483    0.045415
      7          1           0        2.241335   -0.147917    0.023371
      8          1           0       -1.664749   -1.364004    0.025908
      9          1           0       -1.879206    1.347208   -0.010723
 ---------------------------------------------------------------------

 SCF Done:  E(RAM1) =   1.17257103771     A.U. after   13 cycles

 Excitation energies and oscillator strengths:

 Excited State   1:      Singlet-A      5.1426 eV  241.09 nm  f=0.1936  <S**2>=0.000
      12 -> 15         0.14852
      13 -> 14         0.68031
 This state for optimization and/or second-order correction.
 Total Energy, E(CIS) =   1.36155875092
 Copying the excited state density for this state as the 1-particle RhoCI density.

 Excited State   2:      Singlet-A      5.9337 eV  208.95 nm  f=0.0459  <S**2>=0.000
      12 -> 14        -0.17159
      13 -> 15         0.53724
      13 -> 16        -0.35726
      13 -> 17        -0.14349
      13 -> 19        -0.11000

 Excited State   3:      Singlet-A      6.1552 eV  201.43 nm  f=0.0254  <S**2>=0.000
      12 -> 14        -0.16081
      13 -> 15         0.36430
      13 -> 16         0.52101
      13 -> 17         0.15712
      13 -> 19         0.13731

 Excited State   4:      Singlet-A      6.5004 eV  190.73 nm  f=0.0005  <S**2>=0.000
      13 -> 16        -0.20363
      13 -> 17         0.63708
      13 -> 18        -0.11848
      13 -> 21         0.10847

 Excited State   5:      Singlet-A      6.9460 eV  178.50 nm  f=0.0008  <S**2>=0.000
       9 -> 14         0.10706
      11 -> 14         0.68093
      12 -> 14         0.12095

 Excited State   6:      Singlet-A      7.6671 eV  161.71 nm  f=0.0021  <S**2>=0.000
       9 -> 15        -0.10540
      10 -> 14         0.22211
      11 -> 15         0.30716
      13 -> 16        -0.13151
      13 -> 18         0.46357
      13 -> 19         0.22417
      13 -> 20         0.12172
      13 -> 23         0.11335

 Excited State   7:      Singlet-A      7.7573 eV  159.83 nm  f=0.0145  <S**2>=0.000
       9 -> 15        -0.15152
      10 -> 14         0.24641
      10 -> 15         0.10512
      11 -> 15         0.42901
      12 -> 14         0.14026
      13 -> 16         0.11195
      13 -> 18        -0.38805

 Excited State   8:      Singlet-A      7.8493 eV  157.96 nm  f=0.2200  <S**2>=0.000
      11 -> 14        -0.12480
      11 -> 15        -0.12980
      12 -> 14         0.61555
      13 -> 15         0.20399

 Excited State   9:      Singlet-A      7.9367 eV  156.22 nm  f=0.0041  <S**2>=0.000
      13 -> 17        -0.14692
      13 -> 18        -0.23934
      13 -> 19         0.54013
      13 -> 20         0.24810
      13 -> 24         0.16582

 Excited State  10:      Singlet-A      8.1804 eV  151.56 nm  f=0.0724  <S**2>=0.000
      10 -> 14         0.51195
      11 -> 15        -0.17739
      12 -> 15        -0.40348

 Excited State  11:      Singlet-A      8.2462 eV  150.35 nm  f=0.1449  <S**2>=0.000
      10 -> 14         0.33195
      11 -> 15        -0.28796
      12 -> 15         0.48309
      13 -> 14        -0.11135

 Excited State  12:      Singlet-A      8.7467 eV  141.75 nm  f=0.0065  <S**2>=0.000
      12 -> 16         0.52815
      12 -> 17         0.17329
      12 -> 19         0.10315
      13 -> 21        -0.22870
      13 -> 22         0.31246

 Excited State  13:      Singlet-A      8.8529 eV  140.05 nm  f=0.0011  <S**2>=0.000
      12 -> 16         0.27225
      12 -> 17        -0.13853
      13 -> 19        -0.19950
      13 -> 20         0.40378
      13 -> 21         0.37221
      13 -> 22        -0.18115

 Excited State  14:      Singlet-A      9.0096 eV  137.61 nm  f=0.0039  <S**2>=0.000
      11 -> 17        -0.10755
      12 -> 16         0.13046
      12 -> 17         0.38901
      13 -> 20        -0.34053
      13 -> 21         0.38344
      13 -> 22        -0.14553

 Excited State  15:      Singlet-A      9.3127 eV  133.13 nm  f=0.0328  <S**2>=0.000
      10 -> 16        -0.14927
      10 -> 20         0.15136
      11 -> 16        -0.31554
      11 -> 17         0.36346
      11 -> 18        -0.29949
      12 -> 15         0.15778
      12 -> 17         0.16693

 The electronic state is 1-A.
 Alpha  occ. eigenvalues --   -1.76973  -1.17054  -0.98503  -0.85512  -0.81050
 Alpha  occ. eigenvalues --   -0.73393  -0.69051  -0.60230  -0.56251  -0.51952
 Alpha  occ. eigenvalues --   -0.48003  -0.46930  -0.36035
 Alpha virt. eigenvalues --    0.03668   0.07083   0.11180   0.12454   0.18066
 Alpha virt. eigenvalues --    0.19005   0.20177   0.22493   0.24689   0.27132
 Alpha virt. eigenvalues --    0.27520

 Mulliken charges:
               1
     1  C   -0.110014
     2  C   -1.171925
     3  O    2.066131
     4  C   -1.171671
     5  C   -0.184389
     6  H    0.120099
     7  H    0.188579
     8  H    0.160653
     9  H    0.102536
 Sum of Mulliken charges =   0.00000

 Dipole moment (field-independent basis, Debye):
    X=              2.5903    Y=             -7.1810    Z=             -0.6006  Tot=              7.6575
 N-N= 1.033333968914D+02 E-N=-1.694688880432D+02  KE=-1.483401148711D+01
 Orbital energies and kinetic energies (alpha):
                                 1                 2
   1         O                -1.769732         -1.180576
   2         O                -1.170536         -0.955925
   3         O                -0.985031         -0.843944
   4         O                -0.855120         -0.608284
   5         O                -0.810501         -0.691336
   6         O                -0.733933         -0.579240
   7         O                -0.690513         -0.501926

 Normal termination of Gaussian 09 at Tue Dec 15 17:05:40 2015.
