 Gaussian 09, Revision D.01,
 Gaussian 09:  ES64L-G09RevD.01 24-Apr-2013

 ------------------------------------------------------------
 #P AM1(Input,print) CIS(Singlets,NStates=15) pop(full) force
 ------------------------------------------------------------

 -----------------
 AM1-Reparam Input
 -----------------
 Symbolic Z-matrix:
 Charge =  0 Multiplicity = 1

                         Standard orientation:
 ---------------------------------------------------------------------
 Center     Atomic      Atomic             Coordinates (Angstroms)
 Number     Number       Type             X           Y           Z
 ---------------------------------------------------------------------
      1          6           0       -0.923480    0.800700    0.007144
      2          6           0       -1.009410   -0.554554   -0.002617
      3          8           0        0.229269   -1.121560    0.003120
      4          6           0        1.170285   -0.149929    0.002709
      5          6           0        0.523621    1.086046   -0.008737
      6          1           0        0.971874    2.054273    0.038401
      7          1           0        2.139677   -0.461506   -0.026468
      8          1           0       -1.856605   -1.193391    0.002057
      9          1           0       -1.655201    1.479529   -0.029949
 ---------------------------------------------------------------------

 SCF Done:  E(RAM1) =   2.52171209678     A.U. after   13 cycles

 Excitation energies and oscillator strengths:

 Excited State   1:      Singlet-A      5.2169 eV  237.66 nm  f=0.3662  <S**2>=0.000
      13 -> 14         0.69706
 This state for optimization and/or second-order correction.
 Total Energy, E(CIS) =   2.71342908727
 Copying the excited state density for this state as the 1-particle RhoCI density.

 Excited State   2:      Singlet-A      6.5229 eV  190.07 nm  f=0.0043  <S**2>=0.000
      13 -> 15         0.65843
      13 -> 17         0.18350

 Excited State   3:      Singlet-A      6.6587 eV  186.20 nm  f=0.0022  <S**2>=0.000
      13 -> 16         0.64657
      13 -> 18        -0.21857

 Excited State   4:      Singlet-A      6.6839 eV  185.50 nm  f=0.0000  <S**2>=0.000
       9 -> 14        -0.12422
      12 -> 14         0.69134

 Excited State   5:      Singlet-A      7.7578 eV  159.82 nm  f=0.0005  <S**2>=0.000
      13 -> 15        -0.11901
      13 -> 16         0.13047
      13 -> 17         0.22608
      13 -> 18         0.54115
      13 -> 19        -0.18833
      13 -> 20        -0.20168
      13 -> 21         0.18370

 Excited State   6:      Singlet-A      7.9701 eV  155.56 nm  f=0.0053  <S**2>=0.000
      10 -> 14         0.69542

 Excited State   7:      Singlet-A      8.4993 eV  145.88 nm  f=0.0096  <S**2>=0.000
      10 -> 14        -0.10169
      11 -> 16         0.13728
      13 -> 15        -0.12013
      13 -> 16        -0.12799
      13 -> 17         0.61752
      13 -> 18        -0.18829

 Excited State   8:      Singlet-A      8.6789 eV  142.86 nm  f=0.1189  <S**2>=0.000
      11 -> 14         0.69269

 Excited State   9:      Singlet-A      8.9825 eV  138.03 nm  f=0.0007  <S**2>=0.000
      11 -> 15        -0.10502
      13 -> 16         0.11807
      13 -> 18         0.13370
      13 -> 19         0.65496

 Excited State  10:      Singlet-A      9.4693 eV  130.93 nm  f=0.0160  <S**2>=0.000
      12 -> 15        -0.11042
      12 -> 16         0.10921
      12 -> 18        -0.11915
      13 -> 18         0.26746
      13 -> 20         0.52075
      13 -> 21        -0.28492

 Excited State  11:      Singlet-A      9.4975 eV  130.54 nm  f=0.0488  <S**2>=0.000
       8 -> 15        -0.10460
      10 -> 15        -0.10840
      10 -> 16        -0.11176
      10 -> 17        -0.17507
      12 -> 15         0.32654
      12 -> 16        -0.30730
      12 -> 17         0.10984
      12 -> 18         0.31443
      13 -> 20         0.17063
      13 -> 21        -0.13863

 Excited State  12:      Singlet-A      9.7810 eV  126.76 nm  f=0.0030  <S**2>=0.000
       9 -> 14         0.67093
      12 -> 14         0.11999
      13 -> 20        -0.13029

 Excited State  13:      Singlet-A      9.8941 eV  125.31 nm  f=0.0177  <S**2>=0.000
      10 -> 15         0.10888
      10 -> 16        -0.15277
      12 -> 15         0.43450
      12 -> 16         0.44818
      12 -> 17         0.14332

 Excited State  14:      Singlet-A      9.9311 eV  124.84 nm  f=0.0867  <S**2>=0.000
       9 -> 14         0.10674
      11 -> 16        -0.10384
      12 -> 15         0.13150
      13 -> 20         0.32909
      13 -> 21         0.57157

 Excited State  15:      Singlet-A     10.0259 eV  123.66 nm  f=0.1612  <S**2>=0.000
       9 -> 16         0.15136
      10 -> 15        -0.28999
      10 -> 16        -0.19181
      10 -> 17        -0.19292
      12 -> 15        -0.29037
      12 -> 16         0.31077
      12 -> 17         0.12422
      12 -> 18         0.17529
      12 -> 19        -0.20395
      13 -> 21         0.10957

 The electronic state is 1-A.
 Alpha  occ. eigenvalues --   -1.73860  -1.14687  -0.96287  -0.81751  -0.76962
 Alpha  occ. eigenvalues --   -0.68097  -0.64249  -0.56436  -0.50196  -0.45760
 Alpha  occ. eigenvalues --   -0.44529  -0.41338  -0.29256
 Alpha virt. eigenvalues --    0.09992   0.17978   0.18741   0.25610   0.26751
 Alpha virt. eigenvalues --    0.28611   0.30289   0.31500   0.39668   0.48462
 Alpha virt. eigenvalues --    0.53806

 Mulliken charges:
               1
     1  C   -0.044711
     2  C   -1.936185
     3  O    3.234130
     4  C   -1.931344
     5  C   -0.085149
     6  H    0.124111
     7  H    0.253529
     8  H    0.267516
     9  H    0.118104
 Sum of Mulliken charges =   0.00000

 Dipole moment (field-independent basis, Debye):
    X=              1.6863    Y=            -10.0321    Z=              0.0069  Tot=             10.1729
 N-N= 1.036468671990D+02 E-N=-1.683369910185D+02  KE=-1.504517610394D+01
 Orbital energies and kinetic energies (alpha):
                                 1                 2
   1         O                -1.738602         -1.232214
   2         O                -1.146873         -1.005361
   3         O                -0.962873         -0.863398
   4         O                -0.817505         -0.630431
   5         O                -0.769616         -0.695717
   6         O                -0.680968         -0.576598
   7         O                -0.642486         -0.513899

 Normal termination of Gaussian 09 at Tue Dec 15 17:06:15 2015.
