 Gaussian 09, Revision D.01,
 Gaussian 09:  ES64L-G09RevD.01 24-Apr-2013

 ------------------------------------------------------------
 #P AM1(Input,print) CIS(Singlets,NStates=15) pop(full) force
 ------------------------------------------------------------

 -----------------
 AM1-Reparam Input
 -----------------
 Symbolic Z-matrix:
 Charge =  0 Multiplicity = 1

                         Standard orientation:
 ---------------------------------------------------------------------
 Center     Atomic      Atomic             Coordinates (Angstroms)
 Number     Number       Type             X           Y           Z
 ---------------------------------------------------------------------
      1          6           0       -0.743755    0.928976   -0.008493
      2          6           0       -1.092569   -0.362042   -0.008402
      3          8           0       -0.006767   -1.137432    0.000742
      4          6           0        1.131052   -0.315910   -0.016647
      5          6           0        0.702879    0.929417    0.010949
      6          1           0        1.371381    1.803845    0.032348
      7          1           0        2.052946   -0.811230    0.032611
      8          1           0       -1.994924   -0.820840    0.078009
      9          1           0       -1.360904    1.845042   -0.013350
 ---------------------------------------------------------------------

 SCF Done:  E(RAM1) =   1.82850536062     A.U. after   14 cycles

 Excitation energies and oscillator strengths:

 Excited State   1:      Singlet-A      5.3142 eV  233.31 nm  f=0.3553  <S**2>=0.000
      13 -> 14         0.69328
 This state for optimization and/or second-order correction.
 Total Energy, E(CIS) =   2.02380029773
 Copying the excited state density for this state as the 1-particle RhoCI density.

 Excited State   2:      Singlet-A      6.5348 eV  189.73 nm  f=0.0053  <S**2>=0.000
      13 -> 15         0.67808
      13 -> 17        -0.13081
      13 -> 19         0.10081

 Excited State   3:      Singlet-A      6.8754 eV  180.33 nm  f=0.0030  <S**2>=0.000
      13 -> 16         0.66714
      13 -> 18        -0.15645
      13 -> 19        -0.11209

 Excited State   4:      Singlet-A      7.3187 eV  169.41 nm  f=0.0003  <S**2>=0.000
      12 -> 14         0.69976

 Excited State   5:      Singlet-A      7.9295 eV  156.36 nm  f=0.0002  <S**2>=0.000
      13 -> 16        -0.12208
      13 -> 17         0.53807
      13 -> 18        -0.36003
      13 -> 21         0.21471

 Excited State   6:      Singlet-A      8.1834 eV  151.51 nm  f=0.0061  <S**2>=0.000
      11 -> 14         0.69665

 Excited State   7:      Singlet-A      8.9251 eV  138.92 nm  f=0.0049  <S**2>=0.000
      10 -> 16        -0.10004
      13 -> 17         0.38131
      13 -> 18         0.55320

 Excited State   8:      Singlet-A      9.1918 eV  134.89 nm  f=0.0860  <S**2>=0.000
      10 -> 14         0.66268
      12 -> 17        -0.13273

 Excited State   9:      Singlet-A      9.4880 eV  130.67 nm  f=0.0004  <S**2>=0.000
      13 -> 19         0.66626

 Excited State  10:      Singlet-A      9.6824 eV  128.05 nm  f=0.0103  <S**2>=0.000
       9 -> 15        -0.11123
      10 -> 14         0.11706
      11 -> 15         0.10998
      11 -> 16         0.21126
      11 -> 18        -0.23991
      12 -> 15        -0.33705
      12 -> 16         0.16716
      12 -> 17         0.35154
      12 -> 18        -0.18167

 Excited State  11:      Singlet-A     10.1893 eV  121.68 nm  f=0.0253  <S**2>=0.000
      13 -> 17        -0.16242
      13 -> 18         0.11543
      13 -> 19         0.12158
      13 -> 20        -0.38538
      13 -> 21         0.53370

 Excited State  12:      Singlet-A     10.2490 eV  120.97 nm  f=0.2189  <S**2>=0.000
      11 -> 15         0.40536
      11 -> 16         0.10216
      12 -> 15         0.45243
      12 -> 16        -0.15704
      12 -> 17         0.12243
      12 -> 18        -0.11372
      12 -> 19         0.11680

 Excited State  13:      Singlet-A     10.2697 eV  120.73 nm  f=0.0923  <S**2>=0.000
      11 -> 16        -0.22556
      12 -> 15         0.18084
      12 -> 16         0.60006

 Excited State  14:      Singlet-A     10.4440 eV  118.71 nm  f=0.0815  <S**2>=0.000
      10 -> 15         0.11462
      13 -> 20         0.55983
      13 -> 21         0.38387

 Excited State  15:      Singlet-A     10.7684 eV  115.14 nm  f=0.0053  <S**2>=0.000
       7 -> 15        -0.11769
      10 -> 15         0.61384
      10 -> 16         0.17198
      11 -> 15         0.10796
      13 -> 15        -0.10588

 The electronic state is 1-A.
 Alpha  occ. eigenvalues --   -2.00439  -1.27464  -1.02805  -0.90100  -0.85896
 Alpha  occ. eigenvalues --   -0.77270  -0.75082  -0.65088  -0.62031  -0.53257
 Alpha  occ. eigenvalues --   -0.52036  -0.49341  -0.36340
 Alpha virt. eigenvalues --    0.03973   0.11297   0.12674   0.19540   0.19939
 Alpha virt. eigenvalues --    0.22844   0.25346   0.26602   0.28400   0.36296
 Alpha virt. eigenvalues --    0.41802

 Mulliken charges:
               1
     1  C   -0.187687
     2  C   -1.890884
     3  O    3.179712
     4  C   -1.862044
     5  C   -0.111473
     6  H    0.158394
     7  H    0.268815
     8  H    0.280590
     9  H    0.164577
 Sum of Mulliken charges =   0.00000

 Dipole moment (field-independent basis, Debye):
    X=             -0.1419    Y=            -10.4530    Z=              0.4302  Tot=             10.4628
 N-N= 1.059302120958D+02 E-N=-1.709679482275D+02  KE=-1.569249569055D+01
 Orbital energies and kinetic energies (alpha):
                                 1                 2
   1         O                -2.004390         -1.382025
   2         O                -1.274635         -1.040172
   3         O                -1.028055         -0.893481
   4         O                -0.901000         -0.594739
   5         O                -0.858958         -0.716047
   6         O                -0.772704         -0.588181
   7         O                -0.750820         -0.549595

 Normal termination of Gaussian 09 at Tue Dec 15 17:09:09 2015.
