 Gaussian 09, Revision D.01,
 Gaussian 09:  ES64L-G09RevD.01 24-Apr-2013

 ------------------------------------------------------------
 #P AM1(Input,print) CIS(Singlets,NStates=15) pop(full) force
 ------------------------------------------------------------

 -----------------
 AM1-Reparam Input
 -----------------
 Symbolic Z-matrix:
 Charge =  0 Multiplicity = 1

                         Standard orientation:
 ---------------------------------------------------------------------
 Center     Atomic      Atomic             Coordinates (Angstroms)
 Number     Number       Type             X           Y           Z
 ---------------------------------------------------------------------
      1          6           0       -0.743755    0.928976   -0.008493
      2          6           0       -1.092569   -0.362042   -0.008402
      3          8           0       -0.006767   -1.137432    0.000742
      4          6           0        1.131052   -0.315910   -0.016647
      5          6           0        0.702879    0.929417    0.010949
      6          1           0        1.371381    1.803845    0.032348
      7          1           0        2.052946   -0.811230    0.032611
      8          1           0       -1.994924   -0.820840    0.078009
      9          1           0       -1.360904    1.845042   -0.013350
 ---------------------------------------------------------------------

 SCF Done:  E(RAM1) =  0.255674395034E-01 A.U. after   13 cycles

 Excitation energies and oscillator strengths:

 Excited State   1:      Singlet-A      4.6529 eV  266.47 nm  f=0.0791  <S**2>=0.000
      12 -> 15         0.21661
      13 -> 14         0.66331
 This state for optimization and/or second-order correction.
 Total Energy, E(CIS) =  0.196558139105
 Copying the excited state density for this state as the 1-particle RhoCI density.

 Excited State   2:      Singlet-A      5.1227 eV  242.03 nm  f=0.0006  <S**2>=0.000
      13 -> 16         0.68637

 Excited State   3:      Singlet-A      5.2671 eV  235.39 nm  f=0.0030  <S**2>=0.000
      12 -> 14        -0.44841
      13 -> 15         0.53574

 Excited State   4:      Singlet-A      5.8468 eV  212.06 nm  f=0.0041  <S**2>=0.000
       7 -> 16        -0.17226
      12 -> 16         0.65755
      12 -> 22         0.13195

 Excited State   5:      Singlet-A      6.0998 eV  203.26 nm  f=0.0003  <S**2>=0.000
      12 -> 18         0.18104
      12 -> 20         0.11071
      12 -> 22        -0.10102
      13 -> 18         0.48401
      13 -> 19         0.14257
      13 -> 20         0.19236
      13 -> 21         0.11362
      13 -> 22        -0.22096
      13 -> 23         0.22573

 Excited State   6:      Singlet-A      6.3249 eV  196.03 nm  f=0.3692  <S**2>=0.000
      11 -> 16        -0.15163
      12 -> 14         0.48854
      13 -> 15         0.41838
      13 -> 17        -0.11618

 Excited State   7:      Singlet-A      6.3563 eV  195.06 nm  f=0.0185  <S**2>=0.000
      12 -> 14         0.10143
      12 -> 17        -0.11343
      12 -> 18        -0.14668
      12 -> 19         0.17462
      12 -> 20         0.11890
      12 -> 21        -0.10574
      12 -> 22        -0.12973
      12 -> 23        -0.14843
      13 -> 17         0.28695
      13 -> 18         0.14975
      13 -> 19        -0.27235
      13 -> 20        -0.18133
      13 -> 22         0.23303
      13 -> 23         0.20037

 Excited State   8:      Singlet-A      6.4741 eV  191.51 nm  f=0.1104  <S**2>=0.000
      12 -> 15         0.65578
      13 -> 14        -0.20078

 Excited State   9:      Singlet-A      6.6306 eV  186.99 nm  f=0.0090  <S**2>=0.000
      12 -> 17         0.11075
      12 -> 23         0.10688
      13 -> 17         0.51364
      13 -> 18        -0.20880
      13 -> 19         0.29408
      13 -> 20         0.13042
      13 -> 23         0.11050

 Excited State  10:      Singlet-A      7.1079 eV  174.43 nm  f=0.0020  <S**2>=0.000
       9 -> 15         0.17132
      10 -> 14         0.29376
      11 -> 14        -0.34281
      12 -> 17         0.36799
      12 -> 18        -0.22639
      12 -> 21        -0.14416
      13 -> 17        -0.11760
      13 -> 19         0.11043

 Excited State  11:      Singlet-A      7.1287 eV  173.92 nm  f=0.0041  <S**2>=0.000
       9 -> 15        -0.18010
      10 -> 14        -0.33527
      11 -> 14         0.28978
      12 -> 17         0.35812
      12 -> 18        -0.18960
      12 -> 19         0.10659
      12 -> 21        -0.16184
      13 -> 18         0.12143

 Excited State  12:      Singlet-A      7.4823 eV  165.70 nm  f=0.0009  <S**2>=0.000
       9 -> 14        -0.15370
      11 -> 15         0.18450
      12 -> 17        -0.20149
      12 -> 18        -0.28369
      12 -> 19         0.16400
      12 -> 21         0.12567
      12 -> 22        -0.12636
      13 -> 17        -0.13468
      13 -> 18        -0.15231
      13 -> 19         0.32219
      13 -> 21         0.20214
      13 -> 24        -0.13700

 Excited State  13:      Singlet-A      7.5692 eV  163.80 nm  f=0.0007  <S**2>=0.000
       8 -> 14        -0.10452
       9 -> 14         0.43411
      10 -> 14         0.20653
      10 -> 15         0.38860
      11 -> 14         0.23853

 Excited State  14:      Singlet-A      7.6861 eV  161.31 nm  f=0.0011  <S**2>=0.000
       9 -> 14        -0.19400
      10 -> 14         0.17165
      11 -> 14         0.31135
      11 -> 15         0.14482
      12 -> 18        -0.18808
      12 -> 19        -0.30135
      12 -> 22         0.15939
      13 -> 18         0.23476
      13 -> 19         0.12587
      13 -> 20        -0.10850
      13 -> 21        -0.11195
      13 -> 24         0.14640

 Excited State  15:      Singlet-A      7.7568 eV  159.84 nm  f=0.0003  <S**2>=0.000
       9 -> 14        -0.16636
      10 -> 14         0.35744
      10 -> 15        -0.18670
      11 -> 14         0.31090
      11 -> 15        -0.15664
      12 -> 19         0.16342
      12 -> 22        -0.11917
      13 -> 17        -0.18362
      13 -> 18        -0.16822
      13 -> 23         0.10896

 The electronic state is 1-A.
 Alpha  occ. eigenvalues --   -1.57339  -1.23211  -1.12139  -0.82415  -0.81545
 Alpha  occ. eigenvalues --   -0.68880  -0.60271  -0.57114  -0.51132  -0.50125
 Alpha  occ. eigenvalues --   -0.49478  -0.39637  -0.35424
 Alpha virt. eigenvalues --    0.03367   0.06553   0.09538   0.14245   0.14831
 Alpha virt. eigenvalues --    0.15677   0.17889   0.18250   0.19485   0.20605
 Alpha virt. eigenvalues --    0.22474

 Mulliken charges:
               1
     1  C   -0.229158
     2  C   -0.057090
     3  O   -0.109011
     4  C   -0.092618
     5  C   -0.195606
     6  H    0.154675
     7  H    0.188101
     8  H    0.176975
     9  H    0.163731
 Sum of Mulliken charges =   0.00000

 Dipole moment (field-independent basis, Debye):
    X=              0.0860    Y=              0.4988    Z=              0.1352  Tot=              0.5239
 N-N= 1.038398280288D+02 E-N=-1.716533835357D+02  KE=-1.660093349578D+01
 Orbital energies and kinetic energies (alpha):
                                 1                 2
   1         O                -1.573388         -1.324167
   2         O                -1.232108         -1.042570
   3         O                -1.121391         -0.977261
   4         O                -0.824152         -0.711710
   5         O                -0.815454         -0.719858
   6         O                -0.688796         -0.605081
   7         O                -0.602710         -0.489719

 Normal termination of Gaussian 09 at Tue Dec 15 16:29:44 2015.
