 Gaussian 09, Revision D.01,
 Gaussian 09:  ES64L-G09RevD.01 24-Apr-2013

 ------------------------------------------------------------
 #P AM1(Input,print) CIS(Singlets,NStates=15) pop(full) force
 ------------------------------------------------------------

 -----------------
 AM1-Reparam Input
 -----------------
 Symbolic Z-matrix:
 Charge =  0 Multiplicity = 1

                         Standard orientation:
 ---------------------------------------------------------------------
 Center     Atomic      Atomic             Coordinates (Angstroms)
 Number     Number       Type             X           Y           Z
 ---------------------------------------------------------------------
      1          6           0       -0.716696    0.974194   -0.001533
      2          6           0       -1.107298   -0.366008   -0.010851
      3          8           0       -0.014993   -1.126145    0.021393
      4          6           0        1.125713   -0.343801   -0.025532
      5          6           0        0.713331    0.902906    0.003358
      6          1           0        1.455381    1.817331    0.048706
      7          1           0        2.036707   -0.850826   -0.004192
      8          1           0       -2.092884   -0.817018   -0.011359
      9          1           0       -1.369558    1.855927    0.003043
 ---------------------------------------------------------------------

 SCF Done:  E(RAM1) =   2.52030433677     A.U. after   13 cycles

 Excitation energies and oscillator strengths:

 Excited State   1:      Singlet-A      5.3166 eV  233.20 nm  f=0.3455  <S**2>=0.000
      13 -> 14         0.69510
 This state for optimization and/or second-order correction.
 Total Energy, E(CIS) =   2.71568572855
 Copying the excited state density for this state as the 1-particle RhoCI density.

 Excited State   2:      Singlet-A      6.3854 eV  194.17 nm  f=0.0050  <S**2>=0.000
      13 -> 15         0.65119
      13 -> 17        -0.18861
      13 -> 19         0.12140

 Excited State   3:      Singlet-A      6.7492 eV  183.70 nm  f=0.0009  <S**2>=0.000
       9 -> 14         0.10425
      12 -> 14         0.63311
      13 -> 16        -0.25910

 Excited State   4:      Singlet-A      6.7972 eV  182.40 nm  f=0.0007  <S**2>=0.000
      12 -> 14         0.28293
      13 -> 16         0.59977
      13 -> 19        -0.14065

 Excited State   5:      Singlet-A      7.7319 eV  160.35 nm  f=0.0018  <S**2>=0.000
      11 -> 14        -0.30922
      13 -> 15         0.12709
      13 -> 17         0.42536
      13 -> 18        -0.32139
      13 -> 21         0.27951

 Excited State   6:      Singlet-A      7.8348 eV  158.25 nm  f=0.0036  <S**2>=0.000
      10 -> 14         0.14911
      11 -> 14         0.59337
      13 -> 17         0.14940
      13 -> 18        -0.24813
      13 -> 21         0.15521

 Excited State   7:      Singlet-A      8.2425 eV  150.42 nm  f=0.0032  <S**2>=0.000
      10 -> 16         0.11192
      11 -> 14         0.10352
      13 -> 15         0.10614
      13 -> 16         0.13324
      13 -> 17         0.48411
      13 -> 18         0.39705
      13 -> 21        -0.19021

 Excited State   8:      Singlet-A      8.7841 eV  141.15 nm  f=0.0036  <S**2>=0.000
      10 -> 15         0.10913
      13 -> 15        -0.11089
      13 -> 18        -0.28810
      13 -> 19         0.56528
      13 -> 20         0.12776
      13 -> 21        -0.17258

 Excited State   9:      Singlet-A      8.8193 eV  140.58 nm  f=0.0707  <S**2>=0.000
      10 -> 14         0.64737
      11 -> 14        -0.16019
      12 -> 17         0.14835

 Excited State  10:      Singlet-A      9.3162 eV  133.08 nm  f=0.0028  <S**2>=0.000
      13 -> 18         0.27001
      13 -> 19         0.30475
      13 -> 21         0.54403

 Excited State  11:      Singlet-A      9.3631 eV  132.42 nm  f=0.0963  <S**2>=0.000
      10 -> 14         0.14757
      11 -> 16        -0.19739
      11 -> 17         0.18166
      11 -> 18         0.15151
      12 -> 15         0.36016
      12 -> 17        -0.32650
      12 -> 18         0.21916

 Excited State  12:      Singlet-A      9.6457 eV  128.54 nm  f=0.1479  <S**2>=0.000
      12 -> 16         0.65511
      12 -> 19        -0.11256

 Excited State  13:      Singlet-A      9.7642 eV  126.98 nm  f=0.0947  <S**2>=0.000
       9 -> 14        -0.23972
      13 -> 19        -0.10398
      13 -> 20         0.62467

 Excited State  14:      Singlet-A      9.8102 eV  126.38 nm  f=0.1289  <S**2>=0.000
       9 -> 14         0.18855
      10 -> 14        -0.10449
      11 -> 15         0.36660
      11 -> 17        -0.13072
      12 -> 15         0.44915
      12 -> 17         0.10029
      12 -> 18        -0.17457

 Excited State  15:      Singlet-A      9.8476 eV  125.90 nm  f=0.0254  <S**2>=0.000
       9 -> 14         0.60497
      11 -> 15        -0.11225
      12 -> 15        -0.13637
      13 -> 20         0.21157
      13 -> 21         0.12009

 The electronic state is 1-A.
 Alpha  occ. eigenvalues --   -1.74754  -1.14941  -0.96503  -0.80859  -0.76479
 Alpha  occ. eigenvalues --   -0.66826  -0.64958  -0.56945  -0.50173  -0.44830
 Alpha  occ. eigenvalues --   -0.44292  -0.40629  -0.29434
 Alpha virt. eigenvalues --    0.10657   0.17349   0.18952   0.23632   0.26357
 Alpha virt. eigenvalues --    0.27816   0.30296   0.30678   0.39806   0.48380
 Alpha virt. eigenvalues --    0.54104

 Mulliken charges:
               1
     1  C   -0.112186
     2  C   -1.971047
     3  O    3.241874
     4  C   -1.903523
     5  C   -0.045590
     6  H    0.126551
     7  H    0.253807
     8  H    0.280151
     9  H    0.129963
 Sum of Mulliken charges =   0.00000

 Dipole moment (field-independent basis, Debye):
    X=             -0.1446    Y=             -9.9637    Z=              0.6041  Tot=              9.9830
 N-N= 1.036992740908D+02 E-N=-1.685149710593D+02  KE=-1.501045981085D+01
 Orbital energies and kinetic energies (alpha):
                                 1                 2
   1         O                -1.747535         -1.247241
   2         O                -1.149412         -0.989180
   3         O                -0.965035         -0.864699
   4         O                -0.808592         -0.610764
   5         O                -0.764794         -0.696611
   6         O                -0.668265         -0.563093
   7         O                -0.649579         -0.523900

 Normal termination of Gaussian 09 at Tue Dec 15 17:06:15 2015.
