 Gaussian 09, Revision D.01,
 Gaussian 09:  ES64L-G09RevD.01 24-Apr-2013

 ------------------------------------------------------------
 #P AM1(Input,print) CIS(Singlets,NStates=15) pop(full) force
 ------------------------------------------------------------

 -----------------
 AM1-Reparam Input
 -----------------
 Symbolic Z-matrix:
 Charge =  0 Multiplicity = 1

                         Standard orientation:
 ---------------------------------------------------------------------
 Center     Atomic      Atomic             Coordinates (Angstroms)
 Number     Number       Type             X           Y           Z
 ---------------------------------------------------------------------
      1          6           0       -0.665865    0.957278    0.014724
      2          6           0       -1.132175   -0.269605   -0.006172
      3          8           0       -0.098945   -1.117611    0.002424
      4          6           0        1.108963   -0.423892   -0.004289
      5          6           0        0.776661    0.915995   -0.001533
      6          1           0        1.541009    1.678498   -0.014108
      7          1           0        2.043037   -1.016907    0.012523
      8          1           0       -2.092149   -0.719377   -0.010107
      9          1           0       -1.225847    1.920021   -0.024073
 ---------------------------------------------------------------------

 SCF Done:  E(RAM1) =   2.58939800120     A.U. after   13 cycles

 Excitation energies and oscillator strengths:

 Excited State   1:      Singlet-A      4.9777 eV  249.08 nm  f=0.3643  <S**2>=0.000
      13 -> 14         0.69918
 This state for optimization and/or second-order correction.
 Total Energy, E(CIS) =   2.77232495402
 Copying the excited state density for this state as the 1-particle RhoCI density.

 Excited State   2:      Singlet-A      6.1764 eV  200.74 nm  f=0.0004  <S**2>=0.000
      13 -> 15         0.64869
      13 -> 16        -0.16040
      13 -> 17         0.12357
      13 -> 19        -0.13985

 Excited State   3:      Singlet-A      6.4822 eV  191.27 nm  f=0.0033  <S**2>=0.000
      12 -> 14         0.49550
      13 -> 16        -0.47185

 Excited State   4:      Singlet-A      6.5084 eV  190.50 nm  f=0.0012  <S**2>=0.000
      12 -> 14         0.49107
      13 -> 15         0.16110
      13 -> 16         0.45188

 Excited State   5:      Singlet-A      7.2975 eV  169.90 nm  f=0.0041  <S**2>=0.000
      10 -> 14        -0.10838
      11 -> 14         0.68970

 Excited State   6:      Singlet-A      7.6869 eV  161.29 nm  f=0.0002  <S**2>=0.000
      13 -> 15        -0.10424
      13 -> 17         0.66725
      13 -> 21         0.11968

 Excited State   7:      Singlet-A      8.4333 eV  147.02 nm  f=0.1241  <S**2>=0.000
      10 -> 14         0.68906
      11 -> 14         0.10883

 Excited State   8:      Singlet-A      9.1550 eV  135.43 nm  f=0.0057  <S**2>=0.000
      10 -> 15         0.23256
      10 -> 16        -0.12273
      13 -> 18         0.62540
      13 -> 19         0.10067

 Excited State   9:      Singlet-A      9.3348 eV  132.82 nm  f=0.0398  <S**2>=0.000
      11 -> 15        -0.11809
      11 -> 16        -0.17463
      11 -> 18         0.18006
      12 -> 15         0.42374
      12 -> 16        -0.24729
      12 -> 17         0.34727

 Excited State  10:      Singlet-A      9.4394 eV  131.35 nm  f=0.0027  <S**2>=0.000
      10 -> 16         0.27281
      13 -> 19         0.61259

 Excited State  11:      Singlet-A      9.5532 eV  129.78 nm  f=0.2104  <S**2>=0.000
       9 -> 15         0.10072
      11 -> 15         0.22169
      11 -> 16         0.17898
      11 -> 18        -0.14261
      12 -> 15         0.51053
      12 -> 16         0.18241
      12 -> 17        -0.22044

 Excited State  12:      Singlet-A      9.9712 eV  124.34 nm  f=0.1437  <S**2>=0.000
      11 -> 15        -0.23099
      11 -> 16         0.49131
      11 -> 19         0.13763
      12 -> 16        -0.37539

 Excited State  13:      Singlet-A     10.2858 eV  120.54 nm  f=0.0013  <S**2>=0.000
       7 -> 15        -0.13889
       9 -> 14        -0.26163
      10 -> 15         0.54059
      10 -> 16         0.15849
      11 -> 15         0.12506
      13 -> 15        -0.13073
      13 -> 18        -0.16390
      13 -> 19        -0.11024

 Excited State  14:      Singlet-A     10.3624 eV  119.65 nm  f=0.0023  <S**2>=0.000
       9 -> 14         0.43588
      10 -> 15         0.27358
      10 -> 16        -0.36629
      13 -> 16        -0.11292
      13 -> 18        -0.19490
      13 -> 19         0.11253

 Excited State  15:      Singlet-A     10.4244 eV  118.94 nm  f=0.0436  <S**2>=0.000
       8 -> 15        -0.13555
       8 -> 16         0.16253
       9 -> 14        -0.21914
       9 -> 16        -0.17265
      10 -> 16        -0.11350
      11 -> 15        -0.16037
      11 -> 16         0.11877
      11 -> 17         0.23673
      11 -> 19         0.15025
      12 -> 16         0.31475
      12 -> 17         0.27817
      12 -> 20        -0.10003

 The electronic state is 1-A.
 Alpha  occ. eigenvalues --   -1.85150  -1.12108  -0.88886  -0.79787  -0.74272
 Alpha  occ. eigenvalues --   -0.66604  -0.63782  -0.57372  -0.55182  -0.45533
 Alpha  occ. eigenvalues --   -0.44932  -0.42841  -0.30168
 Alpha virt. eigenvalues --    0.07956   0.16134   0.17347   0.24316   0.27133
 Alpha virt. eigenvalues --    0.29015   0.35130   0.39011   0.48203   0.55268
 Alpha virt. eigenvalues --    0.60330

 Mulliken charges:
               1
     1  C   -0.237784
     2  C   -1.989358
     3  O    3.444658
     4  C   -1.998305
     5  C   -0.178372
     6  H    0.197118
     7  H    0.273270
     8  H    0.276384
     9  H    0.212390
 Sum of Mulliken charges =   0.00000

 Dipole moment (field-independent basis, Debye):
    X=             -1.1850    Y=            -10.8219    Z=              0.0836  Tot=             10.8869
 N-N= 1.039429836703D+02 E-N=-1.694390493177D+02  KE=-1.433574116539D+01
 Orbital energies and kinetic energies (alpha):
                                 1                 2
   1         O                -1.851503         -1.252449
   2         O                -1.121080         -0.947952
   3         O                -0.888857         -0.785065
   4         O                -0.797874         -0.542606
   5         O                -0.742720         -0.625241
   6         O                -0.666044         -0.537842
   7         O                -0.637822         -0.494594

 Normal termination of Gaussian 09 at Tue Dec 15 17:07:38 2015.
