 Gaussian 09, Revision D.01,
 Gaussian 09:  ES64L-G09RevD.01 24-Apr-2013

 ------------------------------------------------------------
 #P AM1(Input,print) CIS(Singlets,NStates=15) pop(full) force
 ------------------------------------------------------------

 -----------------
 AM1-Reparam Input
 -----------------
 Symbolic Z-matrix:
 Charge =  0 Multiplicity = 1

                         Standard orientation:
 ---------------------------------------------------------------------
 Center     Atomic      Atomic             Coordinates (Angstroms)
 Number     Number       Type             X           Y           Z
 ---------------------------------------------------------------------
      1          6           0        0.840675    0.877418   -0.029393
      2          6           0        1.038816   -0.456998    0.034124
      3          8           0       -0.116515   -1.147392   -0.019207
      4          6           0       -1.156456   -0.208652   -0.009037
      5          6           0       -0.596202    1.016042    0.020733
      6          1           0       -1.148709    1.900270    0.001793
      7          1           0       -2.129475   -0.596731    0.043148
      8          1           0        1.885026   -1.071493    0.022402
      9          1           0        1.564279    1.580225   -0.012250
 ---------------------------------------------------------------------

 SCF Done:  E(RAM1) =   2.14356526712     A.U. after   13 cycles

 Excitation energies and oscillator strengths:

 Excited State   1:      Singlet-A      5.4044 eV  229.41 nm  f=0.3522  <S**2>=0.000
      13 -> 14         0.69509
 This state for optimization and/or second-order correction.
 Total Energy, E(CIS) =   2.34217291684
 Copying the excited state density for this state as the 1-particle RhoCI density.

 Excited State   2:      Singlet-A      6.3450 eV  195.40 nm  f=0.0014  <S**2>=0.000
      11 -> 15         0.11058
      13 -> 15         0.67267
      13 -> 17        -0.14237

 Excited State   3:      Singlet-A      6.8428 eV  181.19 nm  f=0.0016  <S**2>=0.000
      11 -> 16        -0.11216
      13 -> 16         0.66441
      13 -> 18         0.12713
      13 -> 19        -0.10597

 Excited State   4:      Singlet-A      7.1979 eV  172.25 nm  f=0.0009  <S**2>=0.000
      12 -> 14         0.69913

 Excited State   5:      Singlet-A      8.0581 eV  153.86 nm  f=0.0036  <S**2>=0.000
      10 -> 14        -0.15998
      13 -> 15         0.10381
      13 -> 17         0.35338
      13 -> 18         0.48066
      13 -> 22        -0.29024

 Excited State   6:      Singlet-A      8.2055 eV  151.10 nm  f=0.0065  <S**2>=0.000
      10 -> 14         0.63560
      11 -> 14        -0.18863
      13 -> 18         0.20087

 Excited State   7:      Singlet-A      8.5246 eV  145.44 nm  f=0.0124  <S**2>=0.000
      10 -> 14         0.15340
      11 -> 16        -0.10413
      13 -> 16         0.11175
      13 -> 17         0.57033
      13 -> 18        -0.30282
      13 -> 22         0.11862

 Excited State   8:      Singlet-A      8.9898 eV  137.92 nm  f=0.0721  <S**2>=0.000
      10 -> 14         0.18880
      11 -> 14         0.62949
      13 -> 20        -0.17754

 Excited State   9:      Singlet-A      9.1642 eV  135.29 nm  f=0.0019  <S**2>=0.000
      13 -> 19         0.66913

 Excited State  10:      Singlet-A      9.7375 eV  127.33 nm  f=0.0033  <S**2>=0.000
      12 -> 15         0.14065
      13 -> 18         0.30991
      13 -> 22         0.59268

 Excited State  11:      Singlet-A      9.7490 eV  127.18 nm  f=0.0303  <S**2>=0.000
       8 -> 15         0.11534
       9 -> 15        -0.11723
      10 -> 16         0.12341
      10 -> 17        -0.14467
      12 -> 15         0.47632
      12 -> 16        -0.17415
      12 -> 17        -0.14902
      12 -> 18        -0.20802
      13 -> 21         0.14561
      13 -> 22        -0.14983

 Excited State  12:      Singlet-A     10.0201 eV  123.74 nm  f=0.0968  <S**2>=0.000
      12 -> 15        -0.10267
      13 -> 20         0.27726
      13 -> 21         0.60177

 Excited State  13:      Singlet-A     10.1623 eV  122.00 nm  f=0.0973  <S**2>=0.000
      10 -> 15        -0.13724
      11 -> 14         0.14786
      12 -> 15         0.10257
      12 -> 16        -0.10138
      13 -> 20         0.58562
      13 -> 21        -0.25771

 Excited State  14:      Singlet-A     10.2272 eV  121.23 nm  f=0.0446  <S**2>=0.000
      10 -> 15        -0.16616
      10 -> 17         0.12095
      11 -> 14        -0.10639
      11 -> 15         0.35824
      12 -> 15         0.26233
      12 -> 16         0.39476
      12 -> 18         0.20130

 Excited State  15:      Singlet-A     10.2790 eV  120.62 nm  f=0.1604  <S**2>=0.000
       9 -> 16         0.11312
      10 -> 16         0.20369
      10 -> 17        -0.12243
      11 -> 15        -0.28916
      11 -> 16        -0.12840
      12 -> 16         0.46649
      12 -> 17        -0.17364
      12 -> 18        -0.10945
      12 -> 19        -0.11526

 The electronic state is 1-A.
 Alpha  occ. eigenvalues --   -1.94028  -1.19634  -0.94702  -0.81778  -0.78965
 Alpha  occ. eigenvalues --   -0.70264  -0.66061  -0.55840  -0.54133  -0.45276
 Alpha  occ. eigenvalues --   -0.44840  -0.41850  -0.28884
 Alpha virt. eigenvalues --    0.11457   0.17463   0.19519   0.26305   0.28445
 Alpha virt. eigenvalues --    0.29814   0.30971   0.31860   0.32345   0.39328
 Alpha virt. eigenvalues --    0.43423

 Mulliken charges:
               1
     1  C   -0.177732
     2  C   -1.876436
     3  O    3.211908
     4  C   -1.866870
     5  C   -0.122811
     6  H    0.156099
     7  H    0.257365
     8  H    0.258699
     9  H    0.159779
 Sum of Mulliken charges =   0.00000

 Dipole moment (field-independent basis, Debye):
    X=             -0.8988    Y=            -11.0219    Z=             -0.3427  Tot=             11.0638
 N-N= 1.043592880997D+02 E-N=-1.695284533983D+02  KE=-1.537788640684D+01
 Orbital energies and kinetic energies (alpha):
                                 1                 2
   1         O                -1.940281         -1.356378
   2         O                -1.196336         -1.054806
   3         O                -0.947023         -0.895585
   4         O                -0.817775         -0.585005
   5         O                -0.789651         -0.683825
   6         O                -0.702641         -0.592964
   7         O                -0.660607         -0.526732

 Normal termination of Gaussian 09 at Tue Dec 15 17:09:27 2015.
