 Gaussian 09, Revision D.01,
 Gaussian 09:  ES64L-G09RevD.01 24-Apr-2013

 ------------------------------------------------------------
 #P AM1(Input,print) CIS(Singlets,NStates=15) pop(full) force
 ------------------------------------------------------------

 -----------------
 AM1-Reparam Input
 -----------------
 Symbolic Z-matrix:
 Charge =  0 Multiplicity = 1

                         Standard orientation:
 ---------------------------------------------------------------------
 Center     Atomic      Atomic             Coordinates (Angstroms)
 Number     Number       Type             X           Y           Z
 ---------------------------------------------------------------------
      1          6           0        0.811789    0.906537    0.025962
      2          6           0        1.075719   -0.432537   -0.019495
      3          8           0       -0.075229   -1.151355    0.012376
      4          6           0       -1.172783   -0.259584   -0.018905
      5          6           0       -0.628214    1.018835    0.000406
      6          1           0       -1.201693    1.945600   -0.018772
      7          1           0       -2.175478   -0.712502    0.035409
      8          1           0        1.920125   -1.066049   -0.008658
      9          1           0        1.539818    1.644287   -0.034797
 ---------------------------------------------------------------------

 SCF Done:  E(RAM1) =   1.68582223317     A.U. after   13 cycles

 Excitation energies and oscillator strengths:

 Excited State   1:      Singlet-A      5.3237 eV  232.89 nm  f=0.3455  <S**2>=0.000
      13 -> 14         0.69398
 This state for optimization and/or second-order correction.
 Total Energy, E(CIS) =   1.88146284819
 Copying the excited state density for this state as the 1-particle RhoCI density.

 Excited State   2:      Singlet-A      6.2794 eV  197.45 nm  f=0.0029  <S**2>=0.000
      11 -> 15         0.11650
      13 -> 15         0.64497
      13 -> 17         0.22238
      13 -> 19        -0.11286

 Excited State   3:      Singlet-A      6.7209 eV  184.48 nm  f=0.0022  <S**2>=0.000
      11 -> 16        -0.11858
      13 -> 16         0.61589
      13 -> 17         0.15106
      13 -> 19         0.20426
      13 -> 20         0.17047

 Excited State   4:      Singlet-A      7.1142 eV  174.28 nm  f=0.0007  <S**2>=0.000
      12 -> 14         0.64657
      13 -> 16        -0.10333
      13 -> 18         0.14696
      13 -> 20         0.14270

 Excited State   5:      Singlet-A      7.4039 eV  167.46 nm  f=0.0038  <S**2>=0.000
      12 -> 14        -0.23540
      13 -> 15         0.13370
      13 -> 17        -0.23004
      13 -> 18         0.27689
      13 -> 19         0.23031
      13 -> 20         0.45881

 Excited State   6:      Singlet-A      7.6546 eV  161.97 nm  f=0.0237  <S**2>=0.000
      11 -> 16         0.11221
      13 -> 15        -0.16691
      13 -> 16        -0.17693
      13 -> 17         0.59475
      13 -> 18         0.14498
      13 -> 20         0.14973

 Excited State   7:      Singlet-A      8.1039 eV  152.99 nm  f=0.0013  <S**2>=0.000
      10 -> 14         0.68708

 Excited State   8:      Singlet-A      8.3388 eV  148.68 nm  f=0.0004  <S**2>=0.000
      13 -> 16        -0.16911
      13 -> 18        -0.45368
      13 -> 19         0.47167

 Excited State   9:      Singlet-A      8.5818 eV  144.47 nm  f=0.0952  <S**2>=0.000
      11 -> 14         0.67383

 Excited State  10:      Singlet-A      8.6643 eV  143.10 nm  f=0.0077  <S**2>=0.000
      13 -> 18         0.40475
      13 -> 19         0.33408
      13 -> 20        -0.37296
      13 -> 21         0.26747

 Excited State  11:      Singlet-A      9.0730 eV  136.65 nm  f=0.0799  <S**2>=0.000
      13 -> 19        -0.16794
      13 -> 20         0.25428
      13 -> 21         0.61967

 Excited State  12:      Singlet-A      9.5075 eV  130.41 nm  f=0.0199  <S**2>=0.000
       8 -> 15         0.14414
       9 -> 19         0.11271
      10 -> 16         0.13129
      10 -> 17         0.26072
      12 -> 15         0.36009
      12 -> 16        -0.21360
      12 -> 17         0.11472
      12 -> 19        -0.14563
      12 -> 20        -0.29066
      12 -> 21         0.11891

 Excited State  13:      Singlet-A      9.7188 eV  127.57 nm  f=0.0025  <S**2>=0.000
       7 -> 15        -0.13018
      11 -> 15         0.61417
      11 -> 16         0.14184
      11 -> 17         0.15778
      13 -> 15        -0.13804

 Excited State  14:      Singlet-A      9.9781 eV  124.26 nm  f=0.1815  <S**2>=0.000
       8 -> 15         0.13449
      10 -> 15        -0.23580
      10 -> 17        -0.17813
      11 -> 14        -0.12711
      12 -> 15         0.46358
      12 -> 16         0.17217
      12 -> 20         0.25636

 Excited State  15:      Singlet-A     10.1251 eV  122.45 nm  f=0.0831  <S**2>=0.000
      10 -> 17        -0.11064
      11 -> 15        -0.16055
      11 -> 16         0.45194
      11 -> 18        -0.10055
      12 -> 16        -0.35688
      12 -> 17        -0.12398
      13 -> 16         0.12696

 The electronic state is 1-A.
 Alpha  occ. eigenvalues --   -1.90343  -1.20729  -0.99062  -0.82539  -0.80184
 Alpha  occ. eigenvalues --   -0.68455  -0.62291  -0.54805  -0.52245  -0.44138
 Alpha  occ. eigenvalues --   -0.42265  -0.41133  -0.27988
 Alpha virt. eigenvalues --    0.12053   0.17638   0.19452   0.24356   0.26977
 Alpha virt. eigenvalues --    0.28151   0.28546   0.29345   0.34970   0.43663
 Alpha virt. eigenvalues --    0.48833

 Mulliken charges:
               1
     1  C   -0.159247
     2  C   -1.931030
     3  O    3.188951
     4  C   -1.935940
     5  C   -0.107649
     6  H    0.177996
     7  H    0.294964
     8  H    0.286319
     9  H    0.185637
 Sum of Mulliken charges =   0.00000

 Dipole moment (field-independent basis, Debye):
    X=             -0.4579    Y=            -10.4895    Z=              0.4832  Tot=             10.5107
 N-N= 1.033224478739D+02 E-N=-1.682668138912D+02  KE=-1.568291858623D+01
 Orbital energies and kinetic energies (alpha):
                                 1                 2
   1         O                -1.903426         -1.354479
   2         O                -1.207285         -1.088426
   3         O                -0.990622         -0.903830
   4         O                -0.825389         -0.657236
   5         O                -0.801838         -0.690335
   6         O                -0.684549         -0.587494
   7         O                -0.622911         -0.502911

 Normal termination of Gaussian 09 at Tue Dec 15 17:07:04 2015.
