 Gaussian 09, Revision D.01,
 Gaussian 09:  ES64L-G09RevD.01 24-Apr-2013

 ------------------------------------------------------------
 #P AM1(Input,print) CIS(Singlets,NStates=15) pop(full) force
 ------------------------------------------------------------

 -----------------
 AM1-Reparam Input
 -----------------
 Symbolic Z-matrix:
 Charge =  0 Multiplicity = 1

                         Standard orientation:
 ---------------------------------------------------------------------
 Center     Atomic      Atomic             Coordinates (Angstroms)
 Number     Number       Type             X           Y           Z
 ---------------------------------------------------------------------
      1          6           0        0.136899    1.145612    0.021080
      2          6           0       -1.020423    0.469537   -0.029252
      3          8           0       -0.771031   -0.829433    0.032619
      4          6           0        0.514860   -0.998840   -0.016891
      5          6           0        1.165948    0.247622   -0.024180
      6          1           0        2.287033    0.389486    0.061056
      7          1           0        0.891306   -1.977307   -0.014250
      8          1           0       -2.083258    0.774374   -0.043303
      9          1           0        0.289466    2.265327    0.031001
 ---------------------------------------------------------------------

 SCF Done:  E(RAM1) =   2.03359239995     A.U. after   14 cycles

 Excitation energies and oscillator strengths:

 Excited State   1:      Singlet-A      5.7577 eV  215.34 nm  f=0.3261  <S**2>=0.000
      13 -> 14         0.69071
 This state for optimization and/or second-order correction.
 Total Energy, E(CIS) =   2.24518403175
 Copying the excited state density for this state as the 1-particle RhoCI density.

 Excited State   2:      Singlet-A      6.9794 eV  177.64 nm  f=0.0045  <S**2>=0.000
      12 -> 14         0.66960
      13 -> 15        -0.17334

 Excited State   3:      Singlet-A      7.0216 eV  176.58 nm  f=0.0121  <S**2>=0.000
      12 -> 14         0.17658
      13 -> 15         0.58490
      13 -> 16        -0.25560
      13 -> 17        -0.19709

 Excited State   4:      Singlet-A      7.3219 eV  169.33 nm  f=0.0009  <S**2>=0.000
      10 -> 15         0.12156
      13 -> 15         0.25768
      13 -> 16         0.57580
      13 -> 18         0.24804

 Excited State   5:      Singlet-A      7.6832 eV  161.37 nm  f=0.0047  <S**2>=0.000
      10 -> 14         0.14164
      11 -> 14         0.68020

 Excited State   6:      Singlet-A      8.4465 eV  146.79 nm  f=0.0007  <S**2>=0.000
      10 -> 15        -0.12193
      13 -> 16        -0.15536
      13 -> 18         0.32701
      13 -> 19         0.34156
      13 -> 21         0.46127

 Excited State   7:      Singlet-A      8.8039 eV  140.83 nm  f=0.0936  <S**2>=0.000
      10 -> 14         0.67126
      11 -> 14        -0.13356

 Excited State   8:      Singlet-A      8.9910 eV  137.90 nm  f=0.0140  <S**2>=0.000
      10 -> 16         0.19771
      13 -> 15         0.16193
      13 -> 17         0.61060
      13 -> 18        -0.18779

 Excited State   9:      Singlet-A      9.3439 eV  132.69 nm  f=0.0008  <S**2>=0.000
      10 -> 15         0.18912
      13 -> 16         0.16454
      13 -> 17        -0.16025
      13 -> 18        -0.37448
      13 -> 19         0.48369

 Excited State  10:      Singlet-A      9.4611 eV  131.05 nm  f=0.0791  <S**2>=0.000
       8 -> 15         0.11061
       9 -> 16         0.14230
      10 -> 14        -0.10985
      10 -> 15         0.11006
      11 -> 15         0.33735
      11 -> 17        -0.20903
      11 -> 18         0.11757
      12 -> 15        -0.24589
      12 -> 16         0.24276
      12 -> 17         0.15261
      12 -> 18         0.16904
      12 -> 19         0.14911
      12 -> 21         0.11297
      13 -> 14         0.10767

 Excited State  11:      Singlet-A      9.7371 eV  127.33 nm  f=0.0011  <S**2>=0.000
      13 -> 18        -0.35717
      13 -> 19        -0.32267
      13 -> 20         0.22288
      13 -> 21         0.45512

 Excited State  12:      Singlet-A      9.9180 eV  125.01 nm  f=0.0517  <S**2>=0.000
      11 -> 16        -0.15555
      12 -> 15         0.52813
      12 -> 16         0.26880
      12 -> 17        -0.14734
      12 -> 18         0.20170
      12 -> 20         0.12079

 Excited State  13:      Singlet-A     10.0119 eV  123.84 nm  f=0.0704  <S**2>=0.000
      10 -> 15         0.16791
      10 -> 16        -0.16207
      13 -> 20         0.61240
      13 -> 21        -0.18608

 Excited State  14:      Singlet-A     10.0650 eV  123.18 nm  f=0.1214  <S**2>=0.000
      11 -> 15        -0.35913
      11 -> 16         0.38845
      11 -> 17         0.11694
      11 -> 18         0.14104
      11 -> 19        -0.10110
      12 -> 16         0.32099
      12 -> 17         0.10752
      12 -> 18         0.13919

 Excited State  15:      Singlet-A     10.1769 eV  121.83 nm  f=0.0273  <S**2>=0.000
      10 -> 15         0.54681
      10 -> 16        -0.11304
      10 -> 17        -0.12159
      12 -> 16        -0.18561
      13 -> 16        -0.16964
      13 -> 17         0.10015
      13 -> 19        -0.10846
      13 -> 20        -0.16015
      13 -> 21         0.12242

 The electronic state is 1-A.
 Alpha  occ. eigenvalues --   -1.96397  -1.21494  -0.96066  -0.82447  -0.78955
 Alpha  occ. eigenvalues --   -0.68490  -0.66793  -0.55459  -0.53897  -0.44292
 Alpha  occ. eigenvalues --   -0.43727  -0.41875  -0.31537
 Alpha virt. eigenvalues --    0.11205   0.18509   0.19362   0.24816   0.26490
 Alpha virt. eigenvalues --    0.27798   0.28966   0.30095   0.39200   0.47607
 Alpha virt. eigenvalues --    0.52560

 Mulliken charges:
               1
     1  C   -0.176736
     2  C   -2.021355
     3  O    3.182660
     4  C   -2.056185
     5  C   -0.206964
     6  H    0.262002
     7  H    0.376468
     8  H    0.379243
     9  H    0.260867
 Sum of Mulliken charges =   0.00000

 Dipole moment (field-independent basis, Debye):
    X=             -6.2994    Y=             -6.5535    Z=              0.8366  Tot=              9.1286
 N-N= 1.051789277608D+02 E-N=-1.711066138223D+02  KE=-1.555546223463D+01
 Orbital energies and kinetic energies (alpha):
                                 1                 2
   1         O                -1.963972         -1.440367
   2         O                -1.214942         -1.072771
   3         O                -0.960660         -0.851581
   4         O                -0.824470         -0.610425
   5         O                -0.789551         -0.679747
   6         O                -0.684902         -0.572464
   7         O                -0.667931         -0.533901

 Normal termination of Gaussian 09 at Tue Dec 15 17:07:28 2015.
