 Gaussian 09, Revision D.01,
 Gaussian 09:  ES64L-G09RevD.01 24-Apr-2013

 ------------------------------------------------------------
 #P AM1(Input,print) CIS(Singlets,NStates=15) pop(full) force
 ------------------------------------------------------------

 -----------------
 AM1-Reparam Input
 -----------------
 Symbolic Z-matrix:
 Charge =  0 Multiplicity = 1

                         Standard orientation:
 ---------------------------------------------------------------------
 Center     Atomic      Atomic             Coordinates (Angstroms)
 Number     Number       Type             X           Y           Z
 ---------------------------------------------------------------------
      1          6           0        0.620232    1.021634   -0.011508
      2          6           0       -0.753987    0.813278   -0.000132
      3          8           0       -1.092145   -0.443872    0.008531
      4          6           0        0.103143   -1.113403   -0.010312
      5          6           0        1.170354   -0.257542    0.001872
      6          1           0        2.244777   -0.537404    0.008794
      7          1           0        0.078390   -2.216367    0.013477
      8          1           0       -1.523544    1.522542   -0.021462
      9          1           0        1.099085    1.998400    0.051417
 ---------------------------------------------------------------------

 SCF Done:  E(RAM1) =   2.03078627883     A.U. after   13 cycles

 Excitation energies and oscillator strengths:

 Excited State   1:      Singlet-A      5.6603 eV  219.04 nm  f=0.3325  <S**2>=0.000
      13 -> 14         0.69310
 This state for optimization and/or second-order correction.
 Total Energy, E(CIS) =   2.23879724690
 Copying the excited state density for this state as the 1-particle RhoCI density.

 Excited State   2:      Singlet-A      6.8761 eV  180.31 nm  f=0.0110  <S**2>=0.000
      13 -> 15         0.65479
      13 -> 17         0.22323

 Excited State   3:      Singlet-A      7.0710 eV  175.34 nm  f=0.0007  <S**2>=0.000
      12 -> 14         0.69548

 Excited State   4:      Singlet-A      7.2514 eV  170.98 nm  f=0.0027  <S**2>=0.000
      13 -> 16         0.63047
      13 -> 18         0.26294

 Excited State   5:      Singlet-A      7.7103 eV  160.80 nm  f=0.0053  <S**2>=0.000
      10 -> 14         0.40585
      11 -> 14         0.57141

 Excited State   6:      Singlet-A      8.4086 eV  147.45 nm  f=0.0002  <S**2>=0.000
      13 -> 16        -0.17200
      13 -> 18         0.36119
      13 -> 19         0.25159
      13 -> 21         0.48211

 Excited State   7:      Singlet-A      8.7559 eV  141.60 nm  f=0.1098  <S**2>=0.000
      10 -> 14         0.56309
      11 -> 14        -0.39951

 Excited State   8:      Singlet-A      8.8723 eV  139.74 nm  f=0.0177  <S**2>=0.000
      10 -> 16         0.12596
      13 -> 15        -0.17432
      13 -> 17         0.63604

 Excited State   9:      Singlet-A      9.2567 eV  133.94 nm  f=0.0010  <S**2>=0.000
      13 -> 16         0.14948
      13 -> 18        -0.44161
      13 -> 19         0.44278
      13 -> 21         0.20399

 Excited State  10:      Singlet-A      9.5370 eV  130.00 nm  f=0.0217  <S**2>=0.000
       8 -> 16        -0.11008
       9 -> 15         0.16885
      10 -> 15         0.23162
      10 -> 17         0.15387
      11 -> 15         0.31472
      11 -> 16         0.12215
      11 -> 17         0.21136
      12 -> 15         0.13975
      12 -> 16        -0.21575
      12 -> 18        -0.20097
      12 -> 19        -0.15803
      12 -> 21        -0.14142

 Excited State  11:      Singlet-A      9.7261 eV  127.48 nm  f=0.0003  <S**2>=0.000
      13 -> 18         0.26161
      13 -> 19         0.45292
      13 -> 20        -0.10384
      13 -> 21        -0.45171

 Excited State  12:      Singlet-A      9.9499 eV  124.61 nm  f=0.0633  <S**2>=0.000
      11 -> 15        -0.35970
      11 -> 16         0.10318
      12 -> 15         0.48289
      12 -> 17         0.20900

 Excited State  13:      Singlet-A     10.0228 eV  123.70 nm  f=0.0547  <S**2>=0.000
      10 -> 15        -0.31525
      11 -> 15         0.10678
      12 -> 15         0.13370
      13 -> 19         0.10134
      13 -> 20         0.56638

 Excited State  14:      Singlet-A     10.0917 eV  122.86 nm  f=0.0233  <S**2>=0.000
      10 -> 15         0.42837
      11 -> 15        -0.27180
      11 -> 16        -0.11561
      12 -> 15        -0.11307
      13 -> 15        -0.10705
      13 -> 16         0.10234
      13 -> 19         0.12670
      13 -> 20         0.34557

 Excited State  15:      Singlet-A     10.2742 eV  120.68 nm  f=0.1336  <S**2>=0.000
      10 -> 15         0.16170
      11 -> 15         0.13263
      11 -> 16         0.13250
      12 -> 15         0.20759
      12 -> 16         0.51575
      12 -> 18         0.21540

 The electronic state is 1-A.
 Alpha  occ. eigenvalues --   -1.94578  -1.20485  -0.94767  -0.81995  -0.78536
 Alpha  occ. eigenvalues --   -0.68579  -0.65458  -0.53968  -0.53178  -0.43458
 Alpha  occ. eigenvalues --   -0.43197  -0.41637  -0.30265
 Alpha virt. eigenvalues --    0.11811   0.18916   0.20287   0.25688   0.27474
 Alpha virt. eigenvalues --    0.29197   0.30517   0.30923   0.37724   0.46869
 Alpha virt. eigenvalues --    0.50623

 Mulliken charges:
               1
     1  C   -0.223253
     2  C   -2.035318
     3  O    3.172140
     4  C   -2.018155
     5  C   -0.142703
     6  H    0.248790
     7  H    0.371315
     8  H    0.374135
     9  H    0.253050
 Sum of Mulliken charges =   0.00000

 Dipole moment (field-independent basis, Debye):
    X=             -9.2119    Y=             -3.7334    Z=              0.2706  Tot=              9.9434
 N-N= 1.046300267649D+02 E-N=-1.702765643992D+02  KE=-1.551992286631D+01
 Orbital energies and kinetic energies (alpha):
                                 1                 2
   1         O                -1.945783         -1.408258
   2         O                -1.204854         -1.080268
   3         O                -0.947674         -0.861993
   4         O                -0.819948         -0.602502
   5         O                -0.785356         -0.672225
   6         O                -0.685791         -0.569451
   7         O                -0.654576         -0.524885

 Normal termination of Gaussian 09 at Tue Dec 15 17:07:22 2015.
