 Gaussian 09, Revision D.01,
 Gaussian 09:  ES64L-G09RevD.01 24-Apr-2013

 ------------------------------------------------------------
 #P AM1(Input,print) CIS(Singlets,NStates=15) pop(full) force
 ------------------------------------------------------------

 -----------------
 AM1-Reparam Input
 -----------------
 Symbolic Z-matrix:
 Charge =  0 Multiplicity = 1

                         Standard orientation:
 ---------------------------------------------------------------------
 Center     Atomic      Atomic             Coordinates (Angstroms)
 Number     Number       Type             X           Y           Z
 ---------------------------------------------------------------------
      1          6           0        0.189453    1.179624   -0.007322
      2          6           0        1.110218    0.098785   -0.010080
      3          8           0        0.524540   -1.018994    0.021351
      4          6           0       -0.864042   -0.752405   -0.027256
      5          6           0       -1.003499    0.533802    0.034799
      6          1           0       -2.008220    1.067352   -0.039839
      7          1           0       -1.475100   -1.599951   -0.033952
      8          1           0        2.209512    0.142955   -0.033423
      9          1           0        0.484703    2.182759   -0.004430
 ---------------------------------------------------------------------

 SCF Done:  E(RAM1) =   1.09733233151     A.U. after   14 cycles

 Excitation energies and oscillator strengths:

 Excited State   1:      Singlet-A      5.7774 eV  214.60 nm  f=0.2004  <S**2>=0.000
      12 -> 16        -0.12929
      13 -> 14         0.67855
 This state for optimization and/or second-order correction.
 Total Energy, E(CIS) =   1.30964909267
 Copying the excited state density for this state as the 1-particle RhoCI density.

 Excited State   2:      Singlet-A      6.2127 eV  199.56 nm  f=0.0031  <S**2>=0.000
      13 -> 15         0.67501
      13 -> 18        -0.10648
      13 -> 19         0.11765

 Excited State   3:      Singlet-A      7.2521 eV  170.96 nm  f=0.0107  <S**2>=0.000
      11 -> 14         0.36026
      12 -> 14         0.22369
      13 -> 16         0.44257
      13 -> 17         0.29502

 Excited State   4:      Singlet-A      7.2779 eV  170.36 nm  f=0.0041  <S**2>=0.000
       9 -> 14        -0.10659
      11 -> 14         0.54778
      12 -> 14        -0.26306
      13 -> 16        -0.31965

 Excited State   5:      Singlet-A      7.3842 eV  167.90 nm  f=0.0028  <S**2>=0.000
      11 -> 14        -0.19060
      12 -> 14        -0.16014
      13 -> 16        -0.19902
      13 -> 17         0.58611
      13 -> 18         0.10831
      13 -> 21         0.11986

 Excited State   6:      Singlet-A      8.0991 eV  153.08 nm  f=0.0473  <S**2>=0.000
       9 -> 14         0.14462
      10 -> 14         0.46677
      11 -> 15         0.15148
      12 -> 14         0.37337
      13 -> 16        -0.23562

 Excited State   7:      Singlet-A      8.1874 eV  151.43 nm  f=0.0547  <S**2>=0.000
       9 -> 14         0.13271
      10 -> 14         0.44786
      11 -> 15        -0.15285
      11 -> 18         0.10874
      12 -> 14        -0.37289
      13 -> 16         0.23147

 Excited State   8:      Singlet-A      8.2841 eV  149.67 nm  f=0.0024  <S**2>=0.000
      12 -> 15         0.52090
      13 -> 18        -0.35217
      13 -> 19        -0.18724
      13 -> 20         0.12594
      13 -> 23        -0.10697

 Excited State   9:      Singlet-A      8.3975 eV  147.65 nm  f=0.0009  <S**2>=0.000
      10 -> 14         0.11534
      12 -> 15         0.41359
      13 -> 17        -0.14711
      13 -> 18         0.38886
      13 -> 19         0.31003

 Excited State  10:      Singlet-A      8.6711 eV  142.99 nm  f=0.0171  <S**2>=0.000
       9 -> 15         0.12690
       9 -> 16         0.18433
      10 -> 14        -0.10195
      10 -> 15        -0.24539
      10 -> 16        -0.28014
      11 -> 15         0.16338
      11 -> 16         0.45181
      12 -> 16        -0.18072

 Excited State  11:      Singlet-A      8.8358 eV  140.32 nm  f=0.0016  <S**2>=0.000
      10 -> 15        -0.20866
      10 -> 16         0.10785
      11 -> 16        -0.16580
      13 -> 18         0.12162
      13 -> 20         0.55700
      13 -> 21         0.16386
      13 -> 22         0.10065

 Excited State  12:      Singlet-A      8.9103 eV  139.15 nm  f=0.0089  <S**2>=0.000
       9 -> 15        -0.20228
      10 -> 15         0.43653
      10 -> 16        -0.15675
      10 -> 19         0.12669
      11 -> 16         0.21201
      12 -> 16         0.12053
      13 -> 20         0.30659

 Excited State  13:      Singlet-A      9.1924 eV  134.88 nm  f=0.1177  <S**2>=0.000
      11 -> 15        -0.24617
      11 -> 18         0.10370
      12 -> 14         0.11581
      12 -> 16        -0.25255
      12 -> 17        -0.23497
      13 -> 15        -0.11210
      13 -> 18        -0.24700
      13 -> 19         0.36479

 Excited State  14:      Singlet-A      9.2521 eV  134.01 nm  f=0.1687  <S**2>=0.000
       9 -> 17         0.11211
      11 -> 15         0.29068
      11 -> 18        -0.11653
      12 -> 14        -0.12468
      12 -> 16         0.29856
      12 -> 17        -0.19207
      13 -> 18        -0.21177
      13 -> 19         0.32654

 Excited State  15:      Singlet-A      9.4486 eV  131.22 nm  f=0.1976  <S**2>=0.000
       9 -> 14        -0.11152
      10 -> 15        -0.20081
      10 -> 17        -0.12575
      11 -> 15        -0.22684
      11 -> 16         0.10502
      11 -> 17        -0.17307
      11 -> 18         0.14316
      12 -> 14         0.17257
      12 -> 16         0.45552
      13 -> 16        -0.13224

 The electronic state is 1-A.
 Alpha  occ. eigenvalues --   -1.85886  -1.22028  -0.99628  -0.87941  -0.81416
 Alpha  occ. eigenvalues --   -0.74143  -0.73422  -0.61293  -0.55686  -0.51827
 Alpha  occ. eigenvalues --   -0.48871  -0.48136  -0.38915
 Alpha virt. eigenvalues --    0.04449   0.08005   0.10769   0.12874   0.17162
 Alpha virt. eigenvalues --    0.18834   0.20248   0.22076   0.27408   0.28200
 Alpha virt. eigenvalues --    0.28352

 Mulliken charges:
               1
     1  C   -0.193021
     2  C   -1.289577
     3  O    2.160860
     4  C   -1.264337
     5  C   -0.064094
     6  H    0.125115
     7  H    0.185037
     8  H    0.229496
     9  H    0.110519
 Sum of Mulliken charges =   0.00000

 Dipole moment (field-independent basis, Debye):
    X=              3.5990    Y=             -6.0349    Z=              0.2976  Tot=              7.0329
 N-N= 1.051952927426D+02 E-N=-1.725259102873D+02  KE=-1.508616347600D+01
 Orbital energies and kinetic energies (alpha):
                                 1                 2
   1         O                -1.858864         -1.275885
   2         O                -1.220280         -0.990141
   3         O                -0.996275         -0.817995
   4         O                -0.879406         -0.629855
   5         O                -0.814158         -0.666459
   6         O                -0.741432         -0.596507
   7         O                -0.734218         -0.524653

 Normal termination of Gaussian 09 at Tue Dec 15 17:05:46 2015.
