 Gaussian 09, Revision D.01,
 Gaussian 09:  ES64L-G09RevD.01 24-Apr-2013

 ------------------------------------------------------------
 #P AM1(Input,print) CIS(Singlets,NStates=15) pop(full) force
 ------------------------------------------------------------

 -----------------
 AM1-Reparam Input
 -----------------
 Symbolic Z-matrix:
 Charge =  0 Multiplicity = 1

                         Standard orientation:
 ---------------------------------------------------------------------
 Center     Atomic      Atomic             Coordinates (Angstroms)
 Number     Number       Type             X           Y           Z
 ---------------------------------------------------------------------
      1          6           0       -1.151780    0.428735   -0.051436
      2          6           0       -0.731541   -0.889562    0.041920
      3          8           0        0.676392   -0.968070   -0.012975
      4          6           0        1.099382    0.333947   -0.022468
      5          6           0        0.067705    1.137959    0.042047
      6          1           0        0.142793    2.267538    0.026043
      7          1           0        2.179964    0.367783    0.010261
      8          1           0       -1.272615   -1.756239    0.021526
      9          1           0       -2.163874    0.799003   -0.014409
 ---------------------------------------------------------------------

 SCF Done:  E(RAM1) =   2.62141458955     A.U. after   14 cycles

 Excitation energies and oscillator strengths:

 Excited State   1:      Singlet-A      5.0749 eV  244.31 nm  f=0.3445  <S**2>=0.000
      13 -> 14         0.69707
 This state for optimization and/or second-order correction.
 Total Energy, E(CIS) =   2.80791251090
 Copying the excited state density for this state as the 1-particle RhoCI density.

 Excited State   2:      Singlet-A      6.0838 eV  203.79 nm  f=0.0002  <S**2>=0.000
      13 -> 15         0.65683
      13 -> 16        -0.14682
      13 -> 18         0.11655

 Excited State   3:      Singlet-A      6.3983 eV  193.78 nm  f=0.0058  <S**2>=0.000
      12 -> 14         0.67298
      13 -> 16         0.17697

 Excited State   4:      Singlet-A      6.5444 eV  189.45 nm  f=0.0028  <S**2>=0.000
      12 -> 14        -0.16700
      13 -> 15         0.16536
      13 -> 16         0.63798

 Excited State   5:      Singlet-A      7.4981 eV  165.35 nm  f=0.0072  <S**2>=0.000
      10 -> 14         0.54747
      11 -> 14        -0.42783

 Excited State   6:      Singlet-A      7.8213 eV  158.52 nm  f=0.0003  <S**2>=0.000
      13 -> 17         0.66338
      13 -> 18         0.12282
      13 -> 21        -0.11988

 Excited State   7:      Singlet-A      8.4740 eV  146.31 nm  f=0.1031  <S**2>=0.000
      10 -> 14         0.41832
      11 -> 14         0.54725

 Excited State   8:      Singlet-A      8.9697 eV  138.22 nm  f=0.0258  <S**2>=0.000
      10 -> 15        -0.11399
      11 -> 15        -0.19622
      12 -> 15        -0.22199
      13 -> 17        -0.12805
      13 -> 18         0.58577

 Excited State   9:      Singlet-A      9.1183 eV  135.97 nm  f=0.1234  <S**2>=0.000
      10 -> 15        -0.11313
      12 -> 15         0.53665
      12 -> 16        -0.22902
      12 -> 17         0.17623
      13 -> 18         0.19744

 Excited State  10:      Singlet-A      9.2809 eV  133.59 nm  f=0.1005  <S**2>=0.000
       8 -> 15         0.10038
      10 -> 15         0.17249
      10 -> 18         0.14276
      11 -> 15        -0.17834
      11 -> 18        -0.11687
      12 -> 15         0.32071
      12 -> 16         0.35215
      12 -> 17        -0.31534
      12 -> 18         0.12532

 Excited State  11:      Singlet-A      9.5641 eV  129.64 nm  f=0.0050  <S**2>=0.000
       7 -> 16         0.10893
      10 -> 16         0.15970
      11 -> 16         0.32517
      13 -> 19         0.56710

 Excited State  12:      Singlet-A      9.9909 eV  124.10 nm  f=0.0158  <S**2>=0.000
       7 -> 15        -0.13691
      10 -> 15         0.29354
      11 -> 15         0.52242
      12 -> 16         0.13447
      13 -> 15        -0.15169
      13 -> 18         0.21466

 Excited State  13:      Singlet-A     10.1144 eV  122.58 nm  f=0.1136  <S**2>=0.000
       9 -> 16         0.16047
      10 -> 16        -0.24305
      11 -> 15        -0.14507
      11 -> 16         0.17042
      12 -> 16         0.37985
      12 -> 17         0.37624
      13 -> 19        -0.12372

 Excited State  14:      Singlet-A     10.2840 eV  120.56 nm  f=0.0878  <S**2>=0.000
       8 -> 15        -0.15521
       9 -> 16         0.17928
      10 -> 15        -0.24862
      10 -> 16         0.37664
      10 -> 17         0.11560
      10 -> 19         0.17678
      11 -> 16        -0.27214
      11 -> 19        -0.12308
      12 -> 17         0.12573
      12 -> 18        -0.14192

 Excited State  15:      Singlet-A     10.4833 eV  118.27 nm  f=0.0108  <S**2>=0.000
       8 -> 14         0.10011
       9 -> 14        -0.14811
      10 -> 16         0.31279
      11 -> 16         0.42024
      13 -> 16         0.13126
      13 -> 18        -0.11789
      13 -> 19        -0.32098

 The electronic state is 1-A.
 Alpha  occ. eigenvalues --   -1.84017  -1.12627  -0.87682  -0.78752  -0.75201
 Alpha  occ. eigenvalues --   -0.66531  -0.62655  -0.55379  -0.54288  -0.44483
 Alpha  occ. eigenvalues --   -0.43970  -0.40885  -0.29204
 Alpha virt. eigenvalues --    0.09685   0.16309   0.19045   0.25592   0.27990
 Alpha virt. eigenvalues --    0.30804   0.36342   0.41010   0.46537   0.54548
 Alpha virt. eigenvalues --    0.57902

 Mulliken charges:
               1
     1  C   -0.158359
     2  C   -2.006684
     3  O    3.438515
     4  C   -1.952969
     5  C   -0.220054
     6  H    0.205069
     7  H    0.250531
     8  H    0.262968
     9  H    0.180985
 Sum of Mulliken charges =   0.00000

 Dipole moment (field-independent basis, Debye):
    X=              7.0983    Y=             -9.5634    Z=             -0.3061  Tot=             11.9137
 N-N= 1.038098658110D+02 E-N=-1.693158553101D+02  KE=-1.434755960437D+01
 Orbital energies and kinetic energies (alpha):
                                 1                 2
   1         O                -1.840175         -1.226002
   2         O                -1.126268         -0.971185
   3         O                -0.876822         -0.794036
   4         O                -0.787518         -0.539483
   5         O                -0.752010         -0.623202
   6         O                -0.665310         -0.545643
   7         O                -0.626548         -0.496803

 Normal termination of Gaussian 09 at Tue Dec 15 17:07:34 2015.
