 Gaussian 09, Revision D.01,
 Gaussian 09:  ES64L-G09RevD.01 24-Apr-2013

 ------------------------------------------------------------
 #P AM1(Input,print) CIS(Singlets,NStates=15) pop(full) force
 ------------------------------------------------------------

 -----------------
 AM1-Reparam Input
 -----------------
 Symbolic Z-matrix:
 Charge =  0 Multiplicity = 1

                         Standard orientation:
 ---------------------------------------------------------------------
 Center     Atomic      Atomic             Coordinates (Angstroms)
 Number     Number       Type             X           Y           Z
 ---------------------------------------------------------------------
      1          6           0        0.811789    0.906537    0.025962
      2          6           0        1.075719   -0.432537   -0.019495
      3          8           0       -0.075229   -1.151355    0.012376
      4          6           0       -1.172783   -0.259584   -0.018905
      5          6           0       -0.628214    1.018835    0.000406
      6          1           0       -1.201693    1.945600   -0.018772
      7          1           0       -2.175478   -0.712502    0.035409
      8          1           0        1.920125   -1.066049   -0.008658
      9          1           0        1.539818    1.644287   -0.034797
 ---------------------------------------------------------------------

 SCF Done:  E(RAM1) =   1.77727019896     A.U. after   14 cycles

 Excitation energies and oscillator strengths:

 Excited State   1:      Singlet-A      5.4279 eV  228.42 nm  f=0.3574  <S**2>=0.000
      13 -> 14         0.69193
 This state for optimization and/or second-order correction.
 Total Energy, E(CIS) =   1.97674251169
 Copying the excited state density for this state as the 1-particle RhoCI density.

 Excited State   2:      Singlet-A      6.6480 eV  186.50 nm  f=0.0044  <S**2>=0.000
      13 -> 15         0.67066
      13 -> 17        -0.16048

 Excited State   3:      Singlet-A      7.1088 eV  174.41 nm  f=0.0033  <S**2>=0.000
      13 -> 16         0.66040
      13 -> 18         0.16205
      13 -> 19         0.12786

 Excited State   4:      Singlet-A      7.5376 eV  164.49 nm  f=0.0007  <S**2>=0.000
      12 -> 14         0.69809

 Excited State   5:      Singlet-A      8.1899 eV  151.39 nm  f=0.0014  <S**2>=0.000
      10 -> 14        -0.19579
      13 -> 17         0.28182
      13 -> 18         0.54836
      13 -> 21        -0.20181

 Excited State   6:      Singlet-A      8.2703 eV  149.92 nm  f=0.0050  <S**2>=0.000
      10 -> 14         0.65132
      11 -> 14        -0.16043
      13 -> 18         0.18897

 Excited State   7:      Singlet-A      8.9714 eV  138.20 nm  f=0.0168  <S**2>=0.000
      11 -> 14        -0.17108
      11 -> 16        -0.11890
      13 -> 15         0.10856
      13 -> 17         0.58179
      13 -> 18        -0.26241

 Excited State   8:      Singlet-A      9.0087 eV  137.63 nm  f=0.1013  <S**2>=0.000
      10 -> 14         0.17184
      11 -> 14         0.64188
      13 -> 17         0.14397

 Excited State   9:      Singlet-A      9.5605 eV  129.68 nm  f=0.0003  <S**2>=0.000
      11 -> 16         0.12393
      13 -> 16        -0.10780
      13 -> 19         0.66400

 Excited State  10:      Singlet-A      9.9042 eV  125.18 nm  f=0.0213  <S**2>=0.000
       9 -> 15        -0.11886
      10 -> 15         0.15525
      10 -> 16         0.21535
      10 -> 17        -0.19266
      10 -> 18         0.16276
      12 -> 15         0.33563
      12 -> 16        -0.10317
      12 -> 17        -0.21479
      12 -> 18        -0.30647

 Excited State  11:      Singlet-A     10.3546 eV  119.74 nm  f=0.0854  <S**2>=0.000
      10 -> 15         0.26998
      11 -> 15        -0.31583
      12 -> 15        -0.26219
      13 -> 18         0.15578
      13 -> 20        -0.26451
      13 -> 21         0.33388

 Excited State  12:      Singlet-A     10.3649 eV  119.62 nm  f=0.0918  <S**2>=0.000
      10 -> 15        -0.34425
      12 -> 15         0.32788
      13 -> 18         0.16056
      13 -> 20        -0.25605
      13 -> 21         0.37096

 Excited State  13:      Singlet-A     10.4917 eV  118.17 nm  f=0.0451  <S**2>=0.000
      10 -> 15        -0.15175
      11 -> 15        -0.35139
      11 -> 16        -0.16126
      12 -> 15         0.14503
      12 -> 16         0.46612
      13 -> 20         0.11090
      13 -> 21        -0.11248

 Excited State  14:      Singlet-A     10.5161 eV  117.90 nm  f=0.1016  <S**2>=0.000
      10 -> 15         0.12894
      10 -> 16         0.14931
      11 -> 15         0.41055
      12 -> 16         0.39388
      12 -> 19         0.11066
      13 -> 21         0.25094

 Excited State  15:      Singlet-A     10.5829 eV  117.15 nm  f=0.0926  <S**2>=0.000
      11 -> 16        -0.17001
      12 -> 16        -0.15870
      13 -> 20         0.54668
      13 -> 21         0.33296

 The electronic state is 1-A.
 Alpha  occ. eigenvalues --   -1.98545  -1.25512  -0.99972  -0.89847  -0.84586
 Alpha  occ. eigenvalues --   -0.76225  -0.73362  -0.64171  -0.62377  -0.52566
 Alpha  occ. eigenvalues --   -0.52103  -0.50155  -0.36950
 Alpha virt. eigenvalues --    0.03838   0.10701   0.12594   0.19207   0.20490
 Alpha virt. eigenvalues --    0.22461   0.25332   0.26505   0.27595   0.35528
 Alpha virt. eigenvalues --    0.40995

 Mulliken charges:
               1
     1  C   -0.149832
     2  C   -1.878932
     3  O    3.179761
     4  C   -1.886578
     5  C   -0.107956
     6  H    0.153995
     7  H    0.274025
     8  H    0.264835
     9  H    0.150682
 Sum of Mulliken charges =   0.00000

 Dipole moment (field-independent basis, Debye):
    X=             -0.5045    Y=            -10.7795    Z=              0.4800  Tot=             10.8019
 N-N= 1.049242385303D+02 E-N=-1.693648255427D+02  KE=-1.560166534321D+01
 Orbital energies and kinetic energies (alpha):
                                 1                 2
   1         O                -1.985450         -1.351547
   2         O                -1.255116         -1.036210
   3         O                -0.999721         -0.865785
   4         O                -0.898475         -0.610570
   5         O                -0.845863         -0.688387
   6         O                -0.762255         -0.613991
   7         O                -0.733623         -0.534409

 Normal termination of Gaussian 09 at Tue Dec 15 17:09:05 2015.
