 Gaussian 09, Revision D.01,
 Gaussian 09:  ES64L-G09RevD.01 24-Apr-2013

 ------------------------------------------------------------
 #P AM1(Input,print) CIS(Singlets,NStates=15) pop(full) force
 ------------------------------------------------------------

 -----------------
 AM1-Reparam Input
 -----------------
 Symbolic Z-matrix:
 Charge =  0 Multiplicity = 1

                         Standard orientation:
 ---------------------------------------------------------------------
 Center     Atomic      Atomic             Coordinates (Angstroms)
 Number     Number       Type             X           Y           Z
 ---------------------------------------------------------------------
      1          6           0       -1.019134    0.700298   -0.028078
      2          6           0       -0.896149   -0.702093    0.005899
      3          8           0        0.366618   -1.083516   -0.012352
      4          6           0        1.164285   -0.002440    0.015332
      5          6           0        0.363164    1.140054    0.027278
      6          1           0        0.743042    2.129363   -0.022659
      7          1           0        2.214252   -0.156025   -0.065589
      8          1           0       -1.697125   -1.438065    0.071687
      9          1           0       -1.866105    1.317940   -0.007204
 ---------------------------------------------------------------------

 SCF Done:  E(RAM1) =   2.48368020014     A.U. after   14 cycles

 Excitation energies and oscillator strengths:

 Excited State   1:      Singlet-A      5.4135 eV  229.03 nm  f=0.3622  <S**2>=0.000
      13 -> 14         0.69594
 This state for optimization and/or second-order correction.
 Total Energy, E(CIS) =   2.68262214404
 Copying the excited state density for this state as the 1-particle RhoCI density.

 Excited State   2:      Singlet-A      6.5705 eV  188.70 nm  f=0.0065  <S**2>=0.000
      13 -> 15         0.65381
      13 -> 17         0.19556

 Excited State   3:      Singlet-A      6.8258 eV  181.64 nm  f=0.0005  <S**2>=0.000
       9 -> 14        -0.14749
      12 -> 14         0.68279

 Excited State   4:      Singlet-A      6.8650 eV  180.60 nm  f=0.0014  <S**2>=0.000
      11 -> 16        -0.10035
      13 -> 16         0.64227
      13 -> 18        -0.20394

 Excited State   5:      Singlet-A      7.9304 eV  156.34 nm  f=0.0055  <S**2>=0.000
      10 -> 14         0.68093
      11 -> 14        -0.11041

 Excited State   6:      Singlet-A      8.0348 eV  154.31 nm  f=0.0003  <S**2>=0.000
      10 -> 14        -0.10957
      11 -> 15        -0.10380
      13 -> 16         0.11146
      13 -> 17         0.20436
      13 -> 18         0.49858
      13 -> 19        -0.21208
      13 -> 21         0.33528

 Excited State   7:      Singlet-A      8.5772 eV  144.55 nm  f=0.0158  <S**2>=0.000
      11 -> 14         0.15664
      11 -> 16         0.15469
      13 -> 15        -0.12408
      13 -> 16        -0.11107
      13 -> 17         0.59891
      13 -> 18        -0.18156

 Excited State   8:      Singlet-A      8.6048 eV  144.09 nm  f=0.1084  <S**2>=0.000
      10 -> 14         0.12341
      11 -> 14         0.66902
      13 -> 17        -0.12766

 Excited State   9:      Singlet-A      9.0520 eV  136.97 nm  f=0.0008  <S**2>=0.000
       9 -> 14        -0.10255
      11 -> 15        -0.13371
      13 -> 16         0.11613
      13 -> 18         0.19290
      13 -> 19         0.62984

 Excited State  10:      Singlet-A      9.5049 eV  130.44 nm  f=0.0152  <S**2>=0.000
       8 -> 15        -0.12922
       9 -> 15        -0.10107
       9 -> 16         0.10084
       9 -> 18        -0.10965
      10 -> 15         0.14675
      10 -> 16         0.18274
      10 -> 17         0.19037
      12 -> 15         0.41706
      12 -> 16        -0.18367
      12 -> 17         0.14545
      12 -> 18         0.24707

 Excited State  11:      Singlet-A      9.5370 eV  130.00 nm  f=0.0011  <S**2>=0.000
       9 -> 14         0.33353
      13 -> 18        -0.28476
      13 -> 19         0.13561
      13 -> 21         0.51595

 Excited State  12:      Singlet-A      9.6583 eV  128.37 nm  f=0.0010  <S**2>=0.000
       9 -> 14         0.58251
      12 -> 14         0.11480
      13 -> 18         0.18744
      13 -> 21        -0.30582

 Excited State  13:      Singlet-A      9.8214 eV  126.24 nm  f=0.0656  <S**2>=0.000
      10 -> 16         0.14926
      12 -> 15         0.24423
      12 -> 16         0.57649
      12 -> 17         0.12737
      12 -> 18        -0.12269

 Excited State  14:      Singlet-A      9.8819 eV  125.47 nm  f=0.0530  <S**2>=0.000
       9 -> 16        -0.10571
      10 -> 15        -0.15179
      10 -> 16        -0.14045
      10 -> 17        -0.12983
      11 -> 15         0.47488
      11 -> 16         0.15602
      12 -> 15         0.22375
      12 -> 16        -0.12870
      12 -> 19         0.14332
      13 -> 15        -0.10660

 Excited State  15:      Singlet-A      9.9378 eV  124.76 nm  f=0.1009  <S**2>=0.000
      10 -> 15         0.10899
      11 -> 15         0.14177
      11 -> 16        -0.13288
      12 -> 15        -0.15479
      13 -> 20         0.63067

 The electronic state is 1-A.
 Alpha  occ. eigenvalues --   -1.74626  -1.14507  -0.95120  -0.81509  -0.75944
 Alpha  occ. eigenvalues --   -0.67905  -0.64676  -0.56061  -0.49483  -0.45732
 Alpha  occ. eigenvalues --   -0.44161  -0.41798  -0.30325
 Alpha virt. eigenvalues --    0.09976   0.17028   0.18252   0.24845   0.26450
 Alpha virt. eigenvalues --    0.27987   0.30033   0.30563   0.41762   0.50439
 Alpha virt. eigenvalues --    0.55929

 Mulliken charges:
               1
     1  C   -0.057404
     2  C   -1.974878
     3  O    3.230153
     4  C   -1.945397
     5  C   -0.041905
     6  H    0.120454
     7  H    0.263905
     8  H    0.283396
     9  H    0.121675
 Sum of Mulliken charges =   0.00000

 Dipole moment (field-independent basis, Debye):
    X=              2.8651    Y=             -9.2445    Z=             -0.3467  Tot=              9.6845
 N-N= 1.036179326140D+02 E-N=-1.684097260779D+02  KE=-1.502184425736D+01
 Orbital energies and kinetic energies (alpha):
                                 1                 2
   1         O                -1.746256         -1.251004
   2         O                -1.145074         -1.005787
   3         O                -0.951197         -0.847780
   4         O                -0.815095         -0.626378
   5         O                -0.759441         -0.688498
   6         O                -0.679046         -0.583590
   7         O                -0.646764         -0.515555

 Normal termination of Gaussian 09 at Tue Dec 15 17:06:10 2015.
