 Gaussian 09, Revision D.01,
 Gaussian 09:  ES64L-G09RevD.01 24-Apr-2013

 ------------------------------------------------------------
 #P AM1(Input,print) CIS(Singlets,NStates=15) pop(full) force
 ------------------------------------------------------------

 -----------------
 AM1-Reparam Input
 -----------------
 Symbolic Z-matrix:
 Charge =  0 Multiplicity = 1

                         Standard orientation:
 ---------------------------------------------------------------------
 Center     Atomic      Atomic             Coordinates (Angstroms)
 Number     Number       Type             X           Y           Z
 ---------------------------------------------------------------------
      1          6           0       -0.873396    0.885094    0.037995
      2          6           0       -1.056651   -0.514862   -0.031016
      3          8           0        0.187870   -1.157394    0.029963
      4          6           0        1.139993   -0.180627   -0.018536
      5          6           0        0.583327    1.030721   -0.014062
      6          1           0        1.102784    1.990162    0.006108
      7          1           0        2.125937   -0.480355   -0.009790
      8          1           0       -1.858154   -1.182478   -0.058149
      9          1           0       -1.633164    1.609865   -0.024166
 ---------------------------------------------------------------------

 SCF Done:  E(RAM1) =   2.53236873145     A.U. after   13 cycles

 Excitation energies and oscillator strengths:

 Excited State   1:      Singlet-A      5.2297 eV  237.08 nm  f=0.3570  <S**2>=0.000
      13 -> 14         0.69625
 This state for optimization and/or second-order correction.
 Total Energy, E(CIS) =   2.72455700778
 Copying the excited state density for this state as the 1-particle RhoCI density.

 Excited State   2:      Singlet-A      6.4736 eV  191.52 nm  f=0.0029  <S**2>=0.000
      11 -> 15         0.10508
      13 -> 15         0.66400
      13 -> 17        -0.12223
      13 -> 18        -0.12964

 Excited State   3:      Singlet-A      6.6231 eV  187.20 nm  f=0.0024  <S**2>=0.000
      11 -> 16        -0.10732
      13 -> 16         0.64152
      13 -> 17        -0.18732
      13 -> 18         0.10403
      13 -> 19         0.13333

 Excited State   4:      Singlet-A      6.7729 eV  183.06 nm  f=0.0014  <S**2>=0.000
       9 -> 14         0.10498
      12 -> 14         0.69414

 Excited State   5:      Singlet-A      7.8227 eV  158.49 nm  f=0.0005  <S**2>=0.000
      10 -> 14        -0.13419
      11 -> 16         0.10443
      13 -> 16        -0.16632
      13 -> 17        -0.31763
      13 -> 18         0.47970
      13 -> 21         0.31749

 Excited State   6:      Singlet-A      7.9206 eV  156.53 nm  f=0.0054  <S**2>=0.000
      10 -> 14         0.67490
      13 -> 18         0.15783

 Excited State   7:      Singlet-A      8.3262 eV  148.91 nm  f=0.0077  <S**2>=0.000
      10 -> 14        -0.12837
      13 -> 15         0.13946
      13 -> 17         0.56910
      13 -> 18         0.29971
      13 -> 21         0.11486

 Excited State   8:      Singlet-A      8.6550 eV  143.25 nm  f=0.1055  <S**2>=0.000
      11 -> 14         0.68893

 Excited State   9:      Singlet-A      8.8584 eV  139.96 nm  f=0.0031  <S**2>=0.000
      11 -> 16         0.11704
      13 -> 16        -0.11238
      13 -> 19         0.66952

 Excited State  10:      Singlet-A      9.3881 eV  132.07 nm  f=0.0011  <S**2>=0.000
      13 -> 18        -0.34212
      13 -> 21         0.60086

 Excited State  11:      Singlet-A      9.4891 eV  130.66 nm  f=0.0434  <S**2>=0.000
       8 -> 15         0.10718
      10 -> 15        -0.14578
      10 -> 17         0.19892
      12 -> 15        -0.31087
      12 -> 16         0.33613
      12 -> 17        -0.17570
      12 -> 18         0.29556
      13 -> 20        -0.11133

 Excited State  12:      Singlet-A      9.7743 eV  126.85 nm  f=0.1075  <S**2>=0.000
      10 -> 15        -0.16280
      12 -> 15         0.47869
      12 -> 17        -0.14058
      13 -> 20        -0.41229

 Excited State  13:      Singlet-A      9.8037 eV  126.47 nm  f=0.0872  <S**2>=0.000
      10 -> 15        -0.15181
      12 -> 15         0.30595
      12 -> 16         0.12168
      12 -> 17        -0.14518
      13 -> 20         0.53762

 Excited State  14:      Singlet-A     10.0377 eV  123.52 nm  f=0.0001  <S**2>=0.000
       9 -> 14         0.67944
      12 -> 14        -0.10334

 Excited State  15:      Singlet-A     10.1438 eV  122.23 nm  f=0.0455  <S**2>=0.000
      10 -> 15        -0.10389
      11 -> 15         0.39087
      11 -> 16         0.37897
      12 -> 16        -0.25041
      12 -> 18         0.10598
      13 -> 16         0.11117

 The electronic state is 1-A.
 Alpha  occ. eigenvalues --   -1.72358  -1.14226  -0.95455  -0.80733  -0.76588
 Alpha  occ. eigenvalues --   -0.67598  -0.63390  -0.55151  -0.50468  -0.44539
 Alpha  occ. eigenvalues --   -0.43577  -0.40776  -0.28479
 Alpha virt. eigenvalues --    0.10904   0.18362   0.19360   0.25671   0.27631
 Alpha virt. eigenvalues --    0.28947   0.31194   0.31562   0.38015   0.47252
 Alpha virt. eigenvalues --    0.51741

 Mulliken charges:
               1
     1  C   -0.059132
     2  C   -1.917216
     3  O    3.229307
     4  C   -1.913751
     5  C   -0.072438
     6  H    0.118493
     7  H    0.259771
     8  H    0.236081
     9  H    0.118886
 Sum of Mulliken charges =   0.00000

 Dipole moment (field-independent basis, Debye):
    X=              2.2097    Y=            -10.5998    Z=              0.6954  Tot=             10.8500
 N-N= 1.032147201685D+02 E-N=-1.677005496345D+02  KE=-1.499741837053D+01
 Orbital energies and kinetic energies (alpha):
                                 1                 2
   1         O                -1.723582         -1.206401
   2         O                -1.142255         -1.002967
   3         O                -0.954546         -0.865763
   4         O                -0.807328         -0.624738
   5         O                -0.765884         -0.689427
   6         O                -0.675977         -0.570130
   7         O                -0.633900         -0.512600

 Normal termination of Gaussian 09 at Tue Dec 15 17:06:25 2015.
