 Gaussian 09, Revision D.01,
 Gaussian 09:  ES64L-G09RevD.01 24-Apr-2013

 ------------------------------------------------------------
 #P AM1(Input,print) CIS(Singlets,NStates=15) pop(full) force
 ------------------------------------------------------------

 -----------------
 AM1-Reparam Input
 -----------------
 Symbolic Z-matrix:
 Charge =  0 Multiplicity = 1

                         Standard orientation:
 ---------------------------------------------------------------------
 Center     Atomic      Atomic             Coordinates (Angstroms)
 Number     Number       Type             X           Y           Z
 ---------------------------------------------------------------------
      1          6           0        0.269649    1.157506   -0.027083
      2          6           0        1.157473    0.128801    0.036511
      3          8           0        0.480125   -1.103581   -0.017696
      4          6           0       -0.879646   -0.711124    0.014942
      5          6           0       -1.066506    0.611417   -0.011165
      6          1           0       -1.941303    1.097651    0.039832
      7          1           0       -1.572960   -1.579756    0.011849
      8          1           0        2.206221    0.002054   -0.027439
      9          1           0        0.581217    2.189097    0.038100
 ---------------------------------------------------------------------

 SCF Done:  E(RAM1) =   2.14860913803     A.U. after   13 cycles

 Excitation energies and oscillator strengths:

 Excited State   1:      Singlet-A      5.3757 eV  230.64 nm  f=0.3447  <S**2>=0.000
      13 -> 14         0.69509
 This state for optimization and/or second-order correction.
 Total Energy, E(CIS) =   2.34616202445
 Copying the excited state density for this state as the 1-particle RhoCI density.

 Excited State   2:      Singlet-A      6.1861 eV  200.42 nm  f=0.0003  <S**2>=0.000
      11 -> 15         0.11848
      13 -> 15         0.67807

 Excited State   3:      Singlet-A      6.4757 eV  191.46 nm  f=0.0005  <S**2>=0.000
      11 -> 16        -0.11495
      13 -> 16         0.67102
      13 -> 17        -0.11685

 Excited State   4:      Singlet-A      7.2513 eV  170.98 nm  f=0.0008  <S**2>=0.000
      12 -> 14         0.69960

 Excited State   5:      Singlet-A      8.0306 eV  154.39 nm  f=0.0079  <S**2>=0.000
      10 -> 14         0.16168
      13 -> 17         0.44863
      13 -> 19        -0.38812
      13 -> 20        -0.13950
      13 -> 22        -0.24936

 Excited State   6:      Singlet-A      8.1939 eV  151.31 nm  f=0.0085  <S**2>=0.000
      10 -> 14         0.53356
      11 -> 14         0.24097
      13 -> 17         0.15242
      13 -> 19         0.29100
      13 -> 22         0.13066

 Excited State   7:      Singlet-A      8.3495 eV  148.49 nm  f=0.0039  <S**2>=0.000
      10 -> 14        -0.30444
      11 -> 14        -0.16080
      13 -> 16         0.11107
      13 -> 17         0.48853
      13 -> 19         0.29283
      13 -> 22         0.13573

 Excited State   8:      Singlet-A      8.8330 eV  140.36 nm  f=0.0190  <S**2>=0.000
      10 -> 14        -0.24587
      11 -> 14         0.50279
      12 -> 15         0.10807
      13 -> 18         0.38408

 Excited State   9:      Singlet-A      9.0368 eV  137.20 nm  f=0.0029  <S**2>=0.000
      13 -> 19        -0.17524
      13 -> 20         0.66149

 Excited State  10:      Singlet-A      9.4976 eV  130.54 nm  f=0.1357  <S**2>=0.000
      10 -> 14         0.14590
      11 -> 14        -0.32987
      13 -> 18         0.55603
      13 -> 21         0.14445
      13 -> 22        -0.10820

 Excited State  11:      Singlet-A      9.5648 eV  129.63 nm  f=0.0513  <S**2>=0.000
       9 -> 15        -0.12532
      12 -> 15        -0.33931
      12 -> 16         0.14179
      12 -> 19        -0.11929
      13 -> 18         0.10438
      13 -> 19        -0.26997
      13 -> 21        -0.26994
      13 -> 22         0.34713

 Excited State  12:      Singlet-A      9.6213 eV  128.86 nm  f=0.0811  <S**2>=0.000
       9 -> 15         0.14441
      11 -> 14        -0.11011
      12 -> 15         0.39915
      12 -> 16        -0.21178
      12 -> 19         0.11858
      13 -> 19        -0.20829
      13 -> 21        -0.24074
      13 -> 22         0.30751

 Excited State  13:      Singlet-A      9.8939 eV  125.31 nm  f=0.0662  <S**2>=0.000
      11 -> 15         0.10634
      11 -> 16        -0.13691
      13 -> 21         0.52940
      13 -> 22         0.39522

 Excited State  14:      Singlet-A     10.0778 eV  123.03 nm  f=0.0844  <S**2>=0.000
       9 -> 16        -0.10175
      11 -> 14        -0.12790
      11 -> 16        -0.16717
      12 -> 15         0.20964
      12 -> 16         0.57816
      12 -> 17        -0.11774

 Excited State  15:      Singlet-A     10.1187 eV  122.53 nm  f=0.0390  <S**2>=0.000
       7 -> 15        -0.11362
      11 -> 15         0.56501
      11 -> 16         0.24798
      11 -> 17        -0.10775
      12 -> 15         0.10554
      12 -> 19        -0.11847
      13 -> 15        -0.12801

 The electronic state is 1-A.
 Alpha  occ. eigenvalues --   -1.91730  -1.18773  -0.92394  -0.79843  -0.78534
 Alpha  occ. eigenvalues --   -0.69095  -0.64266  -0.54009  -0.52851  -0.44018
 Alpha  occ. eigenvalues --   -0.43285  -0.40603  -0.27375
 Alpha virt. eigenvalues --    0.12856   0.17940   0.19132   0.27249   0.29092
 Alpha virt. eigenvalues --    0.29491   0.31008   0.32680   0.34017   0.38243
 Alpha virt. eigenvalues --    0.41017

 Mulliken charges:
               1
     1  C   -0.164485
     2  C   -1.844967
     3  O    3.194214
     4  C   -1.846603
     5  C   -0.130202
     6  H    0.148927
     7  H    0.249121
     8  H    0.240442
     9  H    0.153553
 Sum of Mulliken charges =   0.00000

 Dipole moment (field-independent basis, Debye):
    X=              4.5243    Y=            -11.1925    Z=             -0.6138  Tot=             12.0880
 N-N= 1.035525187583D+02 E-N=-1.683781753751D+02  KE=-1.529413300369D+01
 Orbital energies and kinetic energies (alpha):
                                 1                 2
   1         O                -1.917300         -1.314907
   2         O                -1.187730         -1.064970
   3         O                -0.923942         -0.892514
   4         O                -0.798434         -0.571234
   5         O                -0.785337         -0.677954
   6         O                -0.690953         -0.596140
   7         O                -0.642658         -0.525538

 Normal termination of Gaussian 09 at Tue Dec 15 17:08:40 2015.
