 Gaussian 09, Revision D.01,
 Gaussian 09:  ES64L-G09RevD.01 24-Apr-2013

 ------------------------------------------------------------
 #P AM1(Input,print) CIS(Singlets,NStates=15) pop(full) force
 ------------------------------------------------------------

 -----------------
 AM1-Reparam Input
 -----------------
 Symbolic Z-matrix:
 Charge =  0 Multiplicity = 1

                         Standard orientation:
 ---------------------------------------------------------------------
 Center     Atomic      Atomic             Coordinates (Angstroms)
 Number     Number       Type             X           Y           Z
 ---------------------------------------------------------------------
      1          6           0       -0.948388    0.813173   -0.020257
      2          6           0       -0.985423   -0.618480   -0.014085
      3          8           0        0.261296   -1.072863    0.015507
      4          6           0        1.185691   -0.120481   -0.012115
      5          6           0        0.485941    1.046557    0.028516
      6          1           0        0.912059    2.022266   -0.028832
      7          1           0        2.133718   -0.338212   -0.046274
      8          1           0       -1.858493   -1.254421    0.018396
      9          1           0       -1.704583    1.428654    0.040298
 ---------------------------------------------------------------------

 SCF Done:  E(RAM1) =   1.12114118441     A.U. after   14 cycles

 Excitation energies and oscillator strengths:

 Excited State   1:      Singlet-A      5.5025 eV  225.32 nm  f=0.2290  <S**2>=0.000
      12 -> 16         0.12170
      13 -> 14         0.68192
 This state for optimization and/or second-order correction.
 Total Energy, E(CIS) =   1.32335577606
 Copying the excited state density for this state as the 1-particle RhoCI density.

 Excited State   2:      Singlet-A      6.4202 eV  193.12 nm  f=0.0074  <S**2>=0.000
      13 -> 15         0.68687

 Excited State   3:      Singlet-A      6.9235 eV  179.08 nm  f=0.0006  <S**2>=0.000
       9 -> 14        -0.13895
      10 -> 14         0.18898
      11 -> 14         0.66000

 Excited State   4:      Singlet-A      7.1138 eV  174.29 nm  f=0.0059  <S**2>=0.000
      12 -> 14        -0.37681
      13 -> 16         0.40139
      13 -> 17         0.38100
      13 -> 18         0.14653
      13 -> 21        -0.10135

 Excited State   5:      Singlet-A      7.2126 eV  171.90 nm  f=0.0160  <S**2>=0.000
      12 -> 14         0.43887
      13 -> 16        -0.14174
      13 -> 17         0.49003
      13 -> 18         0.14011

 Excited State   6:      Singlet-A      8.0301 eV  154.40 nm  f=0.0104  <S**2>=0.000
       9 -> 14        -0.19561
      10 -> 14        -0.36612
      11 -> 16         0.13992
      12 -> 15        -0.27107
      13 -> 16        -0.13854
      13 -> 18         0.40621
      13 -> 22         0.10802

 Excited State   7:      Singlet-A      8.0549 eV  153.92 nm  f=0.0320  <S**2>=0.000
       9 -> 14         0.14771
      10 -> 14         0.36600
      11 -> 16        -0.14222
      12 -> 14         0.15798
      12 -> 15        -0.26471
      13 -> 16         0.19216
      13 -> 17        -0.14984
      13 -> 18         0.34875

 Excited State   8:      Singlet-A      8.1192 eV  152.70 nm  f=0.1462  <S**2>=0.000
       9 -> 14        -0.14837
      10 -> 14        -0.28286
      11 -> 15         0.19679
      12 -> 14         0.32200
      13 -> 16         0.44437
      13 -> 17        -0.11703

 Excited State   9:      Singlet-A      8.3430 eV  148.61 nm  f=0.0057  <S**2>=0.000
      12 -> 15         0.55215
      13 -> 17        -0.18213
      13 -> 18         0.31398
      13 -> 20         0.10472

 Excited State  10:      Singlet-A      8.4105 eV  147.42 nm  f=0.0225  <S**2>=0.000
      10 -> 14         0.20673
      10 -> 15        -0.11915
      10 -> 16        -0.15306
      11 -> 15         0.33501
      11 -> 16         0.49343

 Excited State  11:      Singlet-A      8.6039 eV  144.10 nm  f=0.0476  <S**2>=0.000
       9 -> 15         0.10938
      10 -> 15        -0.19430
      10 -> 16         0.14223
      11 -> 15         0.41032
      11 -> 16        -0.31157
      11 -> 17         0.22771
      11 -> 19         0.12420
      13 -> 16        -0.17729

 Excited State  12:      Singlet-A      8.8702 eV  139.78 nm  f=0.0024  <S**2>=0.000
       9 -> 14         0.60708
      10 -> 14        -0.22256
      11 -> 14         0.19862
      13 -> 19         0.10404

 Excited State  13:      Singlet-A      8.8818 eV  139.59 nm  f=0.0021  <S**2>=0.000
      13 -> 19         0.61002
      13 -> 20        -0.23809
      13 -> 23         0.10923

 Excited State  14:      Singlet-A      9.1102 eV  136.09 nm  f=0.1457  <S**2>=0.000
       9 -> 17        -0.15690
      10 -> 15        -0.18620
      11 -> 18         0.14482
      12 -> 16         0.55060
      12 -> 17         0.18672
      13 -> 14        -0.10705

 Excited State  15:      Singlet-A      9.3006 eV  133.31 nm  f=0.0577  <S**2>=0.000
       7 -> 15        -0.10022
      12 -> 16        -0.12071
      12 -> 17         0.60937
      13 -> 20        -0.18016

 The electronic state is 1-A.
 Alpha  occ. eigenvalues --   -1.85816  -1.18382  -1.01793  -0.88742  -0.81403
 Alpha  occ. eigenvalues --   -0.75512  -0.72627  -0.63857  -0.56653  -0.53924
 Alpha  occ. eigenvalues --   -0.49793  -0.48244  -0.39948
 Alpha virt. eigenvalues --    0.01420   0.08421   0.10478   0.11456   0.16661
 Alpha virt. eigenvalues --    0.19322   0.19623   0.21018   0.25491   0.26323
 Alpha virt. eigenvalues --    0.29216

 Mulliken charges:
               1
     1  C   -0.082301
     2  C   -1.331230
     3  O    2.202729
     4  C   -1.278015
     5  C   -0.146799
     6  H    0.122145
     7  H    0.193999
     8  H    0.225279
     9  H    0.094193
 Sum of Mulliken charges =   0.00000

 Dipole moment (field-independent basis, Debye):
    X=              1.2651    Y=             -6.1163    Z=              0.2422  Tot=              6.2505
 N-N= 1.047698524929D+02 E-N=-1.715018519576D+02  KE=-1.506169288589D+01
 Orbital energies and kinetic energies (alpha):
                                 1                 2
   1         O                -1.858155         -1.268199
   2         O                -1.183818         -0.955744
   3         O                -1.017931         -0.810932
   4         O                -0.887420         -0.648960
   5         O                -0.814029         -0.682378
   6         O                -0.755122         -0.604448
   7         O                -0.726267         -0.508866

 Normal termination of Gaussian 09 at Tue Dec 15 17:05:38 2015.
