 Gaussian 09, Revision D.01,
 Gaussian 09:  ES64L-G09RevD.01 24-Apr-2013

 ------------------------------------------------------------
 #P AM1(Input,print) CIS(Singlets,NStates=15) pop(full) force
 ------------------------------------------------------------

 -----------------
 AM1-Reparam Input
 -----------------
 Symbolic Z-matrix:
 Charge =  0 Multiplicity = 1

                         Standard orientation:
 ---------------------------------------------------------------------
 Center     Atomic      Atomic             Coordinates (Angstroms)
 Number     Number       Type             X           Y           Z
 ---------------------------------------------------------------------
      1          6           0       -1.137190    0.380335    0.010335
      2          6           0       -0.696027   -0.885175   -0.005211
      3          8           0        0.690219   -0.967181    0.003865
      4          6           0        1.061751    0.335255   -0.003555
      5          6           0        0.039693    1.178220   -0.013275
      6          1           0        0.091382    2.257813   -0.001811
      7          1           0        2.232895    0.449551    0.037523
      8          1           0       -1.277352   -1.790679   -0.025039
      9          1           0       -2.178041    0.768954    0.028640
 ---------------------------------------------------------------------

 SCF Done:  E(RAM1) =   1.73080036476     A.U. after   14 cycles

 Excitation energies and oscillator strengths:

 Excited State   1:      Singlet-A      5.3835 eV  230.30 nm  f=0.3354  <S**2>=0.000
      13 -> 14         0.69478
 This state for optimization and/or second-order correction.
 Total Energy, E(CIS) =   1.92864011636
 Copying the excited state density for this state as the 1-particle RhoCI density.

 Excited State   2:      Singlet-A      5.6270 eV  220.34 nm  f=0.0015  <S**2>=0.000
      11 -> 15         0.12520
      13 -> 15         0.68057

 Excited State   3:      Singlet-A      6.3817 eV  194.28 nm  f=0.0022  <S**2>=0.000
      11 -> 16        -0.12368
      13 -> 16         0.65638
      13 -> 17        -0.13176
      13 -> 18        -0.10127
      13 -> 20         0.12954

 Excited State   4:      Singlet-A      7.0440 eV  176.01 nm  f=0.0002  <S**2>=0.000
      12 -> 14         0.67924
      13 -> 21         0.13753

 Excited State   5:      Singlet-A      7.5137 eV  165.01 nm  f=0.0134  <S**2>=0.000
      13 -> 15         0.10271
      13 -> 17         0.55588
      13 -> 19         0.18871
      13 -> 20         0.19517
      13 -> 21         0.28883

 Excited State   6:      Singlet-A      7.5854 eV  163.45 nm  f=0.0054  <S**2>=0.000
      12 -> 14        -0.13061
      13 -> 16        -0.14600
      13 -> 17        -0.37958
      13 -> 19         0.14366
      13 -> 20         0.21462
      13 -> 21         0.47951

 Excited State   7:      Singlet-A      8.2194 eV  150.84 nm  f=0.0007  <S**2>=0.000
      10 -> 14         0.67086
      13 -> 19        -0.16372

 Excited State   8:      Singlet-A      8.2729 eV  149.87 nm  f=0.0020  <S**2>=0.000
      13 -> 18         0.65692
      13 -> 19        -0.14039
      13 -> 21         0.15095

 Excited State   9:      Singlet-A      8.4302 eV  147.07 nm  f=0.0029  <S**2>=0.000
      10 -> 14         0.11357
      13 -> 18         0.21366
      13 -> 19         0.44569
      13 -> 20         0.31677
      13 -> 21        -0.34478

 Excited State  10:      Singlet-A      8.6555 eV  143.24 nm  f=0.0391  <S**2>=0.000
       8 -> 15         0.14250
      11 -> 14         0.57431
      12 -> 15         0.32207

 Excited State  11:      Singlet-A      8.8534 eV  140.04 nm  f=0.0949  <S**2>=0.000
      10 -> 14        -0.10636
      13 -> 19        -0.41511
      13 -> 20         0.52666
      13 -> 21        -0.11607

 Excited State  12:      Singlet-A      8.9707 eV  138.21 nm  f=0.1844  <S**2>=0.000
       8 -> 15         0.17375
      10 -> 17         0.12934
      11 -> 14        -0.30532
      11 -> 15         0.10936
      12 -> 15         0.46884
      12 -> 16        -0.22174
      12 -> 21        -0.12090

 Excited State  13:      Singlet-A      9.1223 eV  135.91 nm  f=0.0115  <S**2>=0.000
       7 -> 15        -0.13426
      11 -> 15         0.64674
      13 -> 15        -0.14032

 Excited State  14:      Singlet-A      9.5132 eV  130.33 nm  f=0.0773  <S**2>=0.000
       8 -> 16        -0.10594
       9 -> 16        -0.10913
      10 -> 15         0.24060
      10 -> 17        -0.24198
      11 -> 14        -0.18308
      12 -> 15         0.29681
      12 -> 16         0.36300
      12 -> 18        -0.17197
      12 -> 21         0.14676

 Excited State  15:      Singlet-A      9.8426 eV  125.97 nm  f=0.0715  <S**2>=0.000
       8 -> 15        -0.17975
       8 -> 16         0.10026
       9 -> 15         0.14097
      10 -> 15         0.39565
      10 -> 19        -0.12076
      11 -> 14         0.10646
      11 -> 16        -0.26019
      12 -> 16        -0.27658
      12 -> 17        -0.18314

 The electronic state is 1-A.
 Alpha  occ. eigenvalues --   -1.90555  -1.22794  -0.97758  -0.81189  -0.79842
 Alpha  occ. eigenvalues --   -0.67896  -0.62952  -0.51825  -0.51393  -0.42674
 Alpha  occ. eigenvalues --   -0.41265  -0.39107  -0.26398
 Alpha virt. eigenvalues --    0.14190   0.15774   0.19918   0.26337   0.27986
 Alpha virt. eigenvalues --    0.29653   0.30090   0.31149   0.36239   0.45916
 Alpha virt. eigenvalues --    0.49351

 Mulliken charges:
               1
     1  C   -0.110049
     2  C   -1.928829
     3  O    3.163625
     4  C   -1.895720
     5  C   -0.148351
     6  H    0.168907
     7  H    0.282864
     8  H    0.300985
     9  H    0.166568
 Sum of Mulliken charges =   0.00000

 Dipole moment (field-independent basis, Debye):
    X=              6.5634    Y=             -8.9190    Z=              0.1712  Tot=             11.0750
 N-N= 1.038724733581D+02 E-N=-1.694526152925D+02  KE=-1.571775008433D+01
 Orbital energies and kinetic energies (alpha):
                                 1                 2
   1         O                -1.905552         -1.371481
   2         O                -1.227935         -1.116221
   3         O                -0.977579         -0.917257
   4         O                -0.811894         -0.622898
   5         O                -0.798424         -0.685523
   6         O                -0.678962         -0.586645
   7         O                -0.629520         -0.518313

 Normal termination of Gaussian 09 at Tue Dec 15 17:07:04 2015.
