 Gaussian 09, Revision D.01,
 Gaussian 09:  ES64L-G09RevD.01 24-Apr-2013

 -------------------------------------------------------
 #P B3LYP/3-21G CIS(Singlets,NStates=15) pop(full) force
 -------------------------------------------------------

 --------
 FuranDFT
 --------
 Symbolic Z-matrix:
 Charge =  0 Multiplicity = 1

                         Standard orientation:
 ---------------------------------------------------------------------
 Center     Atomic      Atomic             Coordinates (Angstroms)
 Number     Number       Type             X           Y           Z
 ---------------------------------------------------------------------
      1          6           0       -0.743755    0.928976   -0.008493
      2          6           0       -1.092569   -0.362042   -0.008402
      3          8           0       -0.006767   -1.137432    0.000742
      4          6           0        1.131052   -0.315910   -0.016647
      5          6           0        0.702879    0.929417    0.010949
      6          1           0        1.371381    1.803845    0.032348
      7          1           0        2.052946   -0.811230    0.032611
      8          1           0       -1.994924   -0.820840    0.078009
      9          1           0       -1.360904    1.845042   -0.013350
 ---------------------------------------------------------------------

 SCF Done:  E(RB3LYP) =  -228.741662280     A.U. after   14 cycles

 Excitation energies and oscillator strengths:

 Excited State   1:      Singlet-A      7.3808 eV  167.98 nm  f=0.0651  <S**2>=0.000
      17 -> 19         0.42032
      18 -> 19         0.40495
      18 -> 20        -0.37322
 This state for optimization and/or second-order correction.
 Total Energy, E(CIS) =  -228.470423356
 Copying the excited state density for this state as the 1-particle RhoCI density.

 Excited State   2:      Singlet-A      7.6274 eV  162.55 nm  f=0.1536  <S**2>=0.000
      17 -> 19        -0.33206
      18 -> 19         0.54900
      18 -> 20         0.25012

 Excited State   3:      Singlet-A      8.7114 eV  142.32 nm  f=0.0010  <S**2>=0.000
      18 -> 21         0.69686

 Excited State   4:      Singlet-A      8.7463 eV  141.76 nm  f=0.0041  <S**2>=0.000
      16 -> 19         0.70096

 Excited State   5:      Singlet-A      9.5307 eV  130.09 nm  f=0.1535  <S**2>=0.000
      17 -> 20         0.62269
      17 -> 21         0.19060
      18 -> 20         0.16896

 Excited State   6:      Singlet-A      9.6237 eV  128.83 nm  f=0.0011  <S**2>=0.000
      17 -> 21         0.31291
      18 -> 22         0.56842
      18 -> 23        -0.24274

 Excited State   7:      Singlet-A      9.7015 eV  127.80 nm  f=0.0199  <S**2>=0.000
      17 -> 20        -0.18097
      17 -> 21         0.56206
      18 -> 22        -0.35703

 Excited State   8:      Singlet-A      9.8961 eV  125.29 nm  f=0.2686  <S**2>=0.000
      15 -> 19        -0.17372
      17 -> 19        -0.29531
      17 -> 20         0.15570
      17 -> 21         0.12568
      17 -> 22        -0.12246
      18 -> 20        -0.35435
      18 -> 22         0.11657
      18 -> 23         0.37638

 Excited State   9:      Singlet-A     10.0075 eV  123.89 nm  f=0.1798  <S**2>=0.000
      15 -> 19         0.48133
      17 -> 19        -0.23020
      18 -> 20        -0.27725
      18 -> 23        -0.28983

 Excited State  10:      Singlet-A     10.1287 eV  122.41 nm  f=0.0501  <S**2>=0.000
      15 -> 19         0.46601
      17 -> 19         0.11554
      17 -> 21         0.13447
      18 -> 20         0.13227
      18 -> 23         0.44127

 Excited State  11:      Singlet-A     10.4128 eV  119.07 nm  f=0.0018  <S**2>=0.000
      14 -> 19        -0.41233
      16 -> 20         0.54743
      18 -> 24         0.12740

 Excited State  12:      Singlet-A     10.4680 eV  118.44 nm  f=0.0019  <S**2>=0.000
      15 -> 19        -0.11845
      17 -> 22        -0.12774
      18 -> 24         0.66587

 Excited State  13:      Singlet-A     10.6004 eV  116.96 nm  f=0.0214  <S**2>=0.000
      17 -> 22         0.66162
      18 -> 24         0.12704

 Excited State  14:      Singlet-A     10.8298 eV  114.48 nm  f=0.0003  <S**2>=0.000
      14 -> 19         0.53460
      16 -> 20         0.41714

 Excited State  15:      Singlet-A     11.0057 eV  112.65 nm  f=0.0003  <S**2>=0.000
      17 -> 23         0.64393
      17 -> 24         0.10964
      17 -> 25        -0.11592
      18 -> 25        -0.18167

 The electronic state is 1-A.
 Alpha  occ. eigenvalues --  -19.10315 -10.16889 -10.16834 -10.12403 -10.12239
 Alpha  occ. eigenvalues --   -1.12171  -0.80418  -0.75750  -0.60037  -0.58177
 Alpha  occ. eigenvalues --   -0.53838  -0.45860  -0.44581  -0.41796  -0.39714
 Alpha  occ. eigenvalues --   -0.35410  -0.27498  -0.23854
 Alpha virt. eigenvalues --    0.02674   0.08612   0.12970   0.15823   0.17799
 Alpha virt. eigenvalues --    0.18462   0.21532   0.23776   0.37419   0.42301
 Alpha virt. eigenvalues --    0.48316   0.68055   0.69868   0.70114   0.76043

 Mulliken charges:
               1
     1  C   -0.256809
     2  C    0.120327
     3  O   -0.495724
     4  C    0.072342
     5  C   -0.254407
     6  H    0.185762
     7  H    0.221255
     8  H    0.223843
     9  H    0.183410
 Sum of Mulliken charges =   0.00000

 Dipole moment (field-independent basis, Debye):
    X=              0.0747    Y=              0.6980    Z=              0.1264  Tot=              0.7133
 Quadrupole moment (field-independent basis, Debye-Ang):
   XX=            -23.4121   YY=            -28.1337   ZZ=            -31.6091
   XY=             -0.0206   XZ=             -0.0393   YZ=             -0.0686

 Normal termination of Gaussian 09 at Tue Dec 15 16:30:33 2015.
