 Gaussian 09, Revision D.01,
 Gaussian 09:  ES64L-G09RevD.01 24-Apr-2013

 ------------------------------------------------------------
 #P AM1(Input,print) CIS(Singlets,NStates=15) pop(full) force
 ------------------------------------------------------------

 -----------------
 AM1-Reparam Input
 -----------------
 Symbolic Z-matrix:
 Charge =  0 Multiplicity = 1

                         Standard orientation:
 ---------------------------------------------------------------------
 Center     Atomic      Atomic             Coordinates (Angstroms)
 Number     Number       Type             X           Y           Z
 ---------------------------------------------------------------------
      1          6           0        0.997475    0.685063   -0.014824
      2          6           0        0.940449   -0.633211   -0.000099
      3          8           0       -0.343307   -1.080257   -0.024714
      4          6           0       -1.184418   -0.037306    0.038479
      5          6           0       -0.389944    1.104132    0.005761
      6          1           0       -0.719698    2.168621   -0.062461
      7          1           0       -2.209550   -0.159561   -0.029901
      8          1           0        1.684739   -1.406406    0.074416
      9          1           0        1.809589    1.327340    0.039754
 ---------------------------------------------------------------------

 SCF Done:  E(RAM1) =   2.68854927305     A.U. after   14 cycles

 Excitation energies and oscillator strengths:

 Excited State   1:      Singlet-A      5.2037 eV  238.26 nm  f=0.3558  <S**2>=0.000
      13 -> 14         0.69527
 This state for optimization and/or second-order correction.
 Total Energy, E(CIS) =   2.87978265764
 Copying the excited state density for this state as the 1-particle RhoCI density.

 Excited State   2:      Singlet-A      6.0883 eV  203.64 nm  f=0.0041  <S**2>=0.000
      11 -> 15         0.11746
      13 -> 15         0.66566
      13 -> 17        -0.14316

 Excited State   3:      Singlet-A      6.4151 eV  193.27 nm  f=0.0047  <S**2>=0.000
      11 -> 16        -0.10216
      13 -> 16         0.64517
      13 -> 17        -0.15028
      13 -> 18         0.14841
      13 -> 19        -0.11341

 Excited State   4:      Singlet-A      6.6176 eV  187.35 nm  f=0.0002  <S**2>=0.000
       9 -> 14         0.12690
      12 -> 14         0.68663

 Excited State   5:      Singlet-A      7.4551 eV  166.31 nm  f=0.0033  <S**2>=0.000
      13 -> 15         0.13015
      13 -> 17         0.39105
      13 -> 18         0.44096
      13 -> 20         0.20319
      13 -> 21        -0.27970

 Excited State   6:      Singlet-A      7.8717 eV  157.51 nm  f=0.0091  <S**2>=0.000
      10 -> 14         0.40231
      13 -> 16         0.15661
      13 -> 17         0.41498
      13 -> 18        -0.26838
      13 -> 20        -0.16882
      13 -> 21         0.11853

 Excited State   7:      Singlet-A      8.0388 eV  154.23 nm  f=0.0032  <S**2>=0.000
      10 -> 14         0.56208
      13 -> 17        -0.33952
      13 -> 18         0.16811

 Excited State   8:      Singlet-A      8.5200 eV  145.52 nm  f=0.0024  <S**2>=0.000
      13 -> 16         0.10485
      13 -> 19         0.66386

 Excited State   9:      Singlet-A      8.7265 eV  142.08 nm  f=0.0769  <S**2>=0.000
       8 -> 15        -0.11481
      11 -> 14         0.59424
      12 -> 15         0.29113

 Excited State  10:      Singlet-A      8.8378 eV  140.29 nm  f=0.0135  <S**2>=0.000
      13 -> 18        -0.40346
      13 -> 19         0.13431
      13 -> 20         0.40387
      13 -> 21        -0.36817

 Excited State  11:      Singlet-A      9.0354 eV  137.22 nm  f=0.0581  <S**2>=0.000
       8 -> 15        -0.10479
      10 -> 17         0.17398
      11 -> 14        -0.28420
      12 -> 15         0.41743
      12 -> 16        -0.22041
      12 -> 17        -0.15035
      12 -> 18        -0.24808

 Excited State  12:      Singlet-A      9.3555 eV  132.53 nm  f=0.0942  <S**2>=0.000
      13 -> 20         0.48658
      13 -> 21         0.47566

 Excited State  13:      Singlet-A      9.4028 eV  131.86 nm  f=0.1567  <S**2>=0.000
      10 -> 15         0.22375
      10 -> 16         0.12908
      10 -> 17        -0.23099
      11 -> 14        -0.14192
      12 -> 15         0.38111
      12 -> 17         0.14309
      12 -> 18         0.30898
      12 -> 19         0.10516
      12 -> 21        -0.10518

 Excited State  14:      Singlet-A      9.5434 eV  129.92 nm  f=0.0820  <S**2>=0.000
       9 -> 16        -0.11220
      10 -> 16        -0.18806
      12 -> 15         0.10596
      12 -> 16         0.58256
      12 -> 17        -0.22086
      12 -> 19        -0.10666

 Excited State  15:      Singlet-A      9.8586 eV  125.76 nm  f=0.0043  <S**2>=0.000
       9 -> 14         0.65403
      11 -> 15         0.12256
      12 -> 14        -0.11807

 The electronic state is 1-A.
 Alpha  occ. eigenvalues --   -1.77028  -1.13187  -0.94240  -0.80017  -0.75288
 Alpha  occ. eigenvalues --   -0.66105  -0.63844  -0.55199  -0.49102  -0.44271
 Alpha  occ. eigenvalues --   -0.43779  -0.39639  -0.28035
 Alpha virt. eigenvalues --    0.11432   0.17056   0.18868   0.24660   0.26490
 Alpha virt. eigenvalues --    0.28376   0.29368   0.30956   0.48244   0.56689
 Alpha virt. eigenvalues --    0.61581

 Mulliken charges:
               1
     1  C   -0.033943
     2  C   -1.984875
     3  O    3.346616
     4  C   -2.025276
     5  C   -0.110043
     6  H    0.129891
     7  H    0.284454
     8  H    0.269626
     9  H    0.123549
 Sum of Mulliken charges =   0.00000

 Dipole moment (field-independent basis, Debye):
    X=             -2.6954    Y=            -10.0461    Z=             -0.6333  Tot=             10.4207
 N-N= 1.038822979805D+02 E-N=-1.689071392334D+02  KE=-1.488567496450D+01
 Orbital energies and kinetic energies (alpha):
                                 1                 2
   1         O                -1.770282         -1.270746
   2         O                -1.131871         -0.992218
   3         O                -0.942402         -0.854531
   4         O                -0.800169         -0.594003
   5         O                -0.752882         -0.690194
   6         O                -0.661047         -0.566456
   7         O                -0.638442         -0.522419

 Normal termination of Gaussian 09 at Tue Dec 15 17:05:25 2015.
