 Gaussian 09, Revision D.01,
 Gaussian 09:  ES64L-G09RevD.01 24-Apr-2013

 ------------------------------------------------------------
 #P AM1(Input,print) CIS(Singlets,NStates=15) pop(full) force
 ------------------------------------------------------------

 -----------------
 AM1-Reparam Input
 -----------------
 Symbolic Z-matrix:
 Charge =  0 Multiplicity = 1

                         Standard orientation:
 ---------------------------------------------------------------------
 Center     Atomic      Atomic             Coordinates (Angstroms)
 Number     Number       Type             X           Y           Z
 ---------------------------------------------------------------------
      1          6           0        0.569653    1.043992    0.004934
      2          6           0        1.183941   -0.220889   -0.006324
      3          8           0        0.135734   -1.131821   -0.002770
      4          6           0       -1.038320   -0.454336    0.013365
      5          6           0       -0.867145    0.820923   -0.009065
      6          1           0       -1.586914    1.554453   -0.018553
      7          1           0       -1.864804   -1.070508   -0.002558
      8          1           0        2.119918   -0.536569    0.003201
      9          1           0        1.157157    1.969053    0.022617
 ---------------------------------------------------------------------

 SCF Done:  E(RAM1) =  0.360863038150E-01 A.U. after   13 cycles

 Excitation energies and oscillator strengths:

 Excited State   1:      Singlet-A      4.5426 eV  272.93 nm  f=0.0899  <S**2>=0.000
      12 -> 15         0.21801
      13 -> 14         0.66382
 This state for optimization and/or second-order correction.
 Total Energy, E(CIS) =  0.203025443761
 Copying the excited state density for this state as the 1-particle RhoCI density.

 Excited State   2:      Singlet-A      5.0430 eV  245.85 nm  f=0.0006  <S**2>=0.000
      13 -> 15         0.15342
      13 -> 16         0.67168

 Excited State   3:      Singlet-A      5.1636 eV  240.11 nm  f=0.0022  <S**2>=0.000
      12 -> 14        -0.43718
      13 -> 15         0.52092
      13 -> 16        -0.17409

 Excited State   4:      Singlet-A      5.7900 eV  214.13 nm  f=0.0003  <S**2>=0.000
      12 -> 18         0.17162
      13 -> 17         0.14634
      13 -> 18         0.52426
      13 -> 19        -0.20158
      13 -> 21         0.18345
      13 -> 22        -0.17576
      13 -> 23        -0.18262

 Excited State   5:      Singlet-A      5.8498 eV  211.95 nm  f=0.0016  <S**2>=0.000
       7 -> 16        -0.18863
      12 -> 16         0.65695
      12 -> 22         0.13261

 Excited State   6:      Singlet-A      6.1559 eV  201.41 nm  f=0.2961  <S**2>=0.000
      11 -> 16        -0.10294
      12 -> 14         0.49706
      12 -> 15         0.17472
      13 -> 15         0.41627

 Excited State   7:      Singlet-A      6.4568 eV  192.02 nm  f=0.0866  <S**2>=0.000
      11 -> 14        -0.10210
      12 -> 15         0.39868
      12 -> 19        -0.17534
      12 -> 20         0.12760
      12 -> 23         0.13594
      13 -> 14        -0.12558
      13 -> 18         0.13113
      13 -> 19         0.33218
      13 -> 20        -0.11909
      13 -> 22         0.12352
      13 -> 23        -0.14226

 Excited State   8:      Singlet-A      6.4774 eV  191.41 nm  f=0.1181  <S**2>=0.000
      12 -> 15         0.49151
      12 -> 19         0.15149
      12 -> 20        -0.11400
      12 -> 23        -0.11095
      13 -> 14        -0.15447
      13 -> 18        -0.11139
      13 -> 19        -0.26165
      13 -> 22        -0.10305
      13 -> 23         0.12871

 Excited State   9:      Singlet-A      6.5761 eV  188.54 nm  f=0.0032  <S**2>=0.000
      13 -> 17         0.59513
      13 -> 18        -0.20102
      13 -> 19        -0.15558
      13 -> 21        -0.11736
      13 -> 23        -0.12162

 Excited State  10:      Singlet-A      6.8334 eV  181.44 nm  f=0.0010  <S**2>=0.000
       9 -> 15        -0.13641
      11 -> 14         0.63371
      11 -> 15         0.15362
      12 -> 19        -0.10751

 Excited State  11:      Singlet-A      7.0697 eV  175.37 nm  f=0.0003  <S**2>=0.000
      12 -> 17         0.57212
      12 -> 18        -0.22663
      12 -> 19        -0.12042
      12 -> 20         0.11148
      12 -> 21        -0.10679
      12 -> 23        -0.15857
      13 -> 17        -0.13040

 Excited State  12:      Singlet-A      7.3460 eV  168.78 nm  f=0.0023  <S**2>=0.000
      12 -> 17         0.13654
      12 -> 18         0.16648
      12 -> 19         0.32331
      13 -> 17         0.18624
      13 -> 18         0.11508
      13 -> 19         0.39259
      13 -> 20         0.27125
      13 -> 24        -0.10912

 Excited State  13:      Singlet-A      7.6270 eV  162.56 nm  f=0.0008  <S**2>=0.000
       8 -> 14         0.11237
       9 -> 14         0.47529
       9 -> 15        -0.18348
      10 -> 15         0.38551
      11 -> 15        -0.17116
      13 -> 22         0.11044

 Excited State  14:      Singlet-A      7.6988 eV  161.04 nm  f=0.0001  <S**2>=0.000
       9 -> 15         0.14538
      10 -> 14         0.51822
      11 -> 14         0.11017
      12 -> 18        -0.23506
      12 -> 19         0.14143
      12 -> 22         0.10594
      13 -> 18         0.15414
      13 -> 24        -0.15472

 Excited State  15:      Singlet-A      7.7876 eV  159.21 nm  f=0.0025  <S**2>=0.000
       9 -> 14         0.11006
      10 -> 14         0.34923
      12 -> 17         0.10032
      12 -> 18         0.23857
      12 -> 21        -0.11968
      12 -> 22        -0.13693
      12 -> 23        -0.11013
      12 -> 24        -0.12119
      13 -> 17        -0.12765
      13 -> 18        -0.20528
      13 -> 19         0.10794
      13 -> 22        -0.28672
      13 -> 23        -0.20442

 The electronic state is 1-A.
 Alpha  occ. eigenvalues --   -1.56596  -1.23503  -1.11959  -0.82789  -0.82209
 Alpha  occ. eigenvalues --   -0.69223  -0.60054  -0.57778  -0.51723  -0.50269
 Alpha  occ. eigenvalues --   -0.49495  -0.39628  -0.35116
 Alpha virt. eigenvalues --    0.02854   0.06347   0.09586   0.14192   0.15028
 Alpha virt. eigenvalues --    0.15858   0.17818   0.18870   0.19542   0.20667
 Alpha virt. eigenvalues --    0.22306

 Mulliken charges:
               1
     1  C   -0.211919
     2  C   -0.094490
     3  O   -0.107804
     4  C   -0.062725
     5  C   -0.194168
     6  H    0.153360
     7  H    0.174008
     8  H    0.185591
     9  H    0.158149
 Sum of Mulliken charges =   0.00000

 Dipole moment (field-independent basis, Debye):
    X=              0.0053    Y=              0.4438    Z=              0.0077  Tot=              0.4439
 N-N= 1.037811371419D+02 E-N=-1.714701064996D+02  KE=-1.661316348120D+01
 Orbital energies and kinetic energies (alpha):
                                 1                 2
   1         O                -1.565959         -1.317632
   2         O                -1.235027         -1.044990
   3         O                -1.119594         -0.978839
   4         O                -0.827892         -0.712241
   5         O                -0.822085         -0.731153
   6         O                -0.692227         -0.605960
   7         O                -0.600539         -0.486664

 Normal termination of Gaussian 09 at Tue Dec 15 16:18:53 2015.
