 Gaussian 09, Revision D.01,
 Gaussian 09:  ES64L-G09RevD.01 24-Apr-2013

 ------------------------------------------------------------
 #P AM1(Input,print) CIS(Singlets,NStates=15) pop(full) force
 ------------------------------------------------------------

 -----------------
 AM1-Reparam Input
 -----------------
 Symbolic Z-matrix:
 Charge =  0 Multiplicity = 1

                         Standard orientation:
 ---------------------------------------------------------------------
 Center     Atomic      Atomic             Coordinates (Angstroms)
 Number     Number       Type             X           Y           Z
 ---------------------------------------------------------------------
      1          6           0       -0.649209    0.952741   -0.010527
      2          6           0       -1.125689   -0.286260   -0.018166
      3          8           0       -0.016815   -1.185070    0.020537
      4          6           0        1.071734   -0.378041   -0.018015
      5          6           0        0.715134    0.952553    0.003449
      6          1           0        1.405952    1.806359    0.024339
      7          1           0        1.996069   -0.867944    0.000200
      8          1           0       -2.049384   -0.749091    0.004314
      9          1           0       -1.289940    1.845278    0.066410
 ---------------------------------------------------------------------

 SCF Done:  E(RAM1) =   2.56748317134     A.U. after   13 cycles

 Excitation energies and oscillator strengths:

 Excited State   1:      Singlet-A      5.5982 eV  221.47 nm  f=0.3183  <S**2>=0.000
      13 -> 14         0.69158
 This state for optimization and/or second-order correction.
 Total Energy, E(CIS) =   2.77321352696
 Copying the excited state density for this state as the 1-particle RhoCI density.

 Excited State   2:      Singlet-A      6.4924 eV  190.97 nm  f=0.0030  <S**2>=0.000
      10 -> 15        -0.11704
      13 -> 15         0.65707
      13 -> 17        -0.17874

 Excited State   3:      Singlet-A      6.9535 eV  178.30 nm  f=0.0012  <S**2>=0.000
      10 -> 16         0.12045
      13 -> 16         0.65022
      13 -> 19         0.12250

 Excited State   4:      Singlet-A      7.0866 eV  174.96 nm  f=0.0009  <S**2>=0.000
       9 -> 14        -0.10049
      12 -> 14         0.68850

 Excited State   5:      Singlet-A      7.8641 eV  157.66 nm  f=0.0055  <S**2>=0.000
      10 -> 14         0.20507
      11 -> 14         0.65415
      13 -> 17        -0.11755

 Excited State   6:      Singlet-A      8.1733 eV  151.69 nm  f=0.0018  <S**2>=0.000
      10 -> 15         0.10384
      11 -> 14        -0.10849
      13 -> 15        -0.11206
      13 -> 17        -0.40687
      13 -> 18         0.46373
      13 -> 21        -0.27134

 Excited State   7:      Singlet-A      8.3830 eV  147.90 nm  f=0.0062  <S**2>=0.000
      10 -> 16         0.11615
      13 -> 16         0.11143
      13 -> 17         0.50454
      13 -> 18         0.40245
      13 -> 21        -0.16519

 Excited State   8:      Singlet-A      8.9428 eV  138.64 nm  f=0.0595  <S**2>=0.000
      10 -> 14         0.62813
      11 -> 14        -0.19068
      12 -> 17        -0.13546

 Excited State   9:      Singlet-A      9.0869 eV  136.44 nm  f=0.0008  <S**2>=0.000
      13 -> 19         0.64730
      13 -> 20         0.10982
      13 -> 21         0.10392

 Excited State  10:      Singlet-A      9.3684 eV  132.34 nm  f=0.0412  <S**2>=0.000
       8 -> 15         0.11498
       9 -> 15        -0.13254
      10 -> 14        -0.16422
      11 -> 16         0.20138
      11 -> 17        -0.20248
      11 -> 18        -0.15120
      12 -> 15         0.40078
      12 -> 17        -0.19065
      12 -> 18         0.23625

 Excited State  11:      Singlet-A      9.6806 eV  128.07 nm  f=0.0108  <S**2>=0.000
      13 -> 18         0.31357
      13 -> 19        -0.17583
      13 -> 20         0.20970
      13 -> 21         0.55262

 Excited State  12:      Singlet-A      9.8508 eV  125.86 nm  f=0.2651  <S**2>=0.000
       8 -> 15        -0.10195
      11 -> 15         0.37945
      11 -> 16         0.12404
      11 -> 17        -0.13577
      12 -> 15        -0.28226
      12 -> 16         0.38357
      12 -> 18         0.10910
      12 -> 19         0.15724

 Excited State  13:      Singlet-A      9.9147 eV  125.05 nm  f=0.0232  <S**2>=0.000
      11 -> 15        -0.35218
      11 -> 17         0.10634
      12 -> 15         0.18470
      12 -> 16         0.49140
      12 -> 17        -0.12001

 Excited State  14:      Singlet-A      9.9588 eV  124.50 nm  f=0.0380  <S**2>=0.000
       7 -> 15         0.11278
      10 -> 15         0.56094
      12 -> 15        -0.18842
      13 -> 15         0.13162
      13 -> 20         0.28409

 Excited State  15:      Singlet-A     10.0996 eV  122.76 nm  f=0.0777  <S**2>=0.000
      10 -> 15        -0.25303
      10 -> 16        -0.10791
      13 -> 19        -0.10209
      13 -> 20         0.56159
      13 -> 21        -0.24937

 The electronic state is 1-A.
 Alpha  occ. eigenvalues --   -1.72746  -1.17373  -0.95095  -0.79991  -0.77344
 Alpha  occ. eigenvalues --   -0.67579  -0.63987  -0.54392  -0.50387  -0.43223
 Alpha  occ. eigenvalues --   -0.42528  -0.40143  -0.28923
 Alpha virt. eigenvalues --    0.13064   0.18165   0.20349   0.25611   0.27736
 Alpha virt. eigenvalues --    0.29681   0.32026   0.33803   0.37642   0.47263
 Alpha virt. eigenvalues --    0.51045

 Mulliken charges:
               1
     1  C   -0.016574
     2  C   -1.894167
     3  O    3.226182
     4  C   -1.937010
     5  C   -0.100062
     6  H    0.119261
     7  H    0.254530
     8  H    0.236121
     9  H    0.111719
 Sum of Mulliken charges =   0.00000

 Dipole moment (field-independent basis, Debye):
    X=              0.0489    Y=            -11.1280    Z=              0.6472  Tot=             11.1469
 N-N= 1.038310224452D+02 E-N=-1.687900260583D+02  KE=-1.506280639378D+01
 Orbital energies and kinetic energies (alpha):
                                 1                 2
   1         O                -1.727459         -1.217027
   2         O                -1.173729         -1.027815
   3         O                -0.950949         -0.875859
   4         O                -0.799914         -0.610948
   5         O                -0.773443         -0.685142
   6         O                -0.675791         -0.579706
   7         O                -0.639873         -0.527276

 Normal termination of Gaussian 09 at Tue Dec 15 17:06:22 2015.
