 Gaussian 09, Revision D.01,
 Gaussian 09:  ES64L-G09RevD.01 24-Apr-2013

 ------------------------------------------------------------
 #P AM1(Input,print) CIS(Singlets,NStates=15) pop(full) force
 ------------------------------------------------------------

 -----------------
 AM1-Reparam Input
 -----------------
 Symbolic Z-matrix:
 Charge =  0 Multiplicity = 1

                         Standard orientation:
 ---------------------------------------------------------------------
 Center     Atomic      Atomic             Coordinates (Angstroms)
 Number     Number       Type             X           Y           Z
 ---------------------------------------------------------------------
      1          6           0        0.867254    0.750367   -0.006659
      2          6           0        1.031277   -0.573175    0.003733
      3          8           0       -0.267478   -1.103384   -0.017968
      4          6           0       -1.161435   -0.142458    0.039961
      5          6           0       -0.452088    1.109645   -0.021723
      6          1           0       -0.915346    2.034524    0.000670
      7          1           0       -2.163544   -0.350638   -0.026643
      8          1           0        1.785176   -1.221629    0.023659
      9          1           0        1.723492    1.498536    0.054184
 ---------------------------------------------------------------------

 SCF Done:  E(RAM1) =   2.69195504688     A.U. after   14 cycles

 Excitation energies and oscillator strengths:

 Excited State   1:      Singlet-A      5.5999 eV  221.41 nm  f=0.3224  <S**2>=0.000
      13 -> 14         0.68874
 This state for optimization and/or second-order correction.
 Total Energy, E(CIS) =   2.89774639416
 Copying the excited state density for this state as the 1-particle RhoCI density.

 Excited State   2:      Singlet-A      6.4331 eV  192.73 nm  f=0.0090  <S**2>=0.000
      13 -> 15         0.64667
      13 -> 16         0.11568
      13 -> 17        -0.20083

 Excited State   3:      Singlet-A      6.9471 eV  178.47 nm  f=0.0035  <S**2>=0.000
       9 -> 14         0.12315
      12 -> 14         0.64477
      13 -> 16        -0.21585

 Excited State   4:      Singlet-A      7.0712 eV  175.34 nm  f=0.0014  <S**2>=0.000
      12 -> 14         0.24074
      13 -> 16         0.61013
      13 -> 19        -0.16635

 Excited State   5:      Singlet-A      7.8777 eV  157.39 nm  f=0.0035  <S**2>=0.000
      10 -> 14        -0.35672
      11 -> 14         0.35811
      13 -> 15         0.10553
      13 -> 17         0.32001
      13 -> 18         0.24048
      13 -> 21        -0.22863

 Excited State   6:      Singlet-A      8.0088 eV  154.81 nm  f=0.0027  <S**2>=0.000
      10 -> 14        -0.32411
      11 -> 14         0.34228
      13 -> 17        -0.32712
      13 -> 18        -0.30535
      13 -> 21         0.20646

 Excited State   7:      Singlet-A      8.3298 eV  148.84 nm  f=0.0094  <S**2>=0.000
      11 -> 16         0.11098
      13 -> 15         0.12031
      13 -> 17         0.46178
      13 -> 18        -0.39564
      13 -> 19         0.10066
      13 -> 20        -0.12006
      13 -> 21         0.21642

 Excited State   8:      Singlet-A      8.7617 eV  141.51 nm  f=0.0400  <S**2>=0.000
      10 -> 14         0.38520
      11 -> 14         0.37269
      11 -> 15        -0.15032
      12 -> 15        -0.11845
      12 -> 17         0.24258
      12 -> 18         0.16103
      13 -> 19        -0.11988

 Excited State   9:      Singlet-A      8.8701 eV  139.78 nm  f=0.0042  <S**2>=0.000
      10 -> 15         0.11587
      13 -> 16         0.11524
      13 -> 18         0.29600
      13 -> 19         0.51910
      13 -> 21         0.23931

 Excited State  10:      Singlet-A      9.1922 eV  134.88 nm  f=0.2365  <S**2>=0.000
      10 -> 14         0.27942
      10 -> 15        -0.11235
      10 -> 16        -0.11880
      10 -> 17         0.11009
      11 -> 14         0.28369
      11 -> 16         0.10745
      12 -> 15         0.31304
      12 -> 16         0.10570
      12 -> 17        -0.21528
      12 -> 18        -0.18654

 Excited State  11:      Singlet-A      9.2940 eV  133.40 nm  f=0.0010  <S**2>=0.000
      13 -> 18         0.27845
      13 -> 19        -0.36702
      13 -> 20        -0.10752
      13 -> 21         0.48869

 Excited State  12:      Singlet-A      9.5895 eV  129.29 nm  f=0.0211  <S**2>=0.000
       9 -> 15         0.10532
      10 -> 15        -0.29225
      11 -> 15         0.36063
      12 -> 15        -0.35532
      12 -> 16        -0.24715

 Excited State  13:      Singlet-A      9.6922 eV  127.92 nm  f=0.1573  <S**2>=0.000
      11 -> 15         0.19596
      12 -> 15        -0.17613
      12 -> 16         0.59433
      12 -> 19        -0.13025

 Excited State  14:      Singlet-A      9.7803 eV  126.77 nm  f=0.0699  <S**2>=0.000
      10 -> 15        -0.12179
      11 -> 15        -0.23273
      11 -> 18        -0.13042
      12 -> 15        -0.20963
      12 -> 17        -0.18947
      12 -> 18        -0.20926
      13 -> 20         0.43414
      13 -> 21         0.12363

 Excited State  15:      Singlet-A      9.7980 eV  126.54 nm  f=0.0948  <S**2>=0.000
       8 -> 15         0.12594
       9 -> 15         0.13026
      10 -> 15        -0.10980
      10 -> 18        -0.14019
      11 -> 18         0.10361
      12 -> 15         0.23088
      12 -> 17         0.20301
      12 -> 18         0.21880
      12 -> 19         0.10536
      13 -> 20         0.44260
      13 -> 21         0.11865

 The electronic state is 1-A.
 Alpha  occ. eigenvalues --   -1.77014  -1.14451  -0.94632  -0.79789  -0.76081
 Alpha  occ. eigenvalues --   -0.66833  -0.63975  -0.56109  -0.49737  -0.43901
 Alpha  occ. eigenvalues --   -0.43565  -0.40299  -0.29995
 Alpha virt. eigenvalues --    0.11943   0.17587   0.20010   0.23226   0.26260
 Alpha virt. eigenvalues --    0.27349   0.29975   0.30908   0.47887   0.56085
 Alpha virt. eigenvalues --    0.61318

 Mulliken charges:
               1
     1  C   -0.002964
     2  C   -1.982116
     3  O    3.354547
     4  C   -2.069961
     5  C   -0.110730
     6  H    0.134700
     7  H    0.287924
     8  H    0.259863
     9  H    0.128736
 Sum of Mulliken charges =   0.00000

 Dipole moment (field-independent basis, Debye):
    X=             -2.3868    Y=             -9.7553    Z=             -0.6117  Tot=             10.0617
 N-N= 1.040409843808D+02 E-N=-1.690488800387D+02  KE=-1.492154798123D+01
 Orbital energies and kinetic energies (alpha):
                                 1                 2
   1         O                -1.770144         -1.268758
   2         O                -1.144507         -0.998462
   3         O                -0.946320         -0.859847
   4         O                -0.797887         -0.596726
   5         O                -0.760810         -0.689218
   6         O                -0.668333         -0.574401
   7         O                -0.639753         -0.524364

 Normal termination of Gaussian 09 at Tue Dec 15 17:05:27 2015.
