 Gaussian 09, Revision D.01,
 Gaussian 09:  ES64L-G09RevD.01 24-Apr-2013

 ------------------------------------------------------------
 #P AM1(Input,print) CIS(Singlets,NStates=15) pop(full) force
 ------------------------------------------------------------

 -----------------
 AM1-Reparam Input
 -----------------
 Symbolic Z-matrix:
 Charge =  0 Multiplicity = 1

                         Standard orientation:
 ---------------------------------------------------------------------
 Center     Atomic      Atomic             Coordinates (Angstroms)
 Number     Number       Type             X           Y           Z
 ---------------------------------------------------------------------
      1          6           0        0.559627    1.015389   -0.006607
      2          6           0        1.137285   -0.187972   -0.011430
      3          8           0        0.185658   -1.112927   -0.013445
      4          6           0       -1.030920   -0.500435    0.009945
      5          6           0       -0.857226    0.843068    0.026187
      6          1           0       -1.665486    1.532788   -0.070999
      7          1           0       -1.887181   -1.162659   -0.006423
      8          1           0        2.129413   -0.494770    0.098703
      9          1           0        1.085399    2.007760   -0.022291
 ---------------------------------------------------------------------

 SCF Done:  E(RAM1) =   2.12006804153     A.U. after   13 cycles

 Excitation energies and oscillator strengths:

 Excited State   1:      Singlet-A      5.4890 eV  225.88 nm  f=0.3441  <S**2>=0.000
      13 -> 14         0.69407
 This state for optimization and/or second-order correction.
 Total Energy, E(CIS) =   2.32178641214
 Copying the excited state density for this state as the 1-particle RhoCI density.

 Excited State   2:      Singlet-A      6.5910 eV  188.11 nm  f=0.0054  <S**2>=0.000
      13 -> 15         0.66394
      13 -> 17        -0.17174

 Excited State   3:      Singlet-A      6.7326 eV  184.16 nm  f=0.0003  <S**2>=0.000
      10 -> 15        -0.11242
      13 -> 16         0.66262
      13 -> 19         0.17007

 Excited State   4:      Singlet-A      7.2053 eV  172.07 nm  f=0.0007  <S**2>=0.000
      12 -> 14         0.69895

 Excited State   5:      Singlet-A      8.0274 eV  154.45 nm  f=0.0070  <S**2>=0.000
      10 -> 14        -0.19841
      11 -> 14         0.51323
      13 -> 17         0.32866
      13 -> 18        -0.18413
      13 -> 21        -0.17293

 Excited State   6:      Singlet-A      8.1189 eV  152.71 nm  f=0.0009  <S**2>=0.000
      10 -> 14        -0.14736
      11 -> 14         0.39205
      13 -> 17        -0.29183
      13 -> 18         0.36118
      13 -> 19         0.13216
      13 -> 21         0.25696

 Excited State   7:      Singlet-A      8.4910 eV  146.02 nm  f=0.0064  <S**2>=0.000
      11 -> 14        -0.11541
      13 -> 15         0.13115
      13 -> 17         0.50902
      13 -> 18         0.36733
      13 -> 19         0.11740
      13 -> 21         0.19204

 Excited State   8:      Singlet-A      9.0816 eV  136.52 nm  f=0.0832  <S**2>=0.000
      10 -> 14         0.62406
      11 -> 14         0.23423
      12 -> 15        -0.11123
      13 -> 22        -0.12264

 Excited State   9:      Singlet-A      9.1125 eV  136.06 nm  f=0.0034  <S**2>=0.000
      13 -> 18        -0.32323
      13 -> 19         0.58846
      13 -> 21         0.11138

 Excited State  10:      Singlet-A      9.6218 eV  128.86 nm  f=0.0059  <S**2>=0.000
      13 -> 18        -0.28393
      13 -> 19        -0.25421
      13 -> 20        -0.24559
      13 -> 21         0.51990

 Excited State  11:      Singlet-A      9.7750 eV  126.84 nm  f=0.0160  <S**2>=0.000
       8 -> 15         0.15294
      10 -> 15         0.10243
      11 -> 15        -0.14348
      11 -> 17         0.19323
      11 -> 18         0.10489
      12 -> 16         0.46367
      12 -> 17        -0.18037
      12 -> 18         0.24431
      12 -> 19         0.10488
      13 -> 20         0.12182

 Excited State  12:      Singlet-A      9.9502 eV  124.60 nm  f=0.0898  <S**2>=0.000
      11 -> 15         0.16273
      11 -> 16        -0.11920
      12 -> 15        -0.38533
      12 -> 16         0.11830
      12 -> 17         0.14577
      13 -> 20         0.42074
      13 -> 21         0.20365

 Excited State  13:      Singlet-A      9.9635 eV  124.44 nm  f=0.1204  <S**2>=0.000
      11 -> 15        -0.13497
      12 -> 15         0.36455
      12 -> 16        -0.23864
      12 -> 17        -0.10219
      13 -> 20         0.45340
      13 -> 21         0.17888

 Excited State  14:      Singlet-A     10.2077 eV  121.46 nm  f=0.1932  <S**2>=0.000
      11 -> 15         0.36041
      11 -> 16         0.28582
      11 -> 17        -0.14491
      12 -> 15         0.30457
      12 -> 16         0.28778
      12 -> 18        -0.16862

 Excited State  15:      Singlet-A     10.4148 eV  119.05 nm  f=0.0448  <S**2>=0.000
       7 -> 16         0.10160
      10 -> 15         0.56762
      11 -> 15         0.17636
      12 -> 16        -0.16464
      12 -> 17        -0.11680
      13 -> 16         0.13789

 The electronic state is 1-A.
 Alpha  occ. eigenvalues --   -1.95346  -1.19764  -0.94792  -0.81568  -0.78586
 Alpha  occ. eigenvalues --   -0.69555  -0.67254  -0.56351  -0.54139  -0.45461
 Alpha  occ. eigenvalues --   -0.44618  -0.41961  -0.29619
 Alpha virt. eigenvalues --    0.11284   0.17888   0.18185   0.25044   0.27141
 Alpha virt. eigenvalues --    0.29399   0.30597   0.31709   0.32900   0.40811
 Alpha virt. eigenvalues --    0.45667

 Mulliken charges:
               1
     1  C   -0.173231
     2  C   -1.892536
     3  O    3.218134
     4  C   -1.891200
     5  C   -0.130698
     6  H    0.161772
     7  H    0.265839
     8  H    0.276310
     9  H    0.165611
 Sum of Mulliken charges =   0.00000

 Dipole moment (field-independent basis, Debye):
    X=              1.7290    Y=            -10.1641    Z=             -0.0817  Tot=             10.3104
 N-N= 1.046025289089D+02 E-N=-1.700141743606D+02  KE=-1.537045781575D+01
 Orbital energies and kinetic energies (alpha):
                                 1                 2
   1         O                -1.953458         -1.387514
   2         O                -1.197636         -1.043734
   3         O                -0.947916         -0.886146
   4         O                -0.815682         -0.570594
   5         O                -0.785861         -0.694103
   6         O                -0.695555         -0.580073
   7         O                -0.672544         -0.533109

 Normal termination of Gaussian 09 at Tue Dec 15 17:08:38 2015.
