 Gaussian 09, Revision D.01,
 Gaussian 09:  ES64L-G09RevD.01 24-Apr-2013

 ------------------------------------------------------------
 #P AM1(Input,print) CIS(Singlets,NStates=15) pop(full) force
 ------------------------------------------------------------

 -----------------
 AM1-Reparam Input
 -----------------
 Symbolic Z-matrix:
 Charge =  0 Multiplicity = 1

                         Standard orientation:
 ---------------------------------------------------------------------
 Center     Atomic      Atomic             Coordinates (Angstroms)
 Number     Number       Type             X           Y           Z
 ---------------------------------------------------------------------
      1          6           0       -0.539353    1.061019   -0.012649
      2          6           0       -1.170045   -0.182549    0.028961
      3          8           0       -0.201308   -1.090727   -0.017120
      4          6           0        1.014732   -0.522020   -0.001889
      5          6           0        0.911592    0.780923   -0.009582
      6          1           0        1.622497    1.557458    0.076031
      7          1           0        1.845513   -1.197540    0.044122
      8          1           0       -2.155868   -0.461706    0.015911
      9          1           0       -1.003236    2.003364   -0.028147
 ---------------------------------------------------------------------

 SCF Done:  E(RAM1) =  -5.92424434562     A.U. after   15 cycles

 Excitation energies and oscillator strengths:

 Excited State   1:      Singlet-A      6.4575 eV  192.00 nm  f=0.2792  <S**2>=0.000
      13 -> 14         0.68080
 This state for optimization and/or second-order correction.
 Total Energy, E(CIS) =  -5.68693543382
 Copying the excited state density for this state as the 1-particle RhoCI density.

 Excited State   2:      Singlet-A      6.9827 eV  177.56 nm  f=0.0035  <S**2>=0.000
      12 -> 14         0.68711

 Excited State   3:      Singlet-A      7.1446 eV  173.54 nm  f=0.0151  <S**2>=0.000
      13 -> 15         0.53580
      13 -> 16         0.43648

 Excited State   4:      Singlet-A      7.3693 eV  168.24 nm  f=0.0002  <S**2>=0.000
      13 -> 15        -0.43055
      13 -> 16         0.52664
      13 -> 21        -0.10264

 Excited State   5:      Singlet-A      8.0957 eV  153.15 nm  f=0.0048  <S**2>=0.000
      10 -> 14         0.11701
      11 -> 14         0.69033

 Excited State   6:      Singlet-A      9.1495 eV  135.51 nm  f=0.0145  <S**2>=0.000
       9 -> 14         0.16946
      10 -> 14         0.60584
      13 -> 19         0.22765

 Excited State   7:      Singlet-A      9.4217 eV  131.59 nm  f=0.0026  <S**2>=0.000
      13 -> 17         0.65035
      13 -> 22         0.15390

 Excited State   8:      Singlet-A      9.4791 eV  130.80 nm  f=0.0111  <S**2>=0.000
       9 -> 14         0.59829
      12 -> 15        -0.13935
      13 -> 19        -0.28880

 Excited State   9:      Singlet-A      9.5413 eV  129.95 nm  f=0.0197  <S**2>=0.000
       9 -> 14         0.21212
      11 -> 16         0.14385
      12 -> 15         0.45752
      12 -> 16         0.40500
      12 -> 18        -0.11588
      13 -> 17        -0.10235

 Excited State  10:      Singlet-A      9.7469 eV  127.20 nm  f=0.0285  <S**2>=0.000
      11 -> 15         0.13914
      12 -> 15        -0.42341
      12 -> 16         0.47221
      12 -> 21        -0.11622
      13 -> 18        -0.15297

 Excited State  11:      Singlet-A      9.8623 eV  125.71 nm  f=0.0167  <S**2>=0.000
      10 -> 15         0.10506
      10 -> 16        -0.22980
      12 -> 15        -0.10544
      12 -> 16         0.11198
      13 -> 18         0.58090
      13 -> 20        -0.18088

 Excited State  12:      Singlet-A     10.2993 eV  120.38 nm  f=0.0651  <S**2>=0.000
       9 -> 14         0.11054
      10 -> 14        -0.14266
      10 -> 15         0.30667
      10 -> 16         0.20104
      11 -> 15        -0.11018
      11 -> 16        -0.24149
      13 -> 19         0.41116
      13 -> 20        -0.20736

 Excited State  13:      Singlet-A     10.4255 eV  118.92 nm  f=0.0001  <S**2>=0.000
      10 -> 15         0.14663
      11 -> 15        -0.12209
      11 -> 16        -0.11433
      13 -> 18         0.20432
      13 -> 20         0.60755

 Excited State  14:      Singlet-A     10.4668 eV  118.46 nm  f=0.0922  <S**2>=0.000
       9 -> 14         0.12309
       9 -> 15         0.18343
       9 -> 16         0.13248
      10 -> 14        -0.17201
      10 -> 15        -0.30926
      10 -> 16        -0.31488
      11 -> 15         0.11177
      13 -> 19         0.36132
      13 -> 20         0.11472

 Excited State  15:      Singlet-A     10.6757 eV  116.14 nm  f=0.0309  <S**2>=0.000
       9 -> 16         0.10350
      10 -> 15         0.14672
      10 -> 16         0.20625
      11 -> 15         0.49819
      11 -> 16         0.27337
      12 -> 16        -0.13338
      12 -> 17        -0.11941
      13 -> 19         0.10526

 The electronic state is 1-A.
 Alpha  occ. eigenvalues --   -4.61914  -1.31310  -0.99684  -0.97835  -0.96179
 Alpha  occ. eigenvalues --   -0.88863  -0.80265  -0.63099  -0.56741  -0.55316
 Alpha  occ. eigenvalues --   -0.54587  -0.50658  -0.42438
 Alpha virt. eigenvalues --    0.01102   0.07750   0.08144   0.16504   0.17180
 Alpha virt. eigenvalues --    0.17795   0.19715   0.21917   0.27947   0.30994
 Alpha virt. eigenvalues --    0.34557

 Mulliken charges:
               1
     1  C   -0.461124
     2  C   -1.345554
     3  O    2.669862
     4  C   -1.306233
     5  C   -0.417983
     6  H    0.253542
     7  H    0.177060
     8  H    0.179609
     9  H    0.250821
 Sum of Mulliken charges =   0.00000

 Dipole moment (field-independent basis, Debye):
    X=             -1.3337    Y=             -9.3450    Z=             -0.2056  Tot=              9.4420
 N-N= 1.038365860196D+02 E-N=-1.683052283704D+02  KE=-2.363864009546D+01
 Orbital energies and kinetic energies (alpha):
                                 1                 2
   1         O                -4.619136         -3.838967
   2         O                -1.313100         -1.148821
   3         O                -0.996838         -0.865890
   4         O                -0.978353         -0.879501
   5         O                -0.961791         -0.871729
   6         O                -0.888633         -0.822716
   7         O                -0.802652         -0.639700

 Normal termination of Gaussian 09 at Fri Dec 11 13:41:29 2015.
