 Gaussian 09, Revision D.01,
 Gaussian 09:  ES64L-G09RevD.01 24-Apr-2013

 ------------------------------------------------------------
 #P AM1(Input,print) CIS(Singlets,NStates=15) pop(full) force
 ------------------------------------------------------------

 -----------------
 AM1-Reparam Input
 -----------------
 Symbolic Z-matrix:
 Charge =  0 Multiplicity = 1

                         Standard orientation:
 ---------------------------------------------------------------------
 Center     Atomic      Atomic             Coordinates (Angstroms)
 Number     Number       Type             X           Y           Z
 ---------------------------------------------------------------------
      1          6           0        1.007904    0.735301   -0.010651
      2          6           0        0.916886   -0.666669   -0.015906
      3          8           0       -0.356045   -1.062698    0.009082
      4          6           0       -1.117933   -0.040962   -0.017816
      5          6           0       -0.431617    1.100602    0.019935
      6          1           0       -0.735326    2.120375   -0.047185
      7          1           0       -2.221389   -0.217233    0.035419
      8          1           0        1.722424   -1.466074    0.028507
      9          1           0        1.831221    1.294886    0.057225
 ---------------------------------------------------------------------

 SCF Done:  E(RAM1) =   2.61270469959     A.U. after   14 cycles

 Excitation energies and oscillator strengths:

 Excited State   1:      Singlet-A      4.9522 eV  250.36 nm  f=0.3722  <S**2>=0.000
      13 -> 14         0.69946
 This state for optimization and/or second-order correction.
 Total Energy, E(CIS) =   2.79469295725
 Copying the excited state density for this state as the 1-particle RhoCI density.

 Excited State   2:      Singlet-A      5.9850 eV  207.16 nm  f=0.0003  <S**2>=0.000
      13 -> 15         0.64321
      13 -> 16        -0.16605
      13 -> 17         0.17221

 Excited State   3:      Singlet-A      6.2286 eV  199.06 nm  f=0.0004  <S**2>=0.000
      12 -> 14         0.69675

 Excited State   4:      Singlet-A      6.4111 eV  193.39 nm  f=0.0047  <S**2>=0.000
      13 -> 15         0.19242
      13 -> 16         0.64501
      13 -> 17        -0.10804

 Excited State   5:      Singlet-A      7.6156 eV  162.80 nm  f=0.0047  <S**2>=0.000
      10 -> 14         0.68691
      13 -> 17         0.11697

 Excited State   6:      Singlet-A      7.6629 eV  161.80 nm  f=0.0005  <S**2>=0.000
      10 -> 14        -0.12958
      11 -> 16        -0.10519
      13 -> 15        -0.12897
      13 -> 16         0.11314
      13 -> 17         0.64367
      13 -> 21        -0.11120

 Excited State   7:      Singlet-A      8.2435 eV  150.40 nm  f=0.1321  <S**2>=0.000
      11 -> 14         0.69733

 Excited State   8:      Singlet-A      9.0877 eV  136.43 nm  f=0.2065  <S**2>=0.000
       8 -> 16        -0.10152
      12 -> 15         0.57242
      12 -> 16        -0.21166
      12 -> 17         0.25750

 Excited State   9:      Singlet-A      9.1338 eV  135.74 nm  f=0.0069  <S**2>=0.000
      11 -> 15        -0.28950
      13 -> 18         0.60923
      13 -> 19        -0.10653

 Excited State  10:      Singlet-A      9.3571 eV  132.50 nm  f=0.0058  <S**2>=0.000
      11 -> 16         0.35737
      13 -> 19         0.58463

 Excited State  11:      Singlet-A      9.5372 eV  130.00 nm  f=0.0211  <S**2>=0.000
       9 -> 15         0.13339
      10 -> 15         0.23080
      10 -> 16         0.10594
      10 -> 18         0.15399
      12 -> 15         0.33249
      12 -> 16         0.40040
      12 -> 17        -0.26647
      12 -> 18         0.13362

 Excited State  12:      Singlet-A      9.9204 eV  124.98 nm  f=0.0014  <S**2>=0.000
       7 -> 15        -0.13706
       9 -> 14        -0.10381
      11 -> 15         0.56890
      11 -> 16         0.22501
      13 -> 15        -0.14087
      13 -> 18         0.23595

 Excited State  13:      Singlet-A     10.0537 eV  123.32 nm  f=0.1251  <S**2>=0.000
       8 -> 16         0.13950
      10 -> 16        -0.31324
      10 -> 18        -0.10181
      12 -> 16         0.42057
      12 -> 17         0.34327
      12 -> 19         0.13059

 Excited State  14:      Singlet-A     10.1064 eV  122.68 nm  f=0.0055  <S**2>=0.000
       9 -> 14        -0.35403
      11 -> 15        -0.18371
      11 -> 16         0.41352
      13 -> 16         0.13717
      13 -> 18        -0.17882
      13 -> 19        -0.25161

 Excited State  15:      Singlet-A     10.2019 eV  121.53 nm  f=0.0002  <S**2>=0.000
       9 -> 14         0.57829
      11 -> 16         0.28700
      13 -> 19        -0.22715

 The electronic state is 1-A.
 Alpha  occ. eigenvalues --   -1.86974  -1.11991  -0.88146  -0.80989  -0.73459
 Alpha  occ. eigenvalues --   -0.67235  -0.64687  -0.56256  -0.54500  -0.47234
 Alpha  occ. eigenvalues --   -0.45542  -0.42849  -0.30616
 Alpha virt. eigenvalues --    0.07127   0.14503   0.16172   0.24061   0.27253
 Alpha virt. eigenvalues --    0.28430   0.34930   0.38752   0.52100   0.59130
 Alpha virt. eigenvalues --    0.64018

 Mulliken charges:
               1
     1  C   -0.132922
     2  C   -2.018951
     3  O    3.416681
     4  C   -2.016082
     5  C   -0.213425
     6  H    0.195672
     7  H    0.306527
     8  H    0.291654
     9  H    0.170846
 Sum of Mulliken charges =   0.00000

 Dipole moment (field-independent basis, Debye):
    X=             -3.6701    Y=             -9.8908    Z=              0.5309  Tot=             10.5631
 N-N= 1.044532153556D+02 E-N=-1.703133562308D+02  KE=-1.435809372881D+01
 Orbital energies and kinetic energies (alpha):
                                 1                 2
   1         O                -1.869739         -1.297065
   2         O                -1.119909         -0.958185
   3         O                -0.881465         -0.765267
   4         O                -0.809891         -0.549778
   5         O                -0.734587         -0.621195
   6         O                -0.672355         -0.547906
   7         O                -0.646865         -0.496043

 Normal termination of Gaussian 09 at Tue Dec 15 17:07:41 2015.
