 Gaussian 09, Revision D.01,
 Gaussian 09:  ES64L-G09RevD.01 24-Apr-2013

 ------------------------------------------------------------
 #P AM1(Input,print) CIS(Singlets,NStates=15) pop(full) force
 ------------------------------------------------------------

 -----------------
 AM1-Reparam Input
 -----------------
 Symbolic Z-matrix:
 Charge =  0 Multiplicity = 1

                         Standard orientation:
 ---------------------------------------------------------------------
 Center     Atomic      Atomic             Coordinates (Angstroms)
 Number     Number       Type             X           Y           Z
 ---------------------------------------------------------------------
      1          6           0       -1.115220    0.506248    0.010032
      2          6           0       -0.781567   -0.769679   -0.008981
      3          8           0        0.554626   -1.039254   -0.005218
      4          6           0        1.133608    0.197050    0.015542
      5          6           0        0.174769    1.171781   -0.010840
      6          1           0        0.351075    2.265793    0.005408
      7          1           0        2.262143    0.197772   -0.014644
      8          1           0       -1.455427   -1.702582    0.031262
      9          1           0       -2.064344    0.920648   -0.014796
 ---------------------------------------------------------------------

 SCF Done:  E(RAM1) =   1.85273357200     A.U. after   13 cycles

 Excitation energies and oscillator strengths:

 Excited State   1:      Singlet-A      5.5711 eV  222.55 nm  f=0.3320  <S**2>=0.000
      13 -> 14         0.69231
 This state for optimization and/or second-order correction.
 Total Energy, E(CIS) =   2.05746725094
 Copying the excited state density for this state as the 1-particle RhoCI density.

 Excited State   2:      Singlet-A      5.9261 eV  209.22 nm  f=0.0002  <S**2>=0.000
      10 -> 15         0.11737
      13 -> 15         0.68187

 Excited State   3:      Singlet-A      6.3571 eV  195.03 nm  f=0.0005  <S**2>=0.000
      10 -> 16        -0.11978
      13 -> 16         0.67110
      13 -> 17        -0.11557
      13 -> 18        -0.10158

 Excited State   4:      Singlet-A      6.6366 eV  186.82 nm  f=0.0001  <S**2>=0.000
      12 -> 14         0.70125

 Excited State   5:      Singlet-A      7.8268 eV  158.41 nm  f=0.0132  <S**2>=0.000
      11 -> 14         0.52003
      13 -> 17         0.43055
      13 -> 18        -0.12755

 Excited State   6:      Singlet-A      7.9526 eV  155.90 nm  f=0.0005  <S**2>=0.000
      11 -> 14         0.44509
      13 -> 17        -0.37004
      13 -> 18         0.32834
      13 -> 19         0.10725
      13 -> 21         0.15957

 Excited State   7:      Singlet-A      8.1507 eV  152.11 nm  f=0.0055  <S**2>=0.000
      10 -> 16        -0.11175
      11 -> 14        -0.15830
      13 -> 16         0.13136
      13 -> 17         0.37977
      13 -> 18         0.49747
      13 -> 19         0.11245
      13 -> 21         0.18836

 Excited State   8:      Singlet-A      8.5743 eV  144.60 nm  f=0.1224  <S**2>=0.000
       8 -> 15         0.15211
       9 -> 15         0.12581
      10 -> 14         0.19712
      11 -> 17         0.11479
      12 -> 15         0.57019
      12 -> 16        -0.10492
      12 -> 18         0.13766

 Excited State   9:      Singlet-A      8.8170 eV  140.62 nm  f=0.0017  <S**2>=0.000
      13 -> 18        -0.17337
      13 -> 19         0.66780

 Excited State  10:      Singlet-A      8.8817 eV  139.59 nm  f=0.0253  <S**2>=0.000
       8 -> 16        -0.12690
      10 -> 14         0.54005
      12 -> 16         0.33393
      12 -> 17         0.11694
      12 -> 18        -0.14725

 Excited State  11:      Singlet-A      9.3376 eV  132.78 nm  f=0.0865  <S**2>=0.000
      10 -> 14        -0.31898
      11 -> 15         0.12997
      11 -> 16        -0.11310
      12 -> 15         0.21279
      12 -> 16         0.52115
      12 -> 17        -0.11437
      12 -> 18        -0.12047

 Excited State  12:      Singlet-A      9.4493 eV  131.21 nm  f=0.1567  <S**2>=0.000
       9 -> 16         0.10870
      10 -> 14        -0.10337
      11 -> 15         0.24045
      11 -> 16         0.27395
      11 -> 17        -0.25204
      12 -> 15         0.20007
      12 -> 16        -0.15840
      12 -> 17         0.22629
      12 -> 18        -0.25706
      13 -> 20        -0.11611

 Excited State  13:      Singlet-A      9.5192 eV  130.25 nm  f=0.0267  <S**2>=0.000
      10 -> 15        -0.28349
      13 -> 18        -0.23903
      13 -> 20        -0.36560
      13 -> 21         0.41215

 Excited State  14:      Singlet-A      9.6530 eV  128.44 nm  f=0.0432  <S**2>=0.000
       9 -> 15        -0.25414
      10 -> 14         0.15208
      11 -> 15         0.50511
      11 -> 19         0.17637
      12 -> 17        -0.23513
      12 -> 18         0.12288

 Excited State  15:      Singlet-A      9.7164 eV  127.60 nm  f=0.0014  <S**2>=0.000
      10 -> 15         0.59456
      13 -> 15        -0.11750
      13 -> 18        -0.10075
      13 -> 20        -0.19225
      13 -> 21         0.23438

 The electronic state is 1-A.
 Alpha  occ. eigenvalues --   -1.93645  -1.21365  -0.96492  -0.80715  -0.79208
 Alpha  occ. eigenvalues --   -0.68365  -0.66163  -0.50292  -0.48619  -0.41474
 Alpha  occ. eigenvalues --   -0.40934  -0.36756  -0.26420
 Alpha virt. eigenvalues --    0.14690   0.17589   0.18954   0.27658   0.29428
 Alpha virt. eigenvalues --    0.31375   0.33461   0.36107   0.36167   0.45524
 Alpha virt. eigenvalues --    0.49271

 Mulliken charges:
               1
     1  C   -0.094751
     2  C   -1.889003
     3  O    3.110144
     4  C   -1.897899
     5  C   -0.109895
     6  H    0.144406
     7  H    0.294757
     8  H    0.295603
     9  H    0.146637
 Sum of Mulliken charges =   0.00000

 Dipole moment (field-independent basis, Debye):
    X=              4.7763    Y=             -9.8988    Z=             -0.1001  Tot=             10.9913
 N-N= 1.039360409718D+02 E-N=-1.695263843813D+02  KE=-1.563127554176D+01
 Orbital energies and kinetic energies (alpha):
                                 1                 2
   1         O                -1.936446         -1.407789
   2         O                -1.213650         -1.091414
   3         O                -0.964922         -0.905054
   4         O                -0.807152         -0.611288
   5         O                -0.792077         -0.682145
   6         O                -0.683655         -0.573656
   7         O                -0.661628         -0.581580

 Normal termination of Gaussian 09 at Tue Dec 15 17:09:53 2015.
