 Gaussian 09, Revision D.01,
 Gaussian 09:  ES64L-G09RevD.01 24-Apr-2013

 ------------------------------------------------------------
 #P AM1(Input,print) CIS(Singlets,NStates=15) pop(full) force
 ------------------------------------------------------------

 -----------------
 AM1-Reparam Input
 -----------------
 Symbolic Z-matrix:
 Charge =  0 Multiplicity = 1

                         Standard orientation:
 ---------------------------------------------------------------------
 Center     Atomic      Atomic             Coordinates (Angstroms)
 Number     Number       Type             X           Y           Z
 ---------------------------------------------------------------------
      1          6           0       -0.539353    1.061019   -0.012649
      2          6           0       -1.170045   -0.182549    0.028961
      3          8           0       -0.201308   -1.090727   -0.017120
      4          6           0        1.014732   -0.522020   -0.001889
      5          6           0        0.911592    0.780923   -0.009582
      6          1           0        1.622497    1.557458    0.076031
      7          1           0        1.845513   -1.197540    0.044122
      8          1           0       -2.155868   -0.461706    0.015911
      9          1           0       -1.003236    2.003364   -0.028147
 ---------------------------------------------------------------------

 SCF Done:  E(RAM1) =  -2.81310742333     A.U. after   14 cycles

 Excitation energies and oscillator strengths:

 Excited State   1:      Singlet-A      5.7579 eV  215.33 nm  f=0.0028  <S**2>=0.000
      13 -> 14        -0.26960
      13 -> 15         0.53560
      13 -> 16         0.31587
      13 -> 19        -0.11506
      13 -> 22        -0.10408
 This state for optimization and/or second-order correction.
 Total Energy, E(CIS) =  -2.60150903513
 Copying the excited state density for this state as the 1-particle RhoCI density.

 Excited State   2:      Singlet-A      6.4313 eV  192.78 nm  f=0.0489  <S**2>=0.000
      13 -> 14        -0.19324
      13 -> 15         0.13435
      13 -> 16        -0.46423
      13 -> 17         0.46524

 Excited State   3:      Singlet-A      6.7689 eV  183.17 nm  f=0.2704  <S**2>=0.000
      13 -> 14         0.58336
      13 -> 15         0.33839

 Excited State   4:      Singlet-A      7.1782 eV  172.72 nm  f=0.0357  <S**2>=0.000
      13 -> 14         0.12801
      13 -> 15        -0.23224
      13 -> 16         0.38710
      13 -> 17         0.50859

 Excited State   5:      Singlet-A      8.2239 eV  150.76 nm  f=0.0033  <S**2>=0.000
      11 -> 16         0.10305
      13 -> 18         0.52998
      13 -> 19         0.40645
      13 -> 21         0.16507

 Excited State   6:      Singlet-A      8.5090 eV  145.71 nm  f=0.0255  <S**2>=0.000
      12 -> 14         0.68259

 Excited State   7:      Singlet-A      8.8221 eV  140.54 nm  f=0.1705  <S**2>=0.000
      10 -> 17         0.11528
      12 -> 15         0.52337
      12 -> 16         0.36267
      12 -> 19        -0.11564
      13 -> 19         0.10821

 Excited State   8:      Singlet-A      8.9142 eV  139.09 nm  f=0.0058  <S**2>=0.000
      11 -> 16        -0.10467
      12 -> 14        -0.10797
      12 -> 15        -0.12346
      13 -> 15         0.10191
      13 -> 16         0.10117
      13 -> 18        -0.37521
      13 -> 19         0.51552

 Excited State   9:      Singlet-A      9.4391 eV  131.35 nm  f=0.0197  <S**2>=0.000
      11 -> 14         0.25787
      12 -> 16        -0.10682
      13 -> 20         0.60228

 Excited State  10:      Singlet-A      9.6194 eV  128.89 nm  f=0.0160  <S**2>=0.000
      10 -> 14        -0.46614
      11 -> 14         0.10479
      13 -> 19        -0.10658
      13 -> 21         0.47025

 Excited State  11:      Singlet-A      9.7012 eV  127.80 nm  f=0.0742  <S**2>=0.000
      10 -> 14         0.26887
      10 -> 15        -0.25983
      10 -> 16        -0.22327
      10 -> 18        -0.12856
      12 -> 15        -0.11297
      12 -> 16         0.18913
      12 -> 17        -0.19547
      12 -> 21        -0.13150
      13 -> 21         0.38562

 Excited State  12:      Singlet-A      9.8656 eV  125.67 nm  f=0.0392  <S**2>=0.000
      10 -> 14         0.39203
      10 -> 15         0.27288
      10 -> 16         0.15387
      11 -> 15        -0.18045
      11 -> 16        -0.12820
      12 -> 15         0.10029
      12 -> 16        -0.15532
      12 -> 17         0.21316
      13 -> 21         0.27568

 Excited State  13:      Singlet-A     10.0721 eV  123.10 nm  f=0.0772  <S**2>=0.000
      10 -> 15        -0.28278
      10 -> 16        -0.18766
      11 -> 14        -0.19208
      11 -> 15         0.18428
      11 -> 17         0.10069
      12 -> 15         0.11923
      12 -> 16        -0.16042
      12 -> 17         0.45019
      13 -> 20        -0.12992

 Excited State  14:      Singlet-A     10.2337 eV  121.15 nm  f=0.0217  <S**2>=0.000
      10 -> 15         0.15022
      10 -> 16         0.11092
      11 -> 14        -0.17934
      11 -> 15         0.31318
      11 -> 16        -0.25817
      11 -> 17         0.39251
      12 -> 16         0.14112
      13 -> 18         0.11906
      13 -> 20         0.14123
      13 -> 22         0.15021

 Excited State  15:      Singlet-A     10.3392 eV  119.92 nm  f=0.0234  <S**2>=0.000
       9 -> 15         0.12785
       9 -> 18        -0.11182
      11 -> 14        -0.17864
      11 -> 15        -0.12561
      12 -> 15        -0.23245
      12 -> 16         0.31158
      12 -> 17         0.31293
      13 -> 20         0.18095
      13 -> 22        -0.24578

 The electronic state is 1-A.
 Alpha  occ. eigenvalues --   -3.06362  -1.27581  -0.98247  -0.96704  -0.93716
 Alpha  occ. eigenvalues --   -0.85649  -0.77538  -0.62845  -0.62356  -0.50737
 Alpha  occ. eigenvalues --   -0.49987  -0.47101  -0.33134
 Alpha virt. eigenvalues --    0.12694   0.14009   0.15393   0.16913   0.21642
 Alpha virt. eigenvalues --    0.25871   0.26514   0.27029   0.31645   0.33606
 Alpha virt. eigenvalues --    0.42185

 Mulliken charges:
               1
     1  C   -0.256260
     2  C   -1.812117
     3  O    2.941185
     4  C   -1.760225
     5  C   -0.141378
     6  H    0.202172
     7  H    0.297828
     8  H    0.314686
     9  H    0.214109
 Sum of Mulliken charges =   0.00000

 Dipole moment (field-independent basis, Debye):
    X=             -1.1474    Y=             -9.1590    Z=             -0.2532  Tot=              9.2340
 N-N= 1.057393501118D+02 E-N=-1.714620174775D+02  KE=-2.180375647783D+01
 Orbital energies and kinetic energies (alpha):
                                 1                 2
   1         O                -3.063624         -2.374270
   2         O                -1.275812         -1.180539
   3         O                -0.982474         -0.922523
   4         O                -0.967040         -0.917513
   5         O                -0.937164         -0.857685
   6         O                -0.856489         -0.832410
   7         O                -0.775375         -0.752417

 Normal termination of Gaussian 09 at Fri Dec 11 13:41:26 2015.
