 Gaussian 09, Revision D.01,
 Gaussian 09:  ES64L-G09RevD.01 24-Apr-2013

 ------------------------------------------------------------
 #P AM1(Input,print) CIS(Singlets,NStates=15) pop(full) force
 ------------------------------------------------------------

 -----------------
 AM1-Reparam Input
 -----------------
 Symbolic Z-matrix:
 Charge =  0 Multiplicity = 1

                         Standard orientation:
 ---------------------------------------------------------------------
 Center     Atomic      Atomic             Coordinates (Angstroms)
 Number     Number       Type             X           Y           Z
 ---------------------------------------------------------------------
      1          6           0       -0.743755    0.928976   -0.008493
      2          6           0       -1.092569   -0.362042   -0.008402
      3          8           0       -0.006767   -1.137432    0.000742
      4          6           0        1.131052   -0.315910   -0.016647
      5          6           0        0.702879    0.929417    0.010949
      6          1           0        1.371381    1.803845    0.032348
      7          1           0        2.052946   -0.811230    0.032611
      8          1           0       -1.994924   -0.820840    0.078009
      9          1           0       -1.360904    1.845042   -0.013350
 ---------------------------------------------------------------------

 SCF Done:  E(RAM1) =   2.61487443783     A.U. after   13 cycles

 Excitation energies and oscillator strengths:

 Excited State   1:      Singlet-A      4.9301 eV  251.48 nm  f=0.3637  <S**2>=0.000
      13 -> 14         0.69953
 This state for optimization and/or second-order correction.
 Total Energy, E(CIS) =   2.79605207050
 Copying the excited state density for this state as the 1-particle RhoCI density.

 Excited State   2:      Singlet-A      6.0638 eV  204.47 nm  f=0.0007  <S**2>=0.000
      13 -> 15         0.66280
      13 -> 16        -0.10480
      13 -> 17         0.13627
      13 -> 19         0.13398

 Excited State   3:      Singlet-A      6.4068 eV  193.52 nm  f=0.0006  <S**2>=0.000
      12 -> 14         0.67818
      13 -> 16        -0.15403

 Excited State   4:      Singlet-A      6.5156 eV  190.29 nm  f=0.0036  <S**2>=0.000
      12 -> 14         0.16598
      13 -> 15         0.10903
      13 -> 16         0.65156
      13 -> 18        -0.10030

 Excited State   5:      Singlet-A      7.3432 eV  168.84 nm  f=0.0048  <S**2>=0.000
      11 -> 14         0.69670

 Excited State   6:      Singlet-A      7.5941 eV  163.26 nm  f=0.0000  <S**2>=0.000
      13 -> 15        -0.11788
      13 -> 17         0.67026
      13 -> 21        -0.11515

 Excited State   7:      Singlet-A      8.5358 eV  145.25 nm  f=0.1219  <S**2>=0.000
      10 -> 14         0.69400

 Excited State   8:      Singlet-A      9.1797 eV  135.06 nm  f=0.0068  <S**2>=0.000
      10 -> 15         0.23115
      12 -> 15        -0.13437
      13 -> 18         0.62307

 Excited State   9:      Singlet-A      9.2241 eV  134.41 nm  f=0.0303  <S**2>=0.000
       9 -> 15         0.10799
      11 -> 16        -0.19971
      11 -> 18         0.16850
      12 -> 15         0.46160
      12 -> 16        -0.13223
      12 -> 17         0.34890
      13 -> 18         0.14724

 Excited State  10:      Singlet-A      9.4854 eV  130.71 nm  f=0.0000  <S**2>=0.000
      10 -> 16        -0.22556
      13 -> 19         0.63419

 Excited State  11:      Singlet-A      9.7072 eV  127.72 nm  f=0.3258  <S**2>=0.000
      11 -> 15         0.17763
      11 -> 16         0.34793
      11 -> 18        -0.16346
      12 -> 15         0.34363
      12 -> 16        -0.28402
      12 -> 17        -0.27734
      12 -> 19         0.11387

 Excited State  12:      Singlet-A      9.8338 eV  126.08 nm  f=0.0028  <S**2>=0.000
      11 -> 15         0.39969
      11 -> 19         0.12233
      12 -> 15         0.19533
      12 -> 16         0.49330
      12 -> 18        -0.10101

 Excited State  13:      Singlet-A     10.3171 eV  120.17 nm  f=0.0053  <S**2>=0.000
       7 -> 15        -0.12500
       9 -> 14        -0.22433
      10 -> 15         0.56488
      10 -> 16         0.10991
      13 -> 15        -0.11468
      13 -> 18        -0.18083
      13 -> 19         0.10975

 Excited State  14:      Singlet-A     10.4360 eV  118.80 nm  f=0.0050  <S**2>=0.000
       9 -> 14         0.62333
      10 -> 15         0.18764
      10 -> 16        -0.12991

 Excited State  15:      Singlet-A     10.4689 eV  118.43 nm  f=0.0203  <S**2>=0.000
       8 -> 15        -0.16024
       9 -> 15        -0.20345
       9 -> 16        -0.12660
      10 -> 15        -0.17837
      11 -> 15         0.31706
      11 -> 17        -0.23090
      11 -> 19         0.17237
      12 -> 15        -0.15615
      12 -> 16        -0.23624
      12 -> 17         0.18374
      12 -> 18        -0.13069

 The electronic state is 1-A.
 Alpha  occ. eigenvalues --   -1.85412  -1.12857  -0.89930  -0.79759  -0.75620
 Alpha  occ. eigenvalues --   -0.67352  -0.63821  -0.57090  -0.54949  -0.45699
 Alpha  occ. eigenvalues --   -0.44774  -0.42230  -0.29536
 Alpha virt. eigenvalues --    0.08372   0.16786   0.18145   0.24548   0.27800
 Alpha virt. eigenvalues --    0.29794   0.35713   0.39695   0.47734   0.55116
 Alpha virt. eigenvalues --    0.59575

 Mulliken charges:
               1
     1  C   -0.238844
     2  C   -2.006758
     3  O    3.441943
     4  C   -1.962591
     5  C   -0.173273
     6  H    0.201945
     7  H    0.260782
     8  H    0.275230
     9  H    0.201567
 Sum of Mulliken charges =   0.00000

 Dipole moment (field-independent basis, Debye):
    X=             -0.1087    Y=            -11.1066    Z=              0.4449  Tot=             11.1160
 N-N= 1.042932978789D+02 E-N=-1.699857252982D+02  KE=-1.439053785832D+01
 Orbital energies and kinetic energies (alpha):
                                 1                 2
   1         O                -1.854121         -1.252395
   2         O                -1.128565         -0.957030
   3         O                -0.899301         -0.803828
   4         O                -0.797591         -0.537073
   5         O                -0.756195         -0.643303
   6         O                -0.673516         -0.526721
   7         O                -0.638209         -0.497858

 Normal termination of Gaussian 09 at Tue Dec 15 17:07:49 2015.
