 Gaussian 09, Revision D.01,
 Gaussian 09:  ES64L-G09RevD.01 24-Apr-2013

 ------------------------------------------------------------
 #P AM1(Input,print) CIS(Singlets,NStates=15) pop(full) force
 ------------------------------------------------------------

 -----------------
 AM1-Reparam Input
 -----------------
 Symbolic Z-matrix:
 Charge =  0 Multiplicity = 1

                         Standard orientation:
 ---------------------------------------------------------------------
 Center     Atomic      Atomic             Coordinates (Angstroms)
 Number     Number       Type             X           Y           Z
 ---------------------------------------------------------------------
      1          6           0        0.406120    1.091959    0.018226
      2          6           0        1.107284   -0.035841   -0.014882
      3          8           0        0.368895   -1.105081    0.022608
      4          6           0       -1.010431   -0.604028   -0.009463
      5          6           0       -0.913724    0.696158   -0.028902
      6          1           0       -1.827221    1.383583    0.078202
      7          1           0       -1.730922   -1.319018   -0.010736
      8          1           0        2.231231   -0.249486   -0.051530
      9          1           0        0.840253    2.136077    0.013329
 ---------------------------------------------------------------------

 SCF Done:  E(RAM1) =   2.89052004597     A.U. after   14 cycles

 Excitation energies and oscillator strengths:

 Excited State   1:      Singlet-A      5.3731 eV  230.75 nm  f=0.3031  <S**2>=0.000
      13 -> 14         0.68759
 This state for optimization and/or second-order correction.
 Total Energy, E(CIS) =   3.08797933277
 Copying the excited state density for this state as the 1-particle RhoCI density.

 Excited State   2:      Singlet-A      5.6427 eV  219.72 nm  f=0.0116  <S**2>=0.000
      10 -> 15         0.11583
      13 -> 15         0.67155
      13 -> 17        -0.12926

 Excited State   3:      Singlet-A      6.8175 eV  181.86 nm  f=0.0017  <S**2>=0.000
      12 -> 14         0.68242
      13 -> 16         0.11249

 Excited State   4:      Singlet-A      7.0120 eV  176.82 nm  f=0.0053  <S**2>=0.000
      12 -> 14        -0.12664
      13 -> 16         0.62648
      13 -> 17        -0.19159
      13 -> 18        -0.10091
      13 -> 20        -0.11594

 Excited State   5:      Singlet-A      7.4499 eV  166.42 nm  f=0.0116  <S**2>=0.000
      11 -> 14        -0.15105
      13 -> 15         0.13032
      13 -> 16         0.12161
      13 -> 17         0.58908
      13 -> 18        -0.11025
      13 -> 19         0.17839
      13 -> 20        -0.11312
      13 -> 21         0.16919

 Excited State   6:      Singlet-A      7.7171 eV  160.66 nm  f=0.0013  <S**2>=0.000
      10 -> 14        -0.10722
      11 -> 14         0.66758
      13 -> 17         0.14749

 Excited State   7:      Singlet-A      7.9706 eV  155.55 nm  f=0.0011  <S**2>=0.000
      10 -> 16        -0.10299
      13 -> 16         0.14867
      13 -> 17         0.17003
      13 -> 18         0.51353
      13 -> 21        -0.40442

 Excited State   8:      Singlet-A      8.5178 eV  145.56 nm  f=0.0011  <S**2>=0.000
      13 -> 16        -0.12872
      13 -> 17        -0.18844
      13 -> 18         0.13217
      13 -> 19         0.62901
      13 -> 20        -0.11288

 Excited State   9:      Singlet-A      8.7599 eV  141.54 nm  f=0.0384  <S**2>=0.000
       8 -> 15         0.12064
      10 -> 14         0.48089
      11 -> 15        -0.26774
      12 -> 15         0.36379

 Excited State  10:      Singlet-A      8.8421 eV  140.22 nm  f=0.0331  <S**2>=0.000
      10 -> 14        -0.35754
      11 -> 15        -0.13692
      11 -> 16         0.12751
      11 -> 17        -0.10461
      12 -> 15         0.44167
      12 -> 17        -0.20765
      12 -> 18         0.13685

 Excited State  11:      Singlet-A      8.8933 eV  139.41 nm  f=0.0102  <S**2>=0.000
      13 -> 18         0.42793
      13 -> 19        -0.16163
      13 -> 20        -0.20231
      13 -> 21         0.48119

 Excited State  12:      Singlet-A      9.3103 eV  133.17 nm  f=0.0801  <S**2>=0.000
       9 -> 15        -0.22974
      10 -> 14         0.23426
      10 -> 15        -0.25589
      11 -> 15         0.38695
      11 -> 16         0.14066
      11 -> 17        -0.23538
      12 -> 18         0.14709
      13 -> 20        -0.12538

 Excited State  13:      Singlet-A      9.3404 eV  132.74 nm  f=0.0351  <S**2>=0.000
       7 -> 15        -0.13551
      10 -> 15         0.52544
      11 -> 15         0.25666
      12 -> 15         0.11441
      13 -> 15        -0.11439
      13 -> 20         0.26306

 Excited State  14:      Singlet-A      9.4446 eV  131.28 nm  f=0.0624  <S**2>=0.000
      10 -> 15        -0.28351
      13 -> 19         0.11054
      13 -> 20         0.55087
      13 -> 21         0.24069

 Excited State  15:      Singlet-A      9.6689 eV  128.23 nm  f=0.2365  <S**2>=0.000
       9 -> 15        -0.16832
      10 -> 14        -0.18389
      11 -> 15         0.20634
      11 -> 16        -0.14016
      11 -> 19        -0.21064
      12 -> 15         0.17924
      12 -> 16        -0.15294
      12 -> 17         0.30924
      12 -> 18        -0.27407
      12 -> 19        -0.19652

 The electronic state is 1-A.
 Alpha  occ. eigenvalues --   -1.72284  -1.13464  -0.92377  -0.78255  -0.75178
 Alpha  occ. eigenvalues --   -0.65684  -0.64275  -0.53288  -0.49293  -0.42772
 Alpha  occ. eigenvalues --   -0.41228  -0.38401  -0.27389
 Alpha virt. eigenvalues --    0.13498   0.15154   0.22631   0.24772   0.27750
 Alpha virt. eigenvalues --    0.28588   0.31176   0.32350   0.36039   0.45150
 Alpha virt. eigenvalues --    0.48661

 Mulliken charges:
               1
     1  C   -0.242781
     2  C   -1.947629
     3  O    3.205848
     4  C   -1.905785
     5  C   -0.046987
     6  H    0.167409
     7  H    0.275932
     8  H    0.310061
     9  H    0.183930
 Sum of Mulliken charges =   0.00000

 Dipole moment (field-independent basis, Debye):
    X=              4.2656    Y=            -10.2236    Z=              0.4308  Tot=             11.0861
 N-N= 1.042586819138D+02 E-N=-1.696694236433D+02  KE=-1.478913815482D+01
 Orbital energies and kinetic energies (alpha):
                                 1                 2
   1         O                -1.722840         -1.212364
   2         O                -1.134643         -0.996229
   3         O                -0.923772         -0.858192
   4         O                -0.782553         -0.578780
   5         O                -0.751781         -0.680347
   6         O                -0.656837         -0.555207
   7         O                -0.642747         -0.529594

 Normal termination of Gaussian 09 at Tue Dec 15 17:05:59 2015.
