 Gaussian 09, Revision D.01,
 Gaussian 09:  ES64L-G09RevD.01 24-Apr-2013

 ------------------------------------------------------------
 #P AM1(Input,print) CIS(Singlets,NStates=15) pop(full) force
 ------------------------------------------------------------

 -----------------
 AM1-Reparam Input
 -----------------
 Symbolic Z-matrix:
 Charge =  0 Multiplicity = 1

                         Standard orientation:
 ---------------------------------------------------------------------
 Center     Atomic      Atomic             Coordinates (Angstroms)
 Number     Number       Type             X           Y           Z
 ---------------------------------------------------------------------
      1          6           0        0.136899    1.145612    0.021080
      2          6           0       -1.020423    0.469537   -0.029252
      3          8           0       -0.771031   -0.829433    0.032619
      4          6           0        0.514860   -0.998840   -0.016891
      5          6           0        1.165948    0.247622   -0.024180
      6          1           0        2.287033    0.389486    0.061056
      7          1           0        0.891306   -1.977307   -0.014250
      8          1           0       -2.083258    0.774374   -0.043303
      9          1           0        0.289466    2.265327    0.031001
 ---------------------------------------------------------------------

 SCF Done:  E(RAM1) =   2.68175094744     A.U. after   14 cycles

 Excitation energies and oscillator strengths:

 Excited State   1:      Singlet-A      5.6978 eV  217.60 nm  f=0.3244  <S**2>=0.000
      13 -> 14         0.68998
 This state for optimization and/or second-order correction.
 Total Energy, E(CIS) =   2.89114174055
 Copying the excited state density for this state as the 1-particle RhoCI density.

 Excited State   2:      Singlet-A      6.4599 eV  191.93 nm  f=0.0040  <S**2>=0.000
      13 -> 15         0.54616
      13 -> 16         0.35661
      13 -> 17        -0.21843

 Excited State   3:      Singlet-A      6.6019 eV  187.80 nm  f=0.0007  <S**2>=0.000
      10 -> 15        -0.10289
      13 -> 15        -0.37053
      13 -> 16         0.54207
      13 -> 19         0.15409

 Excited State   4:      Singlet-A      7.0364 eV  176.20 nm  f=0.0010  <S**2>=0.000
       9 -> 14         0.15607
      12 -> 14         0.68257

 Excited State   5:      Singlet-A      7.8420 eV  158.10 nm  f=0.0092  <S**2>=0.000
      10 -> 14         0.27383
      11 -> 14         0.49553
      13 -> 16        -0.11481
      13 -> 17        -0.36361

 Excited State   6:      Singlet-A      8.0119 eV  154.75 nm  f=0.0006  <S**2>=0.000
      10 -> 14         0.18801
      10 -> 16        -0.11397
      11 -> 14         0.34529
      13 -> 16         0.11576
      13 -> 17         0.47381
      13 -> 18        -0.23408
      13 -> 21         0.14958

 Excited State   7:      Singlet-A      8.0876 eV  153.30 nm  f=0.0025  <S**2>=0.000
      13 -> 17         0.26088
      13 -> 18         0.54199
      13 -> 21        -0.31101

 Excited State   8:      Singlet-A      8.7680 eV  141.40 nm  f=0.0003  <S**2>=0.000
      13 -> 16        -0.10128
      13 -> 18        -0.11122
      13 -> 19         0.62909
      13 -> 20        -0.16387
      13 -> 21        -0.11624

 Excited State   9:      Singlet-A      8.7876 eV  141.09 nm  f=0.0190  <S**2>=0.000
       8 -> 15         0.10860
      10 -> 14         0.49438
      11 -> 14        -0.27744
      11 -> 17        -0.11328
      12 -> 15         0.23005
      12 -> 17         0.13892
      12 -> 18        -0.14572

 Excited State  10:      Singlet-A      9.0750 eV  136.62 nm  f=0.0822  <S**2>=0.000
       8 -> 16        -0.10915
      10 -> 14         0.28631
      10 -> 15        -0.12645
      10 -> 17         0.14435
      11 -> 14        -0.13477
      11 -> 15        -0.13718
      11 -> 17         0.23175
      12 -> 16         0.29985
      12 -> 18         0.24357

 Excited State  11:      Singlet-A      9.1858 eV  134.97 nm  f=0.0390  <S**2>=0.000
      11 -> 15         0.12595
      12 -> 15        -0.28549
      13 -> 18         0.30750
      13 -> 19         0.17420
      13 -> 21         0.45995

 Excited State  12:      Singlet-A      9.2070 eV  134.66 nm  f=0.1154  <S**2>=0.000
       9 -> 15        -0.11030
      10 -> 14        -0.14163
      11 -> 14         0.10474
      12 -> 15         0.53275
      12 -> 16        -0.11039
      13 -> 18         0.15805
      13 -> 21         0.27101

 Excited State  13:      Singlet-A      9.4663 eV  130.97 nm  f=0.0738  <S**2>=0.000
       9 -> 16        -0.11864
      11 -> 16         0.42078
      12 -> 15         0.11170
      12 -> 16         0.42803
      12 -> 17        -0.11827
      13 -> 20        -0.18938

 Excited State  14:      Singlet-A      9.5279 eV  130.13 nm  f=0.1056  <S**2>=0.000
      10 -> 16         0.20245
      12 -> 16         0.12986
      13 -> 19         0.11760
      13 -> 20         0.61128
      13 -> 21        -0.12924

 Excited State  15:      Singlet-A      9.7171 eV  127.59 nm  f=0.0129  <S**2>=0.000
      10 -> 15         0.38563
      10 -> 16         0.33519
      11 -> 15        -0.17411
      11 -> 16        -0.21405
      12 -> 16         0.17462
      13 -> 16         0.15205
      13 -> 21         0.16393

 The electronic state is 1-A.
 Alpha  occ. eigenvalues --   -1.79381  -1.14850  -0.93636  -0.80012  -0.74667
 Alpha  occ. eigenvalues --   -0.66195  -0.64950  -0.54362  -0.48295  -0.43291
 Alpha  occ. eigenvalues --   -0.42845  -0.40161  -0.29855
 Alpha virt. eigenvalues --    0.12561   0.16901   0.17640   0.23396   0.25471
 Alpha virt. eigenvalues --    0.27797   0.29002   0.31758   0.51116   0.59671
 Alpha virt. eigenvalues --    0.64130

 Mulliken charges:
               1
     1  C   -0.029422
     2  C   -2.005082
     3  O    3.331444
     4  C   -2.045941
     5  C   -0.065022
     6  H    0.127036
     7  H    0.283033
     8  H    0.280688
     9  H    0.123268
 Sum of Mulliken charges =   0.00000

 Dipole moment (field-independent basis, Debye):
    X=             -6.8732    Y=             -7.1785    Z=              0.8239  Tot=              9.9724
 N-N= 1.044652644619D+02 E-N=-1.699928906810D+02  KE=-1.492416163400D+01
 Orbital energies and kinetic energies (alpha):
                                 1                 2
   1         O                -1.793807         -1.314279
   2         O                -1.148500         -1.005478
   3         O                -0.936361         -0.839636
   4         O                -0.800119         -0.597975
   5         O                -0.746667         -0.678249
   6         O                -0.661951         -0.572434
   7         O                -0.649505         -0.537136

 Normal termination of Gaussian 09 at Tue Dec 15 17:05:26 2015.
