 Gaussian 09, Revision D.01,
 Gaussian 09:  ES64L-G09RevD.01 24-Apr-2013

 ------------------------------------------------------------
 #P AM1(Input,print) CIS(Singlets,NStates=15) pop(full) force
 ------------------------------------------------------------

 -----------------
 AM1-Reparam Input
 -----------------
 Symbolic Z-matrix:
 Charge =  0 Multiplicity = 1

                         Standard orientation:
 ---------------------------------------------------------------------
 Center     Atomic      Atomic             Coordinates (Angstroms)
 Number     Number       Type             X           Y           Z
 ---------------------------------------------------------------------
      1          6           0       -0.649209    0.952741   -0.010527
      2          6           0       -1.125689   -0.286260   -0.018166
      3          8           0       -0.016815   -1.185070    0.020537
      4          6           0        1.071734   -0.378041   -0.018015
      5          6           0        0.715134    0.952553    0.003449
      6          1           0        1.405952    1.806359    0.024339
      7          1           0        1.996069   -0.867944    0.000200
      8          1           0       -2.049384   -0.749091    0.004314
      9          1           0       -1.289940    1.845278    0.066410
 ---------------------------------------------------------------------

 SCF Done:  E(RAM1) =  0.234074534660E-01 A.U. after   14 cycles

 Excitation energies and oscillator strengths:

 Excited State   1:      Singlet-A      4.2796 eV  289.71 nm  f=0.1097  <S**2>=0.000
      12 -> 15         0.15782
      13 -> 14         0.67930
 This state for optimization and/or second-order correction.
 Total Energy, E(CIS) =  0.180679892960
 Copying the excited state density for this state as the 1-particle RhoCI density.

 Excited State   2:      Singlet-A      4.8792 eV  254.11 nm  f=0.0004  <S**2>=0.000
      13 -> 16         0.68592

 Excited State   3:      Singlet-A      5.0952 eV  243.33 nm  f=0.0124  <S**2>=0.000
      12 -> 14        -0.39563
      13 -> 15         0.57431

 Excited State   4:      Singlet-A      5.7874 eV  214.23 nm  f=0.0014  <S**2>=0.000
      12 -> 17         0.14587
      13 -> 17         0.54535
      13 -> 18        -0.14619
      13 -> 20         0.17590
      13 -> 22         0.24992
      13 -> 23         0.15044

 Excited State   5:      Singlet-A      6.1444 eV  201.78 nm  f=0.0062  <S**2>=0.000
      12 -> 16        -0.19377
      12 -> 18        -0.13155
      12 -> 21         0.10440
      12 -> 22         0.11057
      12 -> 23        -0.10025
      13 -> 17         0.16888
      13 -> 18         0.37830
      13 -> 19         0.26725
      13 -> 20        -0.13085
      13 -> 21        -0.14651
      13 -> 22        -0.21002
      13 -> 23         0.18661

 Excited State   6:      Singlet-A      6.1659 eV  201.08 nm  f=0.0178  <S**2>=0.000
       7 -> 16        -0.18763
      12 -> 14         0.12293
      12 -> 16         0.59737
      13 -> 18         0.15353
      13 -> 23         0.10023

 Excited State   7:      Singlet-A      6.3140 eV  196.37 nm  f=0.3382  <S**2>=0.000
      10 -> 16        -0.12390
      12 -> 14         0.52306
      12 -> 16        -0.17340
      13 -> 15         0.36248

 Excited State   8:      Singlet-A      6.5715 eV  188.67 nm  f=0.0035  <S**2>=0.000
      13 -> 18        -0.35095
      13 -> 19         0.54072
      13 -> 23        -0.14958

 Excited State   9:      Singlet-A      6.7836 eV  182.77 nm  f=0.1094  <S**2>=0.000
      12 -> 15         0.67485
      13 -> 14        -0.14169

 Excited State  10:      Singlet-A      7.0442 eV  176.01 nm  f=0.0051  <S**2>=0.000
       9 -> 14         0.22115
      10 -> 14        -0.36339
      11 -> 14         0.45578
      11 -> 15         0.25929

 Excited State  11:      Singlet-A      7.2939 eV  169.98 nm  f=0.0011  <S**2>=0.000
       9 -> 14        -0.11970
      10 -> 14         0.10728
      11 -> 14         0.17859
      12 -> 17         0.33792
      12 -> 18        -0.15279
      12 -> 19         0.27733
      13 -> 17        -0.12789
      13 -> 18         0.24798
      13 -> 19         0.20751
      13 -> 20         0.12178
      13 -> 22         0.21553

 Excited State  12:      Singlet-A      7.3796 eV  168.01 nm  f=0.0039  <S**2>=0.000
       9 -> 14        -0.30520
       9 -> 15         0.19511
      10 -> 14         0.28296
      11 -> 14         0.35693
      11 -> 15        -0.11938
      12 -> 18         0.18263
      12 -> 19        -0.11035
      13 -> 17         0.11594
      13 -> 22        -0.19492

 Excited State  13:      Singlet-A      7.4485 eV  166.45 nm  f=0.0004  <S**2>=0.000
       9 -> 15        -0.11481
      11 -> 14        -0.17435
      12 -> 18         0.33704
      12 -> 19         0.13970
      12 -> 22        -0.16898
      12 -> 23         0.11789
      13 -> 17         0.19650
      13 -> 18         0.21507
      13 -> 21         0.24358
      13 -> 24        -0.28078

 Excited State  14:      Singlet-A      7.6286 eV  162.53 nm  f=0.0053  <S**2>=0.000
      12 -> 17        -0.24075
      12 -> 18         0.10704
      12 -> 21         0.12754
      12 -> 23         0.11681
      13 -> 19         0.14880
      13 -> 20        -0.23138
      13 -> 21         0.11174
      13 -> 22         0.45937
      13 -> 23         0.20048

 Excited State  15:      Singlet-A      7.7266 eV  160.46 nm  f=0.0070  <S**2>=0.000
       9 -> 14        -0.10004
      10 -> 14        -0.23322
      12 -> 17         0.19668
      12 -> 18         0.15157
      12 -> 19        -0.19163
      12 -> 21         0.12610
      12 -> 22         0.15911
      13 -> 17        -0.19096
      13 -> 19         0.13271
      13 -> 20         0.20625
      13 -> 21         0.17210
      13 -> 23         0.26409
      13 -> 24         0.19412

 The electronic state is 1-A.
 Alpha  occ. eigenvalues --   -1.56036  -1.25079  -1.09702  -0.83258  -0.81008
 Alpha  occ. eigenvalues --   -0.68586  -0.59482  -0.56269  -0.51462  -0.50748
 Alpha  occ. eigenvalues --   -0.49765  -0.40784  -0.34329
 Alpha virt. eigenvalues --    0.02424   0.06864   0.09775   0.14226   0.14831
 Alpha virt. eigenvalues --    0.15305   0.17888   0.18432   0.18981   0.20833
 Alpha virt. eigenvalues --    0.21671

 Mulliken charges:
               1
     1  C   -0.173477
     2  C   -0.110057
     3  O   -0.096607
     4  C   -0.083531
     5  C   -0.213197
     6  H    0.163485
     7  H    0.177938
     8  H    0.182837
     9  H    0.152610
 Sum of Mulliken charges =   0.00000

 Dipole moment (field-independent basis, Debye):
    X=              0.0510    Y=              0.5649    Z=              0.1040  Tot=              0.5767
 N-N= 1.036216030522D+02 E-N=-1.712939273549D+02  KE=-1.657227195124D+01
 Orbital energies and kinetic energies (alpha):
                                 1                 2
   1         O                -1.560364         -1.318765
   2         O                -1.250795         -1.054110
   3         O                -1.097025         -0.960485
   4         O                -0.832582         -0.735252
   5         O                -0.810084         -0.695319
   6         O                -0.685857         -0.605138
   7         O                -0.594818         -0.483553

 Normal termination of Gaussian 09 at Tue Dec 15 16:23:57 2015.
