 Gaussian 09, Revision D.01,
 Gaussian 09:  ES64L-G09RevD.01 24-Apr-2013

 ------------------------------------------------------------
 #P AM1(Input,print) CIS(Singlets,NStates=15) pop(full) force
 ------------------------------------------------------------

 -----------------
 AM1-Reparam Input
 -----------------
 Symbolic Z-matrix:
 Charge =  0 Multiplicity = 1

                         Standard orientation:
 ---------------------------------------------------------------------
 Center     Atomic      Atomic             Coordinates (Angstroms)
 Number     Number       Type             X           Y           Z
 ---------------------------------------------------------------------
      1          6           0        0.666294    1.023339    0.017408
      2          6           0        1.136860   -0.249874   -0.014082
      3          8           0        0.089896   -1.178830   -0.004540
      4          6           0       -1.096074   -0.398709    0.011096
      5          6           0       -0.792337    0.873631   -0.015119
      6          1           0       -1.484298    1.786474   -0.001429
      7          1           0       -2.044421   -0.954456    0.016592
      8          1           0        2.101279   -0.747939    0.035972
      9          1           0        1.219823    1.856243   -0.010626
 ---------------------------------------------------------------------

 SCF Done:  E(RAM1) =   2.63290834443     A.U. after   13 cycles

 Excitation energies and oscillator strengths:

 Excited State   1:      Singlet-A      4.8535 eV  255.45 nm  f=0.3707  <S**2>=0.000
      13 -> 14         0.69991
 This state for optimization and/or second-order correction.
 Total Energy, E(CIS) =   2.81127207664
 Copying the excited state density for this state as the 1-particle RhoCI density.

 Excited State   2:      Singlet-A      5.8270 eV  212.78 nm  f=0.0001  <S**2>=0.000
      13 -> 15         0.66833
      13 -> 17        -0.14389
      13 -> 19         0.12941

 Excited State   3:      Singlet-A      6.2846 eV  197.28 nm  f=0.0021  <S**2>=0.000
      12 -> 14         0.45652
      13 -> 16         0.51456
      13 -> 18        -0.10723

 Excited State   4:      Singlet-A      6.3338 eV  195.75 nm  f=0.0003  <S**2>=0.000
      12 -> 14         0.53012
      13 -> 16        -0.44478

 Excited State   5:      Singlet-A      7.4423 eV  166.59 nm  f=0.0013  <S**2>=0.000
      10 -> 14         0.18382
      11 -> 14        -0.33077
      13 -> 15         0.12531
      13 -> 17         0.55371
      13 -> 18        -0.11101

 Excited State   6:      Singlet-A      7.5054 eV  165.19 nm  f=0.0041  <S**2>=0.000
      10 -> 14        -0.27716
      11 -> 14         0.51793
      13 -> 17         0.35054
      13 -> 18        -0.11449

 Excited State   7:      Singlet-A      8.4866 eV  146.09 nm  f=0.1090  <S**2>=0.000
      10 -> 14         0.60789
      11 -> 14         0.32804

 Excited State   8:      Singlet-A      8.9337 eV  138.78 nm  f=0.0070  <S**2>=0.000
      10 -> 15        -0.18656
      11 -> 15        -0.10266
      13 -> 17         0.15958
      13 -> 18         0.63280

 Excited State   9:      Singlet-A      9.0847 eV  136.48 nm  f=0.1377  <S**2>=0.000
       8 -> 16         0.11973
      11 -> 16         0.10391
      11 -> 18        -0.12601
      12 -> 15         0.55283
      12 -> 16        -0.10120
      12 -> 17        -0.29779

 Excited State  10:      Singlet-A      9.1921 eV  134.88 nm  f=0.0033  <S**2>=0.000
      10 -> 15         0.12352
      10 -> 16         0.14286
      13 -> 19         0.65315

 Excited State  11:      Singlet-A      9.6072 eV  129.05 nm  f=0.1844  <S**2>=0.000
      10 -> 16        -0.11724
      11 -> 16         0.21654
      11 -> 18        -0.14500
      12 -> 15        -0.17817
      12 -> 16         0.47495
      12 -> 17        -0.33213

 Excited State  12:      Singlet-A      9.8592 eV  125.76 nm  f=0.1226  <S**2>=0.000
       8 -> 15         0.11587
      10 -> 15         0.13951
      11 -> 15        -0.34614
      11 -> 16        -0.17429
      12 -> 15         0.23084
      12 -> 16         0.37299
      12 -> 17         0.24620

 Excited State  13:      Singlet-A     10.0723 eV  123.09 nm  f=0.0011  <S**2>=0.000
       7 -> 15         0.10170
      10 -> 15         0.52495
      10 -> 16         0.13501
      11 -> 15         0.28212
      13 -> 15         0.11274
      13 -> 18         0.16287
      13 -> 19        -0.17723

 Excited State  14:      Singlet-A     10.3048 eV  120.32 nm  f=0.0318  <S**2>=0.000
       8 -> 15         0.16595
       9 -> 15        -0.19672
       9 -> 16        -0.15044
      10 -> 15        -0.25563
      10 -> 19        -0.10545
      11 -> 15         0.34499
      11 -> 16         0.11930
      11 -> 19         0.18152
      12 -> 15         0.11112
      12 -> 16         0.20687
      12 -> 17         0.20883

 Excited State  15:      Singlet-A     10.3676 eV  119.59 nm  f=0.0052  <S**2>=0.000
       7 -> 15         0.10356
       7 -> 16        -0.10910
       9 -> 14         0.13166
      10 -> 16         0.53837
      11 -> 15        -0.14689
      11 -> 16         0.24949
      13 -> 18        -0.13061
      13 -> 19        -0.10675

 The electronic state is 1-A.
 Alpha  occ. eigenvalues --   -1.83144  -1.11358  -0.86853  -0.78609  -0.74479
 Alpha  occ. eigenvalues --   -0.66387  -0.61739  -0.54818  -0.54469  -0.44356
 Alpha  occ. eigenvalues --   -0.44275  -0.40711  -0.27915
 Alpha virt. eigenvalues --    0.09463   0.16904   0.18237   0.25479   0.29006
 Alpha virt. eigenvalues --    0.30465   0.37277   0.41221   0.45314   0.53341
 Alpha virt. eigenvalues --    0.56693

 Mulliken charges:
               1
     1  C   -0.213217
     2  C   -1.968267
     3  O    3.443330
     4  C   -1.968267
     5  C   -0.186184
     6  H    0.195479
     7  H    0.270451
     8  H    0.250452
     9  H    0.176225
 Sum of Mulliken charges =   0.00000

 Dipole moment (field-independent basis, Debye):
    X=              0.5819    Y=            -12.4446    Z=              0.0313  Tot=             12.4582
 N-N= 1.033107478683D+02 E-N=-1.684703684388D+02  KE=-1.430307922029D+01
 Orbital energies and kinetic energies (alpha):
                                 1                 2
   1         O                -1.831440         -1.203805
   2         O                -1.113579         -0.964484
   3         O                -0.868529         -0.804054
   4         O                -0.786093         -0.530236
   5         O                -0.744788         -0.610851
   6         O                -0.663874         -0.546977
   7         O                -0.617386         -0.491762

 Normal termination of Gaussian 09 at Tue Dec 15 17:07:34 2015.
