 Gaussian 09, Revision D.01,
 Gaussian 09:  ES64L-G09RevD.01 24-Apr-2013

 ------------------------------------------------------------
 #P AM1(Input,print) CIS(Singlets,NStates=15) pop(full) force
 ------------------------------------------------------------

 -----------------
 AM1-Reparam Input
 -----------------
 Symbolic Z-matrix:
 Charge =  0 Multiplicity = 1

                         Standard orientation:
 ---------------------------------------------------------------------
 Center     Atomic      Atomic             Coordinates (Angstroms)
 Number     Number       Type             X           Y           Z
 ---------------------------------------------------------------------
      1          6           0        0.959612    0.811778    0.014553
      2          6           0        0.988970   -0.599361   -0.004518
      3          8           0       -0.284980   -1.155866    0.008552
      4          6           0       -1.119805   -0.053989   -0.024754
      5          6           0       -0.525720    1.073199    0.000333
      6          1           0       -0.919785    2.022008   -0.017033
      7          1           0       -2.191863   -0.412602    0.069901
      8          1           0        1.864087   -1.278295   -0.035103
      9          1           0        1.709057    1.526061    0.000133
 ---------------------------------------------------------------------

 SCF Done:  E(RAM1) =  0.317491479075E-01 A.U. after   14 cycles

 Excitation energies and oscillator strengths:

 Excited State   1:      Singlet-A      4.5245 eV  274.03 nm  f=0.0765  <S**2>=0.000
      12 -> 15         0.21311
      13 -> 14         0.66435
 This state for optimization and/or second-order correction.
 Total Energy, E(CIS) =  0.198021587879
 Copying the excited state density for this state as the 1-particle RhoCI density.

 Excited State   2:      Singlet-A      5.1731 eV  239.67 nm  f=0.0044  <S**2>=0.000
      12 -> 14        -0.38819
      13 -> 15         0.52714
      13 -> 16        -0.23832

 Excited State   3:      Singlet-A      5.2613 eV  235.65 nm  f=0.0011  <S**2>=0.000
      12 -> 14        -0.17483
      13 -> 15         0.18794
      13 -> 16         0.61717
      13 -> 18        -0.11085
      13 -> 22         0.10272

 Excited State   4:      Singlet-A      5.6496 eV  219.46 nm  f=0.0007  <S**2>=0.000
      12 -> 18         0.11494
      12 -> 21         0.10862
      13 -> 16         0.16157
      13 -> 17        -0.20644
      13 -> 18         0.53003
      13 -> 21         0.26646
      13 -> 23        -0.11968
      13 -> 24        -0.10336

 Excited State   5:      Singlet-A      5.9393 eV  208.75 nm  f=0.0054  <S**2>=0.000
       7 -> 16        -0.18302
      12 -> 15        -0.10557
      12 -> 16         0.61503
      12 -> 18         0.11825
      12 -> 19         0.11293
      12 -> 22         0.12558

 Excited State   6:      Singlet-A      6.0897 eV  203.60 nm  f=0.2099  <S**2>=0.000
      12 -> 14         0.48720
      12 -> 15         0.24969
      12 -> 16         0.13011
      13 -> 15         0.36542

 Excited State   7:      Singlet-A      6.1854 eV  200.45 nm  f=0.0057  <S**2>=0.000
      11 -> 14        -0.13168
      12 -> 19         0.11138
      13 -> 17         0.58013
      13 -> 18         0.11903
      13 -> 19         0.22818
      13 -> 20        -0.14956
      13 -> 23        -0.13613

 Excited State   8:      Singlet-A      6.4196 eV  193.14 nm  f=0.2475  <S**2>=0.000
      12 -> 14        -0.17708
      12 -> 15         0.59853
      13 -> 14        -0.19585
      13 -> 15        -0.15957

 Excited State   9:      Singlet-A      6.5003 eV  190.74 nm  f=0.0010  <S**2>=0.000
      12 -> 18         0.24608
      12 -> 19        -0.21673
      12 -> 21        -0.22653
      12 -> 23        -0.15307
      12 -> 24        -0.15266
      13 -> 18        -0.18107
      13 -> 19         0.30385
      13 -> 21         0.31378
      13 -> 23         0.13016

 Excited State  10:      Singlet-A      6.7648 eV  183.28 nm  f=0.0048  <S**2>=0.000
      11 -> 14         0.11877
      12 -> 17         0.59161
      12 -> 18        -0.13625
      12 -> 20        -0.14756
      13 -> 17        -0.12336
      13 -> 19         0.19420

 Excited State  11:      Singlet-A      6.8557 eV  180.85 nm  f=0.0012  <S**2>=0.000
      10 -> 14         0.36380
      10 -> 15         0.10172
      11 -> 14         0.49186
      11 -> 15         0.27008
      13 -> 17         0.11538

 Excited State  12:      Singlet-A      7.2467 eV  171.09 nm  f=0.0095  <S**2>=0.000
      11 -> 14         0.12880
      11 -> 15        -0.12361
      12 -> 17        -0.11472
      12 -> 18        -0.11856
      12 -> 19         0.12012
      12 -> 20         0.16416
      12 -> 21         0.12034
      12 -> 23         0.10938
      13 -> 16        -0.10635
      13 -> 19         0.39246
      13 -> 20         0.39121
      13 -> 22         0.11413
      13 -> 23         0.10998

 Excited State  13:      Singlet-A      7.4151 eV  167.20 nm  f=0.0013  <S**2>=0.000
      11 -> 15        -0.15136
      12 -> 18        -0.29797
      12 -> 19         0.13750
      12 -> 21         0.13346
      13 -> 18        -0.19054
      13 -> 21         0.32934
      13 -> 22        -0.31207
      13 -> 24        -0.16505

 Excited State  14:      Singlet-A      7.4372 eV  166.71 nm  f=0.0028  <S**2>=0.000
      10 -> 14         0.30707
      11 -> 14        -0.38853
      11 -> 15         0.42704
      13 -> 19         0.12611

 Excited State  15:      Singlet-A      7.5858 eV  163.44 nm  f=0.0007  <S**2>=0.000
       8 -> 14         0.10620
       9 -> 14         0.34360
      10 -> 14         0.35617
      10 -> 15         0.18652
      11 -> 14        -0.15069
      11 -> 15        -0.30780
      13 -> 21        -0.15048
      13 -> 23        -0.11078

 The electronic state is 1-A.
 Alpha  occ. eigenvalues --   -1.54163  -1.23452  -1.09215  -0.82480  -0.80511
 Alpha  occ. eigenvalues --   -0.67768  -0.59197  -0.56363  -0.51799  -0.50796
 Alpha  occ. eigenvalues --   -0.48028  -0.39391  -0.35034
 Alpha virt. eigenvalues --    0.03068   0.06272   0.09948   0.12525   0.14131
 Alpha virt. eigenvalues --    0.15797   0.17545   0.18332   0.19188   0.20783
 Alpha virt. eigenvalues --    0.22107

 Mulliken charges:
               1
     1  C   -0.209775
     2  C   -0.098677
     3  O   -0.101142
     4  C   -0.083380
     5  C   -0.196287
     6  H    0.152424
     7  H    0.181631
     8  H    0.187928
     9  H    0.167277
 Sum of Mulliken charges =   0.00000

 Dipole moment (field-independent basis, Debye):
    X=              0.1619    Y=              0.4222    Z=              0.0115  Tot=              0.4523
 N-N= 1.029237210726D+02 E-N=-1.701284593338D+02  KE=-1.649153189814D+01
 Orbital energies and kinetic energies (alpha):
                                 1                 2
   1         O                -1.541629         -1.297698
   2         O                -1.234524         -1.047526
   3         O                -1.092149         -0.956552
   4         O                -0.824799         -0.711257
   5         O                -0.805115         -0.719766
   6         O                -0.677683         -0.600039
   7         O                -0.591971         -0.481611

 Normal termination of Gaussian 09 at Tue Dec 15 16:27:22 2015.
