 Gaussian 09, Revision D.01,
 Gaussian 09:  ES64L-G09RevD.01 24-Apr-2013

 ------------------------------------------------------------
 #P AM1(Input,print) CIS(Singlets,NStates=15) pop(full) force
 ------------------------------------------------------------

 -----------------
 AM1-Reparam Input
 -----------------
 Symbolic Z-matrix:
 Charge =  0 Multiplicity = 1

                         Standard orientation:
 ---------------------------------------------------------------------
 Center     Atomic      Atomic             Coordinates (Angstroms)
 Number     Number       Type             X           Y           Z
 ---------------------------------------------------------------------
      1          6           0        0.284427    1.155142   -0.014745
      2          6           0       -1.009958    0.597668   -0.004234
      3          8           0       -0.898506   -0.785851    0.003526
      4          6           0        0.448782   -1.041636    0.009463
      5          6           0        1.206793    0.132270   -0.010155
      6          1           0        2.319277    0.109767    0.026051
      7          1           0        0.757952   -2.073515   -0.015654
      8          1           0       -1.915603    0.955824    0.004693
      9          1           0        0.446161    2.234072    0.074725
 ---------------------------------------------------------------------

 SCF Done:  E(RAM1) =   1.71546817478     A.U. after   13 cycles

 Excitation energies and oscillator strengths:

 Excited State   1:      Singlet-A      5.8073 eV  213.50 nm  f=0.3216  <S**2>=0.000
      13 -> 14         0.68737
 This state for optimization and/or second-order correction.
 Total Energy, E(CIS) =   1.92888090214
 Copying the excited state density for this state as the 1-particle RhoCI density.

 Excited State   2:      Singlet-A      7.4222 eV  167.05 nm  f=0.0054  <S**2>=0.000
      12 -> 14         0.59940
      13 -> 15        -0.33704

 Excited State   3:      Singlet-A      7.4908 eV  165.51 nm  f=0.0037  <S**2>=0.000
      12 -> 14         0.35748
      13 -> 15         0.56203
      13 -> 16         0.10144
      13 -> 17        -0.12359

 Excited State   4:      Singlet-A      7.8911 eV  157.12 nm  f=0.0067  <S**2>=0.000
      11 -> 14         0.57516
      13 -> 15        -0.12879
      13 -> 16         0.35701

 Excited State   5:      Singlet-A      7.9648 eV  155.67 nm  f=0.0004  <S**2>=0.000
      11 -> 14        -0.38948
      13 -> 16         0.55335
      13 -> 19         0.13072

 Excited State   6:      Singlet-A      9.4000 eV  131.90 nm  f=0.0072  <S**2>=0.000
      10 -> 14        -0.12523
      10 -> 15        -0.13404
      13 -> 15        -0.10848
      13 -> 17        -0.41606
      13 -> 18         0.44002
      13 -> 19        -0.13947
      13 -> 22        -0.23649

 Excited State   7:      Singlet-A      9.4426 eV  131.30 nm  f=0.0984  <S**2>=0.000
      10 -> 14         0.67640

 Excited State   8:      Singlet-A      9.6246 eV  128.82 nm  f=0.0038  <S**2>=0.000
      10 -> 16        -0.13802
      13 -> 17         0.50103
      13 -> 18         0.42875
      13 -> 22        -0.16777

 Excited State   9:      Singlet-A      9.9842 eV  124.18 nm  f=0.0902  <S**2>=0.000
       8 -> 16        -0.10050
       9 -> 15         0.15153
      11 -> 15        -0.21503
      11 -> 16        -0.27581
      11 -> 17         0.20782
      11 -> 18         0.13507
      12 -> 15         0.37767
      12 -> 17        -0.17450
      12 -> 18         0.21295
      13 -> 14        -0.12634

 Excited State  10:      Singlet-A     10.1792 eV  121.80 nm  f=0.0008  <S**2>=0.000
      10 -> 15         0.10061
      10 -> 16         0.14259
      13 -> 17        -0.11782
      13 -> 18         0.18625
      13 -> 19         0.61600
      13 -> 22         0.10921

 Excited State  11:      Singlet-A     10.6690 eV  116.21 nm  f=0.0086  <S**2>=0.000
      11 -> 15         0.48045
      11 -> 17        -0.14321
      11 -> 19        -0.13494
      12 -> 15         0.22149
      12 -> 16         0.36618
      12 -> 17        -0.10202

 Excited State  12:      Singlet-A     10.7083 eV  115.78 nm  f=0.2610  <S**2>=0.000
       9 -> 15        -0.11715
      11 -> 15        -0.30885
      12 -> 15        -0.26476
      12 -> 16         0.47740
      12 -> 19         0.18546

 Excited State  13:      Singlet-A     10.9213 eV  113.53 nm  f=0.0507  <S**2>=0.000
      10 -> 16         0.10486
      13 -> 18         0.21313
      13 -> 19        -0.14173
      13 -> 20        -0.43449
      13 -> 22         0.44622

 Excited State  14:      Singlet-A     10.9894 eV  112.82 nm  f=0.0286  <S**2>=0.000
       8 -> 16        -0.11837
       9 -> 15        -0.16561
      11 -> 15         0.16355
      11 -> 16        -0.21309
      11 -> 19        -0.15502
      12 -> 15        -0.24925
      12 -> 16        -0.23523
      12 -> 17        -0.16966
      12 -> 18         0.29943
      12 -> 20         0.19155
      13 -> 21        -0.15990

 Excited State  15:      Singlet-A     11.0332 eV  112.37 nm  f=0.0506  <S**2>=0.000
      10 -> 15         0.24979
      13 -> 18         0.15486
      13 -> 19        -0.13284
      13 -> 20         0.45806
      13 -> 22         0.37876

 The electronic state is 1-A.
 Alpha  occ. eigenvalues --   -1.89582  -1.17082  -0.91449  -0.81328  -0.78770
 Alpha  occ. eigenvalues --   -0.69945  -0.66612  -0.56289  -0.55370  -0.46012
 Alpha  occ. eigenvalues --   -0.43871  -0.42526  -0.31620
 Alpha virt. eigenvalues --    0.11595   0.19168   0.21526   0.27085   0.28759
 Alpha virt. eigenvalues --    0.30550   0.32492   0.33046   0.35923   0.41917
 Alpha virt. eigenvalues --    0.45186

 Mulliken charges:
               1
     1  C   -0.133335
     2  C   -2.035629
     3  O    3.298760
     4  C   -2.046732
     5  C   -0.142698
     6  H    0.205653
     7  H    0.334579
     8  H    0.314313
     9  H    0.205089
 Sum of Mulliken charges =   0.00000

 Dipole moment (field-independent basis, Debye):
    X=             -7.7206    Y=             -7.5627    Z=              0.0844  Tot=             10.8078
 N-N= 1.034051661926D+02 E-N=-1.684935371745D+02  KE=-1.547675028143D+01
 Orbital energies and kinetic energies (alpha):
                                 1                 2
   1         O                -1.895818         -1.346981
   2         O                -1.170820         -1.056635
   3         O                -0.914494         -0.884005
   4         O                -0.813280         -0.581943
   5         O                -0.787697         -0.688721
   6         O                -0.699446         -0.596104
   7         O                -0.666122         -0.532744

 Normal termination of Gaussian 09 at Tue Dec 15 17:09:43 2015.
