 Gaussian 09, Revision D.01,
 Gaussian 09:  ES64L-G09RevD.01 24-Apr-2013

 ------------------------------------------------------------
 #P AM1(Input,print) CIS(Singlets,NStates=15) pop(full) force
 ------------------------------------------------------------

 -----------------
 AM1-Reparam Input
 -----------------
 Symbolic Z-matrix:
 Charge =  0 Multiplicity = 1

                         Standard orientation:
 ---------------------------------------------------------------------
 Center     Atomic      Atomic             Coordinates (Angstroms)
 Number     Number       Type             X           Y           Z
 ---------------------------------------------------------------------
      1          6           0       -0.539353    1.061019   -0.012649
      2          6           0       -1.170045   -0.182549    0.028961
      3          8           0       -0.201308   -1.090727   -0.017120
      4          6           0        1.014732   -0.522020   -0.001889
      5          6           0        0.911592    0.780923   -0.009582
      6          1           0        1.622497    1.557458    0.076031
      7          1           0        1.845513   -1.197540    0.044122
      8          1           0       -2.155868   -0.461706    0.015911
      9          1           0       -1.003236    2.003364   -0.028147
 ---------------------------------------------------------------------

 SCF Done:  E(RAM1) =  -6.69522343510     A.U. after   14 cycles

 Excitation energies and oscillator strengths:

 Excited State   1:      Singlet-A      6.0303 eV  205.60 nm  f=0.0046  <S**2>=0.000
      13 -> 14         0.12180
      13 -> 15         0.68761
 This state for optimization and/or second-order correction.
 Total Energy, E(CIS) =  -6.47361406716
 Copying the excited state density for this state as the 1-particle RhoCI density.

 Excited State   2:      Singlet-A      6.9130 eV  179.35 nm  f=0.2300  <S**2>=0.000
      11 -> 16         0.12064
      13 -> 14         0.66947
      13 -> 15        -0.11871

 Excited State   3:      Singlet-A      7.3835 eV  167.92 nm  f=0.1163  <S**2>=0.000
      11 -> 14        -0.20613
      13 -> 16         0.66277

 Excited State   4:      Singlet-A      7.8965 eV  157.01 nm  f=0.0009  <S**2>=0.000
      12 -> 14         0.66588
      13 -> 17         0.18743

 Excited State   5:      Singlet-A      8.2319 eV  150.61 nm  f=0.0015  <S**2>=0.000
      12 -> 14        -0.20307
      13 -> 17         0.61722
      13 -> 18         0.10259
      13 -> 19        -0.14482
      13 -> 20        -0.15808
      13 -> 23        -0.10951

 Excited State   6:      Singlet-A      8.8320 eV  140.38 nm  f=0.0132  <S**2>=0.000
      11 -> 14         0.14649
      11 -> 15         0.24025
      12 -> 15         0.59599
      13 -> 18        -0.10259
      13 -> 19        -0.13366

 Excited State   7:      Singlet-A      8.9176 eV  139.03 nm  f=0.0117  <S**2>=0.000
      11 -> 15        -0.23611
      12 -> 15         0.24404
      13 -> 18         0.44291
      13 -> 19         0.40025

 Excited State   8:      Singlet-A      9.0239 eV  137.40 nm  f=0.0022  <S**2>=0.000
      10 -> 14         0.50540
      11 -> 15         0.38822
      12 -> 16         0.17977
      13 -> 18         0.18095

 Excited State   9:      Singlet-A      9.0383 eV  137.18 nm  f=0.0140  <S**2>=0.000
      10 -> 14        -0.39326
      11 -> 15         0.43977
      12 -> 15        -0.15925
      12 -> 16        -0.17902
      13 -> 18         0.24374

 Excited State  10:      Singlet-A      9.2688 eV  133.76 nm  f=0.0358  <S**2>=0.000
      11 -> 15         0.12626
      13 -> 17         0.17557
      13 -> 18        -0.35856
      13 -> 19         0.52725
      13 -> 21        -0.11235
      13 -> 22         0.11766

 Excited State  11:      Singlet-A      9.6777 eV  128.11 nm  f=0.0137  <S**2>=0.000
      10 -> 14        -0.22393
      12 -> 16         0.62609

 Excited State  12:      Singlet-A      9.7639 eV  126.98 nm  f=0.0025  <S**2>=0.000
      10 -> 15         0.22778
      10 -> 18         0.10219
      11 -> 16         0.26222
      12 -> 16         0.11535
      12 -> 17         0.52184
      12 -> 20        -0.12752
      12 -> 23        -0.10678

 Excited State  13:      Singlet-A     10.1222 eV  122.49 nm  f=0.1505  <S**2>=0.000
      10 -> 15        -0.34048
      10 -> 18        -0.11492
      11 -> 14         0.49437
      11 -> 16         0.19310
      13 -> 16         0.15035

 Excited State  14:      Singlet-A     10.3405 eV  119.90 nm  f=0.1696  <S**2>=0.000
       8 -> 15        -0.14013
       9 -> 15        -0.12230
      10 -> 15         0.47381
      10 -> 18         0.10359
      11 -> 14         0.30713
      12 -> 17        -0.21829
      13 -> 16         0.11410

 Excited State  15:      Singlet-A     10.4127 eV  119.07 nm  f=0.1116  <S**2>=0.000
       8 -> 15        -0.22750
       9 -> 15        -0.16596
      10 -> 15        -0.10438
      11 -> 14        -0.17704
      11 -> 16         0.51538
      12 -> 17        -0.21115
      12 -> 18        -0.14106
      12 -> 20         0.12189

 The electronic state is 1-A.
 Alpha  occ. eigenvalues --   -3.93664  -1.27313  -0.97601  -0.96278  -0.92715
 Alpha  occ. eigenvalues --   -0.90222  -0.79362  -0.63242  -0.62841  -0.54225
 Alpha  occ. eigenvalues --   -0.53188  -0.50424  -0.40444
 Alpha virt. eigenvalues --    0.06724   0.08064   0.10325   0.16468   0.17579
 Alpha virt. eigenvalues --    0.19741   0.23075   0.24117   0.26513   0.29518
 Alpha virt. eigenvalues --    0.29913

 Mulliken charges:
               1
     1  C   -0.248571
     2  C   -1.400224
     3  O    2.303948
     4  C   -1.367088
     5  C   -0.151640
     6  H    0.170063
     7  H    0.255094
     8  H    0.260719
     9  H    0.177699
 Sum of Mulliken charges =   0.00000

 Dipole moment (field-independent basis, Debye):
    X=             -0.9099    Y=             -7.4749    Z=             -0.1730  Tot=              7.5321
 N-N= 1.041807513519D+02 E-N=-1.700458390820D+02  KE=-2.567571650908D+01
 Orbital energies and kinetic energies (alpha):
                                 1                 2
   1         O                -3.936638         -3.305653
   2         O                -1.273129         -1.261756
   3         O                -0.976007         -1.055895
   4         O                -0.962779         -1.010670
   5         O                -0.927150         -0.883439
   6         O                -0.902222         -0.928735
   7         O                -0.793625         -0.841459

 Normal termination of Gaussian 09 at Fri Dec 11 13:41:28 2015.
