 Gaussian 09, Revision D.01,
 Gaussian 09:  ES64L-G09RevD.01 24-Apr-2013

 ------------------------------------------------------------
 #P AM1(Input,print) CIS(Singlets,NStates=15) pop(full) force
 ------------------------------------------------------------

 -----------------
 AM1-Reparam Input
 -----------------
 Symbolic Z-matrix:
 Charge =  0 Multiplicity = 1

                         Standard orientation:
 ---------------------------------------------------------------------
 Center     Atomic      Atomic             Coordinates (Angstroms)
 Number     Number       Type             X           Y           Z
 ---------------------------------------------------------------------
      1          6           0       -0.281351    1.148219   -0.011564
      2          6           0       -1.110725    0.093769    0.001486
      3          8           0       -0.445888   -1.085625   -0.008252
      4          6           0        0.885337   -0.704822   -0.005958
      5          6           0        1.004143    0.621537    0.018903
      6          1           0        1.947620    1.175873   -0.023501
      7          1           0        1.577096   -1.497072    0.026344
      8          1           0       -2.272191   -0.085348    0.053848
      9          1           0       -0.669843    2.139323   -0.007879
 ---------------------------------------------------------------------

 SCF Done:  E(RAM1) =  0.267964435650E-01 A.U. after   13 cycles

 Excitation energies and oscillator strengths:

 Excited State   1:      Singlet-A      4.4566 eV  278.20 nm  f=0.0949  <S**2>=0.000
      12 -> 15         0.17557
      13 -> 14         0.67712
 This state for optimization and/or second-order correction.
 Total Energy, E(CIS) =  0.190574708511
 Copying the excited state density for this state as the 1-particle RhoCI density.

 Excited State   2:      Singlet-A      5.1582 eV  240.36 nm  f=0.0003  <S**2>=0.000
      13 -> 16         0.66267
      13 -> 17        -0.17141
      13 -> 21         0.11946

 Excited State   3:      Singlet-A      5.1813 eV  239.29 nm  f=0.0108  <S**2>=0.000
      12 -> 14        -0.40158
      13 -> 15         0.57565

 Excited State   4:      Singlet-A      5.9757 eV  207.48 nm  f=0.0019  <S**2>=0.000
      12 -> 17        -0.11169
      12 -> 18         0.11811
      12 -> 22        -0.13493
      13 -> 17         0.38867
      13 -> 18        -0.35614
      13 -> 22         0.29679
      13 -> 23        -0.16995

 Excited State   5:      Singlet-A      6.1323 eV  202.18 nm  f=0.0016  <S**2>=0.000
      12 -> 16         0.12522
      12 -> 19         0.15530
      12 -> 22         0.14257
      12 -> 23         0.10555
      13 -> 17         0.10422
      13 -> 18         0.15494
      13 -> 19         0.49049
      13 -> 20        -0.12793
      13 -> 22         0.24815
      13 -> 23         0.18914

 Excited State   6:      Singlet-A      6.2684 eV  197.79 nm  f=0.0036  <S**2>=0.000
       7 -> 16        -0.18482
      12 -> 16         0.60654
      12 -> 17        -0.17633
      12 -> 21         0.12738

 Excited State   7:      Singlet-A      6.3640 eV  194.82 nm  f=0.1798  <S**2>=0.000
      12 -> 14         0.37907
      13 -> 15         0.26816
      13 -> 17        -0.31283
      13 -> 18        -0.31270
      13 -> 22         0.11629

 Excited State   8:      Singlet-A      6.4302 eV  192.81 nm  f=0.2062  <S**2>=0.000
      12 -> 14         0.38648
      13 -> 15         0.27524
      13 -> 17         0.32684
      13 -> 18         0.30931

 Excited State   9:      Singlet-A      6.6955 eV  185.18 nm  f=0.1196  <S**2>=0.000
      12 -> 15         0.67538
      13 -> 14        -0.16207

 Excited State  10:      Singlet-A      7.1245 eV  174.03 nm  f=0.0014  <S**2>=0.000
      12 -> 17         0.18405
      12 -> 18         0.38642
      13 -> 16        -0.11136
      13 -> 17        -0.11857
      13 -> 18         0.27234
      13 -> 19        -0.22483
      13 -> 20        -0.12078
      13 -> 21         0.17072
      13 -> 22         0.27011

 Excited State  11:      Singlet-A      7.2119 eV  171.91 nm  f=0.0022  <S**2>=0.000
       9 -> 14        -0.25051
      10 -> 14        -0.16366
      11 -> 14         0.51693
      11 -> 15        -0.29904
      13 -> 21        -0.10517

 Excited State  12:      Singlet-A      7.4408 eV  166.63 nm  f=0.0017  <S**2>=0.000
       9 -> 14         0.47266
       9 -> 15         0.20333
      10 -> 14        -0.18671
      10 -> 15        -0.20161
      11 -> 14         0.21857
      12 -> 18         0.18307
      13 -> 20         0.16155

 Excited State  13:      Singlet-A      7.5152 eV  164.98 nm  f=0.0050  <S**2>=0.000
       9 -> 14        -0.17122
      11 -> 14        -0.12289
      12 -> 17         0.12984
      12 -> 18         0.31693
      12 -> 20        -0.26512
      12 -> 23        -0.16302
      13 -> 17         0.13233
      13 -> 20         0.26099
      13 -> 21        -0.13592
      13 -> 22        -0.18955
      13 -> 23         0.22481

 Excited State  14:      Singlet-A      7.5431 eV  164.37 nm  f=0.0002  <S**2>=0.000
       9 -> 14         0.13992
      11 -> 15         0.10172
      12 -> 19         0.40987
      12 -> 21         0.15349
      12 -> 23         0.11282
      13 -> 19        -0.29529
      13 -> 21        -0.26900
      13 -> 24         0.22959

 Excited State  15:      Singlet-A      7.6687 eV  161.67 nm  f=0.0001  <S**2>=0.000
       9 -> 14         0.14034
      10 -> 15        -0.16049
      12 -> 17         0.34581
      12 -> 18        -0.18427
      12 -> 19        -0.14805
      12 -> 20        -0.21809
      12 -> 22         0.14572
      12 -> 23        -0.13718
      13 -> 17         0.15711
      13 -> 18        -0.12791
      13 -> 20        -0.24550
      13 -> 21         0.15291
      13 -> 24         0.14741

 The electronic state is 1-A.
 Alpha  occ. eigenvalues --   -1.57642  -1.25322  -1.09539  -0.82278  -0.81307
 Alpha  occ. eigenvalues --   -0.68386  -0.60301  -0.55045  -0.51373  -0.50794
 Alpha  occ. eigenvalues --   -0.49700  -0.40319  -0.34761
 Alpha virt. eigenvalues --    0.03105   0.06896   0.10086   0.13003   0.14811
 Alpha virt. eigenvalues --    0.15172   0.17907   0.18539   0.18827   0.20820
 Alpha virt. eigenvalues --    0.22232

 Mulliken charges:
               1
     1  C   -0.199943
     2  C   -0.114257
     3  O   -0.082032
     4  C   -0.111411
     5  C   -0.181520
     6  H    0.159419
     7  H    0.178808
     8  H    0.193886
     9  H    0.157048
 Sum of Mulliken charges =   0.00000

 Dipole moment (field-independent basis, Debye):
    X=             -0.0242    Y=              0.3672    Z=              0.0538  Tot=              0.3719
 N-N= 1.037882330708D+02 E-N=-1.716096568060D+02  KE=-1.657785469259D+01
 Orbital energies and kinetic energies (alpha):
                                 1                 2
   1         O                -1.576422         -1.328835
   2         O                -1.253224         -1.057816
   3         O                -1.095388         -0.956740
   4         O                -0.822785         -0.701689
   5         O                -0.813066         -0.719176
   6         O                -0.683863         -0.604189
   7         O                -0.603015         -0.489495

 Normal termination of Gaussian 09 at Tue Dec 15 16:20:31 2015.
