 Gaussian 09, Revision D.01,
 Gaussian 09:  ES64L-G09RevD.01 24-Apr-2013

 ------------------------------------------------------------
 #P AM1(Input,print) CIS(Singlets,NStates=15) pop(full) force
 ------------------------------------------------------------

 -----------------
 AM1-Reparam Input
 -----------------
 Symbolic Z-matrix:
 Charge =  0 Multiplicity = 1

                         Standard orientation:
 ---------------------------------------------------------------------
 Center     Atomic      Atomic             Coordinates (Angstroms)
 Number     Number       Type             X           Y           Z
 ---------------------------------------------------------------------
      1          6           0        0.675878    0.981242   -0.020475
      2          6           0        1.064960   -0.289038    0.002296
      3          8           0        0.104754   -1.110560   -0.010340
      4          6           0       -1.089262   -0.452070    0.017828
      5          6           0       -0.756986    0.920529   -0.005822
      6          1           0       -1.513018    1.690538    0.009793
      7          1           0       -1.987048   -0.944526   -0.002989
      8          1           0        2.122285   -0.706192    0.045864
      9          1           0        1.172203    1.880684    0.067091
 ---------------------------------------------------------------------

 SCF Done:  E(RAM1) =   2.12243649232     A.U. after   13 cycles

 Excitation energies and oscillator strengths:

 Excited State   1:      Singlet-A      5.5585 eV  223.05 nm  f=0.3561  <S**2>=0.000
      13 -> 14         0.69458
 This state for optimization and/or second-order correction.
 Total Energy, E(CIS) =   2.32670759919
 Copying the excited state density for this state as the 1-particle RhoCI density.

 Excited State   2:      Singlet-A      6.1825 eV  200.54 nm  f=0.0032  <S**2>=0.000
      11 -> 15         0.11821
      13 -> 15         0.67870
      13 -> 17        -0.10907

 Excited State   3:      Singlet-A      7.1812 eV  172.65 nm  f=0.0033  <S**2>=0.000
      12 -> 14         0.45976
      13 -> 16         0.49481
      13 -> 18        -0.11791

 Excited State   4:      Singlet-A      7.1931 eV  172.36 nm  f=0.0023  <S**2>=0.000
      12 -> 14         0.52200
      13 -> 16        -0.43757

 Excited State   5:      Singlet-A      8.0676 eV  153.68 nm  f=0.0066  <S**2>=0.000
      10 -> 14         0.67589
      11 -> 14        -0.14619

 Excited State   6:      Singlet-A      8.1962 eV  151.27 nm  f=0.0027  <S**2>=0.000
      13 -> 16         0.10496
      13 -> 17        -0.27031
      13 -> 18         0.52616
      13 -> 20        -0.11391
      13 -> 21         0.31277

 Excited State   7:      Singlet-A      8.7644 eV  141.46 nm  f=0.0082  <S**2>=0.000
      11 -> 16        -0.13645
      13 -> 17         0.58183
      13 -> 18         0.25476
      13 -> 19        -0.17705
      13 -> 20        -0.11534

 Excited State   8:      Singlet-A      8.8671 eV  139.82 nm  f=0.1093  <S**2>=0.000
      10 -> 14         0.14941
      11 -> 14         0.66050
      12 -> 15         0.12953

 Excited State   9:      Singlet-A      9.3722 eV  132.29 nm  f=0.0019  <S**2>=0.000
      11 -> 15        -0.10883
      11 -> 16        -0.13191
      13 -> 17         0.19201
      13 -> 19         0.63439

 Excited State  10:      Singlet-A      9.4827 eV  130.75 nm  f=0.1081  <S**2>=0.000
       8 -> 15         0.13509
      11 -> 14        -0.13993
      12 -> 15         0.62159
      12 -> 18         0.11065

 Excited State  11:      Singlet-A      9.7750 eV  126.84 nm  f=0.0020  <S**2>=0.000
      11 -> 15        -0.19260
      13 -> 18        -0.33181
      13 -> 19        -0.10675
      13 -> 20        -0.18772
      13 -> 21         0.52831

 Excited State  12:      Singlet-A      9.7858 eV  126.70 nm  f=0.0043  <S**2>=0.000
       7 -> 15        -0.11945
      11 -> 15         0.59134
      13 -> 15        -0.12021
      13 -> 21         0.22224

 Excited State  13:      Singlet-A      9.9893 eV  124.12 nm  f=0.0188  <S**2>=0.000
       9 -> 15         0.17828
      10 -> 15         0.36969
      10 -> 16         0.23714
      10 -> 17        -0.23124
      11 -> 15         0.17151
      12 -> 15         0.12114
      12 -> 16         0.16992
      12 -> 18        -0.26895
      12 -> 21        -0.11038

 Excited State  14:      Singlet-A     10.1265 eV  122.44 nm  f=0.0916  <S**2>=0.000
      11 -> 16        -0.20376
      13 -> 19        -0.14505
      13 -> 20         0.62094
      13 -> 21         0.18965

 Excited State  15:      Singlet-A     10.4383 eV  118.78 nm  f=0.1847  <S**2>=0.000
       9 -> 15         0.14049
      10 -> 16        -0.32957
      10 -> 19         0.12574
      12 -> 16         0.49948
      12 -> 17        -0.20377

 The electronic state is 1-A.
 Alpha  occ. eigenvalues --   -1.96430  -1.19904  -0.94305  -0.82048  -0.78337
 Alpha  occ. eigenvalues --   -0.70089  -0.67991  -0.57050  -0.53578  -0.45902
 Alpha  occ. eigenvalues --   -0.45165  -0.42963  -0.30792
 Alpha virt. eigenvalues --    0.10305   0.14243   0.20040   0.25441   0.26693
 Alpha virt. eigenvalues --    0.28499   0.30102   0.31014   0.35101   0.42570
 Alpha virt. eigenvalues --    0.47991

 Mulliken charges:
               1
     1  C   -0.177398
     2  C   -1.914060
     3  O    3.218345
     4  C   -1.920080
     5  C   -0.108418
     6  H    0.162119
     7  H    0.270927
     8  H    0.302305
     9  H    0.166259
 Sum of Mulliken charges =   0.00000

 Dipole moment (field-independent basis, Debye):
    X=              1.8301    Y=             -9.5208    Z=             -0.1503  Tot=              9.6963
 N-N= 1.048357534968D+02 E-N=-1.703473518442D+02  KE=-1.538821940143D+01
 Orbital energies and kinetic energies (alpha):
                                 1                 2
   1         O                -1.964299         -1.411416
   2         O                -1.199043         -1.046238
   3         O                -0.943053         -0.876186
   4         O                -0.820480         -0.568599
   5         O                -0.783368         -0.689849
   6         O                -0.700889         -0.595794
   7         O                -0.679914         -0.529098

 Normal termination of Gaussian 09 at Tue Dec 15 17:09:29 2015.
