 Gaussian 09, Revision D.01,
 Gaussian 09:  ES64L-G09RevD.01 24-Apr-2013

 ------------------------------------------------------------
 #P AM1(Input,print) CIS(Singlets,NStates=15) pop(full) force
 ------------------------------------------------------------

 -----------------
 AM1-Reparam Input
 -----------------
 Symbolic Z-matrix:
 Charge =  0 Multiplicity = 1

                         Standard orientation:
 ---------------------------------------------------------------------
 Center     Atomic      Atomic             Coordinates (Angstroms)
 Number     Number       Type             X           Y           Z
 ---------------------------------------------------------------------
      1          6           0       -0.255349    1.154326   -0.018917
      2          6           0       -1.171603    0.043826    0.001751
      3          8           0       -0.444608   -1.028435    0.007647
      4          6           0        0.888982   -0.700744   -0.033743
      5          6           0        0.990899    0.587051    0.036535
      6          1           0        1.995673    1.179372   -0.013098
      7          1           0        1.550679   -1.601472    0.026153
      8          1           0       -2.157597    0.016672    0.021472
      9          1           0       -0.549466    2.126148   -0.009459
 ---------------------------------------------------------------------

 SCF Done:  E(RAM1) =   2.85602090644     A.U. after   13 cycles

 Excitation energies and oscillator strengths:

 Excited State   1:      Singlet-A      5.5523 eV  223.30 nm  f=0.3196  <S**2>=0.000
      13 -> 14         0.69206
 This state for optimization and/or second-order correction.
 Total Energy, E(CIS) =   3.06006588258
 Copying the excited state density for this state as the 1-particle RhoCI density.

 Excited State   2:      Singlet-A      6.5788 eV  188.46 nm  f=0.0104  <S**2>=0.000
      13 -> 15         0.39001
      13 -> 16         0.54300
      13 -> 17        -0.16755

 Excited State   3:      Singlet-A      6.8190 eV  181.82 nm  f=0.0001  <S**2>=0.000
      10 -> 15         0.10968
      12 -> 14        -0.40205
      13 -> 15         0.41815
      13 -> 16        -0.32518
      13 -> 19         0.16755

 Excited State   4:      Singlet-A      6.8555 eV  180.85 nm  f=0.0010  <S**2>=0.000
       9 -> 14         0.10911
      12 -> 14         0.56120
      13 -> 15         0.33103
      13 -> 16        -0.20388
      13 -> 19         0.10027

 Excited State   5:      Singlet-A      7.7239 eV  160.52 nm  f=0.0052  <S**2>=0.000
      10 -> 14        -0.13080
      11 -> 14         0.67292

 Excited State   6:      Singlet-A      8.0878 eV  153.30 nm  f=0.0041  <S**2>=0.000
      13 -> 18         0.34959
      13 -> 19         0.33278
      13 -> 20         0.37221
      13 -> 21        -0.29996

 Excited State   7:      Singlet-A      8.2707 eV  149.91 nm  f=0.0059  <S**2>=0.000
      10 -> 16        -0.11907
      13 -> 15         0.13485
      13 -> 17         0.60359
      13 -> 18         0.12645
      13 -> 19        -0.26252

 Excited State   8:      Singlet-A      8.6850 eV  142.76 nm  f=0.0232  <S**2>=0.000
      10 -> 14         0.59771
      11 -> 14         0.11422
      11 -> 16         0.11341
      12 -> 15         0.17733
      12 -> 16        -0.11382
      12 -> 17         0.12539

 Excited State   9:      Singlet-A      8.9309 eV  138.83 nm  f=0.0021  <S**2>=0.000
      10 -> 16         0.16407
      13 -> 16        -0.15331
      13 -> 17        -0.22770
      13 -> 18         0.45074
      13 -> 19        -0.38058
      13 -> 20         0.10602

 Excited State  10:      Singlet-A      9.2306 eV  134.32 nm  f=0.0263  <S**2>=0.000
      13 -> 17        -0.10390
      13 -> 18        -0.32693
      13 -> 19        -0.32989
      13 -> 20         0.34678
      13 -> 21        -0.32431

 Excited State  11:      Singlet-A      9.3218 eV  133.00 nm  f=0.1357  <S**2>=0.000
      10 -> 14        -0.23237
      12 -> 15         0.62043
      12 -> 16        -0.11669
      12 -> 19         0.10621

 Excited State  12:      Singlet-A      9.3756 eV  132.24 nm  f=0.2052  <S**2>=0.000
       9 -> 16         0.12663
       9 -> 19        -0.11718
      10 -> 14         0.21576
      11 -> 15        -0.22582
      11 -> 16        -0.19252
      11 -> 17         0.20089
      11 -> 19        -0.12349
      12 -> 15         0.17428
      12 -> 16         0.27140
      12 -> 17        -0.19968
      12 -> 18        -0.17577
      12 -> 20        -0.10886
      13 -> 21        -0.11942

 Excited State  13:      Singlet-A      9.5154 eV  130.30 nm  f=0.0492  <S**2>=0.000
      11 -> 16         0.45986
      11 -> 18         0.12309
      12 -> 16         0.44470
      12 -> 18         0.10653

 Excited State  14:      Singlet-A      9.7653 eV  126.96 nm  f=0.0728  <S**2>=0.000
      10 -> 16        -0.14320
      13 -> 20         0.43990
      13 -> 21         0.50137

 Excited State  15:      Singlet-A      9.8733 eV  125.57 nm  f=0.0012  <S**2>=0.000
       9 -> 14         0.64091
      10 -> 16         0.16183
      12 -> 14        -0.12067

 The electronic state is 1-A.
 Alpha  occ. eigenvalues --   -1.74385  -1.13620  -0.93881  -0.80126  -0.75933
 Alpha  occ. eigenvalues --   -0.66948  -0.65219  -0.55581  -0.49784  -0.43995
 Alpha  occ. eigenvalues --   -0.43627  -0.40355  -0.30363
 Alpha virt. eigenvalues --    0.11364   0.17482   0.18738   0.23456   0.26308
 Alpha virt. eigenvalues --    0.26870   0.29678   0.30261   0.38983   0.47307
 Alpha virt. eigenvalues --    0.52300

 Mulliken charges:
               1
     1  C   -0.199934
     2  C   -2.021715
     3  O    3.225412
     4  C   -1.928623
     5  C   -0.056229
     6  H    0.182278
     7  H    0.294435
     8  H    0.315580
     9  H    0.188797
 Sum of Mulliken charges =   0.00000

 Dipole moment (field-independent basis, Debye):
    X=             -3.1313    Y=             -9.0017    Z=              0.4802  Tot=              9.5429
 N-N= 1.047576224475D+02 E-N=-1.702764164830D+02  KE=-1.485047810679D+01
 Orbital energies and kinetic energies (alpha):
                                 1                 2
   1         O                -1.743847         -1.252040
   2         O                -1.136200         -0.990228
   3         O                -0.938812         -0.844402
   4         O                -0.801256         -0.608387
   5         O                -0.759334         -0.679124
   6         O                -0.669479         -0.573587
   7         O                -0.652188         -0.532231

 Normal termination of Gaussian 09 at Tue Dec 15 17:05:59 2015.
