 Gaussian 09, Revision D.01,
 Gaussian 09:  ES64L-G09RevD.01 24-Apr-2013

 ------------------------------------------------------------
 #P AM1(Input,print) CIS(Singlets,NStates=15) pop(full) force
 ------------------------------------------------------------

 -----------------
 AM1-Reparam Input
 -----------------
 Symbolic Z-matrix:
 Charge =  0 Multiplicity = 1

                         Standard orientation:
 ---------------------------------------------------------------------
 Center     Atomic      Atomic             Coordinates (Angstroms)
 Number     Number       Type             X           Y           Z
 ---------------------------------------------------------------------
      1          6           0        0.788970    0.885096   -0.003663
      2          6           0        1.102359   -0.368707    0.027840
      3          8           0       -0.079589   -1.151040   -0.021614
      4          6           0       -1.150744   -0.252078    0.029135
      5          6           0       -0.671583    0.959252   -0.022512
      6          1           0       -1.227418    1.853659    0.035861
      7          1           0       -2.037413   -0.689635   -0.014642
      8          1           0        2.007510   -1.003691   -0.013128
      9          1           0        1.480020    1.706611   -0.019980
 ---------------------------------------------------------------------

 SCF Done:  E(RAM1) =   2.66254534047     A.U. after   13 cycles

 Excitation energies and oscillator strengths:

 Excited State   1:      Singlet-A      4.7531 eV  260.85 nm  f=0.3622  <S**2>=0.000
      13 -> 14         0.69946
 This state for optimization and/or second-order correction.
 Total Energy, E(CIS) =   2.83721826079
 Copying the excited state density for this state as the 1-particle RhoCI density.

 Excited State   2:      Singlet-A      5.7445 eV  215.83 nm  f=0.0001  <S**2>=0.000
      13 -> 15         0.64788
      13 -> 16        -0.17797
      13 -> 17        -0.14385
      13 -> 19        -0.11598

 Excited State   3:      Singlet-A      6.2271 eV  199.11 nm  f=0.0028  <S**2>=0.000
      13 -> 15         0.18534
      13 -> 16         0.65676
      13 -> 18        -0.10019

 Excited State   4:      Singlet-A      6.3479 eV  195.32 nm  f=0.0003  <S**2>=0.000
      12 -> 14         0.69773

 Excited State   5:      Singlet-A      7.3516 eV  168.65 nm  f=0.0045  <S**2>=0.000
      11 -> 14         0.58885
      13 -> 17         0.36588

 Excited State   6:      Singlet-A      7.3711 eV  168.20 nm  f=0.0009  <S**2>=0.000
      11 -> 14        -0.38041
      13 -> 17         0.56814

 Excited State   7:      Singlet-A      8.5921 eV  144.30 nm  f=0.1157  <S**2>=0.000
      10 -> 14         0.68907

 Excited State   8:      Singlet-A      8.9151 eV  139.07 nm  f=0.0065  <S**2>=0.000
      10 -> 15        -0.19619
      13 -> 18         0.65833

 Excited State   9:      Singlet-A      9.0820 eV  136.52 nm  f=0.1173  <S**2>=0.000
       8 -> 16        -0.10545
      11 -> 18         0.13805
      12 -> 15         0.54451
      12 -> 16        -0.18690
      12 -> 17        -0.29929

 Excited State  10:      Singlet-A      9.3197 eV  133.03 nm  f=0.0013  <S**2>=0.000
      10 -> 16        -0.19576
      13 -> 19         0.65226

 Excited State  11:      Singlet-A      9.6229 eV  128.84 nm  f=0.1998  <S**2>=0.000
      11 -> 15         0.28733
      11 -> 16         0.30379
      11 -> 18        -0.20667
      12 -> 15         0.32830
      12 -> 17         0.35746

 Excited State  12:      Singlet-A      9.7456 eV  127.22 nm  f=0.0469  <S**2>=0.000
      11 -> 15         0.27795
      11 -> 16        -0.25852
      11 -> 19        -0.11448
      12 -> 16         0.53764
      12 -> 17        -0.10545

 Excited State  13:      Singlet-A     10.2582 eV  120.86 nm  f=0.0026  <S**2>=0.000
       7 -> 15         0.12138
      10 -> 15         0.63966
      13 -> 15         0.10982
      13 -> 18         0.18687

 Excited State  14:      Singlet-A     10.3819 eV  119.42 nm  f=0.0230  <S**2>=0.000
       8 -> 15         0.22071
       9 -> 15        -0.16550
       9 -> 16        -0.15509
      11 -> 15         0.40502
      11 -> 17         0.16171
      11 -> 19        -0.17517
      12 -> 15        -0.12130
      12 -> 16        -0.27272
      12 -> 17        -0.16228
      12 -> 18        -0.12155

 Excited State  15:      Singlet-A     10.4844 eV  118.26 nm  f=0.0007  <S**2>=0.000
       9 -> 14         0.55006
      10 -> 16        -0.37849

 The electronic state is 1-A.
 Alpha  occ. eigenvalues --   -1.84421  -1.13200  -0.89927  -0.79441  -0.75761
 Alpha  occ. eigenvalues --   -0.67383  -0.62935  -0.56105  -0.54830  -0.45274
 Alpha  occ. eigenvalues --   -0.44034  -0.41236  -0.27880
 Alpha virt. eigenvalues --    0.09129   0.16674   0.18572   0.25655   0.28643
 Alpha virt. eigenvalues --    0.30818   0.37403   0.41140   0.44931   0.52812
 Alpha virt. eigenvalues --    0.56404

 Mulliken charges:
               1
     1  C   -0.202603
     2  C   -1.944270
     3  O    3.449165
     4  C   -1.953171
     5  C   -0.245447
     6  H    0.199254
     7  H    0.245952
     8  H    0.256447
     9  H    0.194673
 Sum of Mulliken charges =   0.00000

 Dipole moment (field-independent basis, Debye):
    X=             -0.4595    Y=            -12.3025    Z=             -0.8191  Tot=             12.3383
 N-N= 1.040817584806D+02 E-N=-1.695954033276D+02  KE=-1.439446886257D+01
 Orbital energies and kinetic energies (alpha):
                                 1                 2
   1         O                -1.844209         -1.218742
   2         O                -1.131999         -0.966740
   3         O                -0.899273         -0.820547
   4         O                -0.794411         -0.539725
   5         O                -0.757605         -0.628149
   6         O                -0.673832         -0.536268
   7         O                -0.629353         -0.499410

 Normal termination of Gaussian 09 at Tue Dec 15 17:07:38 2015.
