 Gaussian 09, Revision D.01,
 Gaussian 09:  ES64L-G09RevD.01 24-Apr-2013

 ------------------------------------------------------------
 #P AM1(Input,print) CIS(Singlets,NStates=15) pop(full) force
 ------------------------------------------------------------

 -----------------
 AM1-Reparam Input
 -----------------
 Symbolic Z-matrix:
 Charge =  0 Multiplicity = 1

                         Standard orientation:
 ---------------------------------------------------------------------
 Center     Atomic      Atomic             Coordinates (Angstroms)
 Number     Number       Type             X           Y           Z
 ---------------------------------------------------------------------
      1          6           0        0.906798    0.776835   -0.013504
      2          6           0        1.034385   -0.574751    0.020855
      3          8           0       -0.305036   -1.109669   -0.002194
      4          6           0       -1.147473   -0.105361   -0.002074
      5          6           0       -0.458687    1.060529   -0.015200
      6          1           0       -0.909003    2.133576    0.071905
      7          1           0       -2.221451   -0.316488    0.014679
      8          1           0        1.834847   -1.276483   -0.028184
      9          1           0        1.725766    1.393239    0.018693
 ---------------------------------------------------------------------

 SCF Done:  E(RAM1) =  -5.23052047658     A.U. after   14 cycles

 Excitation energies and oscillator strengths:

 Excited State   1:      Singlet-A      6.7101 eV  184.77 nm  f=0.0085  <S**2>=0.000
      13 -> 15         0.68902
 This state for optimization and/or second-order correction.
 Total Energy, E(CIS) =  -4.98392714674
 Copying the excited state density for this state as the 1-particle RhoCI density.

 Excited State   2:      Singlet-A      7.1071 eV  174.45 nm  f=0.1377  <S**2>=0.000
      12 -> 14        -0.39347
      13 -> 14         0.56231

 Excited State   3:      Singlet-A      7.3654 eV  168.33 nm  f=0.0877  <S**2>=0.000
      11 -> 14         0.11138
      12 -> 14         0.56870
      13 -> 14         0.37338

 Excited State   4:      Singlet-A      7.7162 eV  160.68 nm  f=0.0036  <S**2>=0.000
      11 -> 14         0.66268
      13 -> 16        -0.19291

 Excited State   5:      Singlet-A      7.9195 eV  156.56 nm  f=0.0100  <S**2>=0.000
      10 -> 15         0.11668
      11 -> 14         0.19797
      13 -> 16         0.64879

 Excited State   6:      Singlet-A      8.5696 eV  144.68 nm  f=0.0190  <S**2>=0.000
      11 -> 15        -0.12429
      12 -> 15         0.65855
      13 -> 17         0.11664

 Excited State   7:      Singlet-A      9.2126 eV  134.58 nm  f=0.0059  <S**2>=0.000
      10 -> 14         0.39214
      10 -> 15         0.20420
      11 -> 15         0.22007
      11 -> 16         0.10496
      13 -> 17         0.47054

 Excited State   8:      Singlet-A      9.3569 eV  132.51 nm  f=0.0052  <S**2>=0.000
      10 -> 15         0.62570
      13 -> 17        -0.18158
      13 -> 18         0.16024

 Excited State   9:      Singlet-A      9.4059 eV  131.81 nm  f=0.0466  <S**2>=0.000
      10 -> 14        -0.27907
      11 -> 15         0.55102
      11 -> 16         0.23900
      12 -> 15         0.11265
      12 -> 16         0.12347

 Excited State  10:      Singlet-A      9.7719 eV  126.88 nm  f=0.0009  <S**2>=0.000
      10 -> 15        -0.15496
      13 -> 18         0.65550
      13 -> 22         0.11492

 Excited State  11:      Singlet-A     10.0232 eV  123.70 nm  f=0.0074  <S**2>=0.000
       8 -> 15        -0.10228
      11 -> 15        -0.22661
      11 -> 16         0.19116
      12 -> 16         0.58590

 Excited State  12:      Singlet-A     10.0673 eV  123.15 nm  f=0.0103  <S**2>=0.000
      10 -> 16        -0.38381
      11 -> 16        -0.12751
      13 -> 17         0.10442
      13 -> 19         0.47898
      13 -> 20         0.25279

 Excited State  13:      Singlet-A     10.1671 eV  121.95 nm  f=0.0964  <S**2>=0.000
      10 -> 14         0.35369
      10 -> 16        -0.10641
      11 -> 16         0.38539
      13 -> 17        -0.36187
      13 -> 19         0.13151

 Excited State  14:      Singlet-A     10.4892 eV  118.20 nm  f=0.0053  <S**2>=0.000
       9 -> 14         0.60106
      11 -> 16         0.16862
      12 -> 16        -0.12244
      13 -> 20         0.18992

 Excited State  15:      Singlet-A     10.5313 eV  117.73 nm  f=0.0021  <S**2>=0.000
       9 -> 14        -0.18129
      13 -> 19        -0.24952
      13 -> 20         0.57355
      13 -> 21         0.14492

 The electronic state is 1-A.
 Alpha  occ. eigenvalues --   -3.84202  -1.33168  -0.97531  -0.96374  -0.94887
 Alpha  occ. eigenvalues --   -0.85830  -0.73344  -0.55711  -0.52297  -0.47918
 Alpha  occ. eigenvalues --   -0.45484  -0.43648  -0.37176
 Alpha virt. eigenvalues --    0.09486   0.11773   0.15858   0.20536   0.23088
 Alpha virt. eigenvalues --    0.23915   0.26032   0.28660   0.34576   0.36276
 Alpha virt. eigenvalues --    0.38792

 Mulliken charges:
               1
     1  C   -0.315103
     2  C   -1.182344
     3  O    2.456513
     4  C   -1.214317
     5  C   -0.404668
     6  H    0.211577
     7  H    0.145148
     8  H    0.120327
     9  H    0.182869
 Sum of Mulliken charges =   0.00000

 Dipole moment (field-independent basis, Debye):
    X=             -2.9260    Y=             -8.6864    Z=             -0.0044  Tot=              9.1659
 N-N= 1.018425242273D+02 E-N=-1.672904657035D+02  KE=-2.190418959474D+01
 Orbital energies and kinetic energies (alpha):
                                 1                 2
   1         O                -3.842021         -3.120554
   2         O                -1.331682         -1.198021
   3         O                -0.975306         -0.880256
   4         O                -0.963741         -0.948939
   5         O                -0.948874         -0.887354
   6         O                -0.858298         -0.740490
   7         O                -0.733442         -0.621921

 Normal termination of Gaussian 09 at Fri Dec 11 13:41:25 2015.
