 Gaussian 09, Revision D.01,
 Gaussian 09:  ES64L-G09RevD.01 24-Apr-2013

 ------------------------------------------------------------
 #P AM1(Input,print) CIS(Singlets,NStates=15) pop(full) force
 ------------------------------------------------------------

 -----------------
 AM1-Reparam Input
 -----------------
 Symbolic Z-matrix:
 Charge =  0 Multiplicity = 1

                         Standard orientation:
 ---------------------------------------------------------------------
 Center     Atomic      Atomic             Coordinates (Angstroms)
 Number     Number       Type             X           Y           Z
 ---------------------------------------------------------------------
      1          6           0        0.959612    0.811778    0.014553
      2          6           0        0.988970   -0.599361   -0.004518
      3          8           0       -0.284980   -1.155866    0.008552
      4          6           0       -1.119805   -0.053989   -0.024754
      5          6           0       -0.525720    1.073199    0.000333
      6          1           0       -0.919785    2.022008   -0.017033
      7          1           0       -2.191863   -0.412602    0.069901
      8          1           0        1.864087   -1.278295   -0.035103
      9          1           0        1.709057    1.526061    0.000133
 ---------------------------------------------------------------------

 SCF Done:  E(RAM1) =   2.57492929890     A.U. after   14 cycles

 Excitation energies and oscillator strengths:

 Excited State   1:      Singlet-A      5.0034 eV  247.80 nm  f=0.3634  <S**2>=0.000
      13 -> 14         0.69752
 This state for optimization and/or second-order correction.
 Total Energy, E(CIS) =   2.75879981708
 Copying the excited state density for this state as the 1-particle RhoCI density.

 Excited State   2:      Singlet-A      5.5067 eV  225.15 nm  f=0.0011  <S**2>=0.000
      13 -> 15         0.68111
      13 -> 18         0.12741

 Excited State   3:      Singlet-A      6.1410 eV  201.89 nm  f=0.0017  <S**2>=0.000
      13 -> 16         0.65367
      13 -> 17        -0.21421

 Excited State   4:      Singlet-A      6.4554 eV  192.06 nm  f=0.0001  <S**2>=0.000
      12 -> 14         0.70012

 Excited State   5:      Singlet-A      7.3988 eV  167.57 nm  f=0.0001  <S**2>=0.000
      13 -> 16         0.14956
      13 -> 17         0.38377
      13 -> 18         0.48504
      13 -> 19         0.12297
      13 -> 20        -0.15366
      13 -> 21         0.19456

 Excited State   6:      Singlet-A      7.9619 eV  155.72 nm  f=0.0180  <S**2>=0.000
      10 -> 14        -0.29848
      13 -> 16         0.10751
      13 -> 17         0.46156
      13 -> 18        -0.41026

 Excited State   7:      Singlet-A      8.1876 eV  151.43 nm  f=0.0000  <S**2>=0.000
      10 -> 14         0.63349
      13 -> 17         0.23081
      13 -> 18        -0.17996

 Excited State   8:      Singlet-A      8.5008 eV  145.85 nm  f=0.0844  <S**2>=0.000
       8 -> 15         0.14231
      11 -> 14         0.46969
      12 -> 15         0.46686
      12 -> 17         0.10685

 Excited State   9:      Singlet-A      8.5975 eV  144.21 nm  f=0.0015  <S**2>=0.000
      13 -> 19         0.67199

 Excited State  10:      Singlet-A      8.8688 eV  139.80 nm  f=0.2489  <S**2>=0.000
      11 -> 14         0.49927
      12 -> 15        -0.42504
      12 -> 16         0.16390
      12 -> 18        -0.11486

 Excited State  11:      Singlet-A      9.2438 eV  134.13 nm  f=0.0141  <S**2>=0.000
      13 -> 17         0.13493
      13 -> 18         0.18503
      13 -> 20         0.55166
      13 -> 21        -0.34900

 Excited State  12:      Singlet-A      9.4432 eV  131.29 nm  f=0.0184  <S**2>=0.000
       9 -> 15        -0.13757
      10 -> 15        -0.19836
      10 -> 18        -0.15663
      12 -> 15         0.22059
      12 -> 16         0.45737
      12 -> 17        -0.27468
      12 -> 18        -0.14685

 Excited State  13:      Singlet-A      9.6368 eV  128.66 nm  f=0.0090  <S**2>=0.000
       7 -> 15        -0.15609
      11 -> 15         0.65097
      13 -> 15        -0.10774
      13 -> 21         0.15120

 Excited State  14:      Singlet-A      9.6612 eV  128.33 nm  f=0.0764  <S**2>=0.000
      11 -> 15        -0.10469
      11 -> 16        -0.12216
      13 -> 20         0.39675
      13 -> 21         0.53600

 Excited State  15:      Singlet-A      9.9346 eV  124.80 nm  f=0.0191  <S**2>=0.000
       7 -> 16         0.10793
      10 -> 15        -0.13459
      11 -> 16         0.54846
      12 -> 16        -0.19016
      12 -> 17        -0.14192
      12 -> 19        -0.11606
      13 -> 16         0.12281
      13 -> 21         0.11382

 The electronic state is 1-A.
 Alpha  occ. eigenvalues --   -1.71759  -1.14600  -0.93782  -0.80477  -0.75291
 Alpha  occ. eigenvalues --   -0.67267  -0.63132  -0.53114  -0.49846  -0.44724
 Alpha  occ. eigenvalues --   -0.43167  -0.39042  -0.26473
 Alpha virt. eigenvalues --    0.11621   0.15540   0.18719   0.27275   0.28212
 Alpha virt. eigenvalues --    0.30408   0.32288   0.33489   0.37869   0.47687
 Alpha virt. eigenvalues --    0.51183

 Mulliken charges:
               1
     1  C   -0.099076
     2  C   -1.929324
     3  O    3.212669
     4  C   -1.839808
     5  C   -0.056345
     6  H    0.108763
     7  H    0.229824
     8  H    0.260101
     9  H    0.113196
 Sum of Mulliken charges =   0.00000

 Dipole moment (field-independent basis, Debye):
    X=             -3.2517    Y=            -11.1456    Z=              0.3865  Tot=             11.6166
 N-N= 1.031195479501D+02 E-N=-1.676638068860D+02  KE=-1.497189871403D+01
 Orbital energies and kinetic energies (alpha):
                                 1                 2
   1         O                -1.717591         -1.199418
   2         O                -1.146000         -1.017437
   3         O                -0.937818         -0.864139
   4         O                -0.804771         -0.612965
   5         O                -0.752914         -0.672196
   6         O                -0.672674         -0.576852
   7         O                -0.631321         -0.515517

 Normal termination of Gaussian 09 at Tue Dec 15 17:06:25 2015.
