 Gaussian 09, Revision D.01,
 Gaussian 09:  ES64L-G09RevD.01 24-Apr-2013

 ------------------------------------------------------------
 #P AM1(Input,print) CIS(Singlets,NStates=15) pop(full) force
 ------------------------------------------------------------

 -----------------
 AM1-Reparam Input
 -----------------
 Symbolic Z-matrix:
 Charge =  0 Multiplicity = 1

                         Standard orientation:
 ---------------------------------------------------------------------
 Center     Atomic      Atomic             Coordinates (Angstroms)
 Number     Number       Type             X           Y           Z
 ---------------------------------------------------------------------
      1          6           0        0.998752    0.679922   -0.001949
      2          6           0        0.970490   -0.617294   -0.003461
      3          8           0       -0.401906   -1.116253   -0.007436
      4          6           0       -1.112923    0.025511    0.003450
      5          6           0       -0.424883    1.084749   -0.002005
      6          1           0       -0.759060    2.137273    0.008006
      7          1           0       -2.161964   -0.160181    0.024412
      8          1           0        1.666415   -1.403271    0.051075
      9          1           0        1.881249    1.318878   -0.000214
 ---------------------------------------------------------------------

 SCF Done:  E(RAM1) =   1.48270607462     A.U. after   14 cycles

 Excitation energies and oscillator strengths:

 Excited State   1:      Singlet-A      5.1820 eV  239.26 nm  f=0.0004  <S**2>=0.000
      13 -> 15         0.68723
 This state for optimization and/or second-order correction.
 Total Energy, E(CIS) =   1.67314064094
 Copying the excited state density for this state as the 1-particle RhoCI density.

 Excited State   2:      Singlet-A      5.5175 eV  224.71 nm  f=0.2938  <S**2>=0.000
      13 -> 14         0.69110

 Excited State   3:      Singlet-A      6.0653 eV  204.42 nm  f=0.0010  <S**2>=0.000
      11 -> 16        -0.10632
      13 -> 16         0.66534
      13 -> 18         0.11869
      13 -> 21        -0.14127

 Excited State   4:      Singlet-A      7.1359 eV  173.75 nm  f=0.0004  <S**2>=0.000
      12 -> 14         0.68773

 Excited State   5:      Singlet-A      7.2012 eV  172.17 nm  f=0.0039  <S**2>=0.000
      13 -> 16        -0.13259
      13 -> 18         0.64452
      13 -> 19         0.15979
      13 -> 22         0.12017

 Excited State   6:      Singlet-A      7.4772 eV  165.82 nm  f=0.0013  <S**2>=0.000
      13 -> 18        -0.20438
      13 -> 19         0.42656
      13 -> 20        -0.25333
      13 -> 21        -0.25391
      13 -> 22         0.33493

 Excited State   7:      Singlet-A      7.5541 eV  164.13 nm  f=0.0576  <S**2>=0.000
      11 -> 14        -0.23587
      13 -> 17         0.65311

 Excited State   8:      Singlet-A      8.1373 eV  152.37 nm  f=0.0006  <S**2>=0.000
      13 -> 19         0.47097
      13 -> 20         0.38966
      13 -> 21         0.31488

 Excited State   9:      Singlet-A      8.3669 eV  148.18 nm  f=0.0100  <S**2>=0.000
      10 -> 14         0.17488
      13 -> 19        -0.20042
      13 -> 20         0.45807
      13 -> 21        -0.23483
      13 -> 22         0.37177

 Excited State  10:      Singlet-A      8.5644 eV  144.77 nm  f=0.0028  <S**2>=0.000
      10 -> 14         0.66421
      13 -> 20        -0.10189
      13 -> 22        -0.16453

 Excited State  11:      Singlet-A      8.7061 eV  142.41 nm  f=0.0235  <S**2>=0.000
      10 -> 14         0.10357
      11 -> 15         0.15277
      13 -> 19        -0.13436
      13 -> 20        -0.14118
      13 -> 21         0.43803
      13 -> 22         0.41630
      13 -> 23        -0.20683

 Excited State  12:      Singlet-A      8.8570 eV  139.98 nm  f=0.0820  <S**2>=0.000
       8 -> 15        -0.14258
       9 -> 15         0.12920
      11 -> 14        -0.22970
      12 -> 15         0.58119
      12 -> 16        -0.10290
      13 -> 17        -0.12423

 Excited State  13:      Singlet-A      9.0994 eV  136.26 nm  f=0.0075  <S**2>=0.000
       7 -> 15        -0.13191
      11 -> 14         0.12078
      11 -> 15         0.62927
      13 -> 20         0.10893
      13 -> 22        -0.11515

 Excited State  14:      Singlet-A      9.1329 eV  135.76 nm  f=0.1907  <S**2>=0.000
       8 -> 16        -0.11475
      11 -> 14         0.52950
      11 -> 15        -0.15032
      12 -> 15         0.15756
      12 -> 16        -0.27360
      13 -> 17         0.18697

 Excited State  15:      Singlet-A      9.5011 eV  130.49 nm  f=0.0668  <S**2>=0.000
      11 -> 16         0.11119
      13 -> 20        -0.10803
      13 -> 21         0.19134
      13 -> 23         0.64244

 The electronic state is 1-A.
 Alpha  occ. eigenvalues --   -1.88368  -1.19981  -0.97232  -0.78624  -0.76791
 Alpha  occ. eigenvalues --   -0.68064  -0.61988  -0.48539  -0.46856  -0.39654
 Alpha  occ. eigenvalues --   -0.37271  -0.35218  -0.21448
 Alpha virt. eigenvalues --    0.18758   0.20345   0.24045   0.28259   0.30302
 Alpha virt. eigenvalues --    0.31831   0.34661   0.35422   0.36812   0.39717
 Alpha virt. eigenvalues --    0.43578

 Mulliken charges:
               1
     1  C   -0.033011
     2  C   -1.451491
     3  O    2.715975
     4  C   -1.452597
     5  C   -0.145239
     6  H    0.056072
     7  H    0.139095
     8  H    0.119182
     9  H    0.052014
 Sum of Mulliken charges =   0.00000

 Dipole moment (field-independent basis, Debye):
    X=             -3.9189    Y=             -9.9211    Z=              0.0139  Tot=             10.6670
 N-N= 1.037266281251D+02 E-N=-1.702262238884D+02  KE=-1.586093211664D+01
 Orbital energies and kinetic energies (alpha):
                                 1                 2
   1         O                -1.883681         -1.363710
   2         O                -1.199813         -1.085002
   3         O                -0.972323         -0.910466
   4         O                -0.786239         -0.641412
   5         O                -0.767908         -0.688996
   6         O                -0.680637         -0.611085
   7         O                -0.619885         -0.548520

 Normal termination of Gaussian 09 at Tue Dec 15 17:08:10 2015.
