 Gaussian 09, Revision D.01,
 Gaussian 09:  ES64L-G09RevD.01 24-Apr-2013

 ------------------------------------------------------------
 #P AM1(Input,print) CIS(Singlets,NStates=15) pop(full) force
 ------------------------------------------------------------

 -----------------
 AM1-Reparam Input
 -----------------
 Symbolic Z-matrix:
 Charge =  0 Multiplicity = 1

                         Standard orientation:
 ---------------------------------------------------------------------
 Center     Atomic      Atomic             Coordinates (Angstroms)
 Number     Number       Type             X           Y           Z
 ---------------------------------------------------------------------
      1          6           0       -0.641123    1.005779   -0.031384
      2          6           0       -1.129898   -0.283423    0.038843
      3          8           0       -0.049575   -1.188788   -0.025569
      4          6           0        1.067270   -0.347998    0.002481
      5          6           0        0.740796    0.891495    0.010900
      6          1           0        1.483228    1.728144    0.013694
      7          1           0        2.054875   -0.910209    0.044960
      8          1           0       -2.029750   -0.737221    0.024056
      9          1           0       -1.334025    1.834473   -0.003191
 ---------------------------------------------------------------------

 SCF Done:  E(RAM1) =  0.332644066999E-01 A.U. after   13 cycles

 Excitation energies and oscillator strengths:

 Excited State   1:      Singlet-A      4.4090 eV  281.21 nm  f=0.1045  <S**2>=0.000
      12 -> 15         0.16245
      13 -> 14         0.67829
 This state for optimization and/or second-order correction.
 Total Energy, E(CIS) =  0.195293052014
 Copying the excited state density for this state as the 1-particle RhoCI density.

 Excited State   2:      Singlet-A      5.1510 eV  240.70 nm  f=0.0025  <S**2>=0.000
      12 -> 14         0.22926
      13 -> 15        -0.34133
      13 -> 16         0.55130

 Excited State   3:      Singlet-A      5.2538 eV  235.99 nm  f=0.0028  <S**2>=0.000
      12 -> 14        -0.37154
      13 -> 15         0.43287
      13 -> 16         0.39867

 Excited State   4:      Singlet-A      5.8445 eV  212.14 nm  f=0.0013  <S**2>=0.000
      12 -> 18         0.12779
      13 -> 17         0.20852
      13 -> 18         0.47321
      13 -> 19         0.14206
      13 -> 20        -0.16714
      13 -> 21        -0.21950
      13 -> 22        -0.21792
      13 -> 23         0.14975

 Excited State   5:      Singlet-A      6.1041 eV  203.11 nm  f=0.0013  <S**2>=0.000
       7 -> 16        -0.20147
      12 -> 16         0.63264
      12 -> 22        -0.10848

 Excited State   6:      Singlet-A      6.3068 eV  196.59 nm  f=0.3412  <S**2>=0.000
      10 -> 16        -0.10472
      12 -> 14         0.50667
      13 -> 15         0.41518

 Excited State   7:      Singlet-A      6.3521 eV  195.19 nm  f=0.0011  <S**2>=0.000
      12 -> 18         0.10981
      12 -> 19        -0.13223
      12 -> 22         0.13327
      12 -> 23         0.10888
      12 -> 24         0.10587
      13 -> 17         0.17888
      13 -> 18        -0.25015
      13 -> 19         0.41752
      13 -> 22        -0.26186
      13 -> 23        -0.20074
      13 -> 24        -0.10282

 Excited State   8:      Singlet-A      6.4922 eV  190.98 nm  f=0.0089  <S**2>=0.000
      12 -> 17        -0.10205
      13 -> 17         0.53745
      13 -> 19        -0.36709
      13 -> 23        -0.11619

 Excited State   9:      Singlet-A      6.7877 eV  182.66 nm  f=0.1133  <S**2>=0.000
      12 -> 15         0.66163
      13 -> 14        -0.14672

 Excited State  10:      Singlet-A      7.0704 eV  175.36 nm  f=0.0046  <S**2>=0.000
       9 -> 14        -0.29315
      10 -> 14         0.45560
      10 -> 15         0.11117
      11 -> 14        -0.31614
      11 -> 15        -0.19955

 Excited State  11:      Singlet-A      7.1731 eV  172.85 nm  f=0.0023  <S**2>=0.000
       7 -> 24         0.10264
      12 -> 17         0.38185
      12 -> 18         0.22126
      12 -> 19        -0.32664
      12 -> 20        -0.14695
      13 -> 17        -0.15141
      13 -> 19        -0.23759
      13 -> 20        -0.13265
      13 -> 22        -0.17832

 Excited State  12:      Singlet-A      7.4211 eV  167.07 nm  f=0.0004  <S**2>=0.000
       9 -> 14        -0.33464
       9 -> 15         0.18249
      10 -> 14         0.11433
      11 -> 14         0.35094
      11 -> 15        -0.13738
      12 -> 17         0.16226
      12 -> 18        -0.13760
      13 -> 18        -0.12140
      13 -> 19         0.13509
      13 -> 20        -0.23733
      13 -> 21         0.13436

 Excited State  13:      Singlet-A      7.4636 eV  166.12 nm  f=0.0023  <S**2>=0.000
       9 -> 14        -0.16375
       9 -> 15         0.15792
      11 -> 14         0.27914
      12 -> 17        -0.22777
      12 -> 19        -0.19389
      12 -> 20         0.13953
      12 -> 22         0.15180
      12 -> 23         0.12156
      13 -> 17        -0.10104
      13 -> 18         0.22092
      13 -> 20         0.19149
      13 -> 22        -0.13187
      13 -> 24        -0.25051

 Excited State  14:      Singlet-A      7.6064 eV  163.00 nm  f=0.0025  <S**2>=0.000
      10 -> 14         0.10700
      11 -> 14         0.21917
      12 -> 18         0.37042
      12 -> 24        -0.11160
      13 -> 18        -0.13168
      13 -> 20         0.21821
      13 -> 21        -0.28128
      13 -> 22         0.24391
      13 -> 24         0.12372

 Excited State  15:      Singlet-A      7.7102 eV  160.80 nm  f=0.0013  <S**2>=0.000
       9 -> 14         0.31860
       9 -> 15        -0.12288
      10 -> 14         0.42527
      11 -> 14         0.22817
      12 -> 19         0.10264
      12 -> 20         0.14330
      13 -> 17        -0.15619
      13 -> 22        -0.15016

 The electronic state is 1-A.
 Alpha  occ. eigenvalues --   -1.55167  -1.24590  -1.10021  -0.82770  -0.80327
 Alpha  occ. eigenvalues --   -0.68092  -0.58900  -0.55424  -0.51133  -0.50373
 Alpha  occ. eigenvalues --   -0.50096  -0.40665  -0.34885
 Alpha virt. eigenvalues --    0.02551   0.07038   0.10086   0.13378   0.14268
 Alpha virt. eigenvalues --    0.15437   0.17549   0.18015   0.19207   0.20800
 Alpha virt. eigenvalues --    0.21619

 Mulliken charges:
               1
     1  C   -0.187022
     2  C   -0.099281
     3  O   -0.116137
     4  C   -0.089974
     5  C   -0.186581
     6  H    0.157255
     7  H    0.186292
     8  H    0.176177
     9  H    0.159270
 Sum of Mulliken charges =   0.00000

 Dipole moment (field-independent basis, Debye):
    X=              0.1555    Y=              0.6024    Z=              0.0696  Tot=              0.6261
 N-N= 1.034538884960D+02 E-N=-1.710568634194D+02  KE=-1.653553764755D+01
 Orbital energies and kinetic energies (alpha):
                                 1                 2
   1         O                -1.551667         -1.316848
   2         O                -1.245905         -1.047052
   3         O                -1.100209         -0.962749
   4         O                -0.827695         -0.727934
   5         O                -0.803271         -0.696088
   6         O                -0.680921         -0.602701
   7         O                -0.589001         -0.482031

 Normal termination of Gaussian 09 at Tue Dec 15 16:28:09 2015.
