 Gaussian 09, Revision D.01,
 Gaussian 09:  ES64L-G09RevD.01 24-Apr-2013

 ------------------------------------------------------------
 #P AM1(Input,print) CIS(Singlets,NStates=15) pop(full) force
 ------------------------------------------------------------

 -----------------
 AM1-Reparam Input
 -----------------
 Symbolic Z-matrix:
 Charge =  0 Multiplicity = 1

                         Standard orientation:
 ---------------------------------------------------------------------
 Center     Atomic      Atomic             Coordinates (Angstroms)
 Number     Number       Type             X           Y           Z
 ---------------------------------------------------------------------
      1          6           0       -0.585602    1.057473   -0.018000
      2          6           0       -1.120263   -0.201910    0.019622
      3          8           0       -0.163898   -1.148734   -0.002021
      4          6           0        1.014724   -0.518693   -0.021482
      5          6           0        0.875538    0.862879    0.004002
      6          1           0        1.588808    1.641524    0.066881
      7          1           0        1.873576   -1.106909    0.044213
      8          1           0       -2.169753   -0.487836    0.012103
      9          1           0       -1.087835    1.944592   -0.011880
 ---------------------------------------------------------------------

 SCF Done:  E(RAM1) =   2.02680361274     A.U. after   13 cycles

 Excitation energies and oscillator strengths:

 Excited State   1:      Singlet-A      5.2727 eV  235.14 nm  f=0.3624  <S**2>=0.000
      13 -> 14         0.69649
 This state for optimization and/or second-order correction.
 Total Energy, E(CIS) =   2.22057238396
 Copying the excited state density for this state as the 1-particle RhoCI density.

 Excited State   2:      Singlet-A      6.6458 eV  186.56 nm  f=0.0006  <S**2>=0.000
      12 -> 14         0.69741

 Excited State   3:      Singlet-A      6.8223 eV  181.73 nm  f=0.0168  <S**2>=0.000
      13 -> 15         0.63584
      13 -> 16         0.19187
      13 -> 17         0.21147

 Excited State   4:      Singlet-A      6.8446 eV  181.14 nm  f=0.0001  <S**2>=0.000
      13 -> 15        -0.18563
      13 -> 16         0.57645
      13 -> 18        -0.33267

 Excited State   5:      Singlet-A      7.8667 eV  157.61 nm  f=0.0080  <S**2>=0.000
      10 -> 14         0.68541
      11 -> 14         0.11786

 Excited State   6:      Singlet-A      7.8974 eV  156.99 nm  f=0.0003  <S**2>=0.000
      11 -> 15         0.10815
      13 -> 16        -0.25320
      13 -> 18        -0.38694
      13 -> 19         0.49932

 Excited State   7:      Singlet-A      8.5876 eV  144.38 nm  f=0.1357  <S**2>=0.000
      10 -> 14        -0.11725
      11 -> 14         0.68678

 Excited State   8:      Singlet-A      8.8586 eV  139.96 nm  f=0.0223  <S**2>=0.000
      11 -> 16         0.16151
      13 -> 15        -0.18544
      13 -> 17         0.64271

 Excited State   9:      Singlet-A      9.0919 eV  136.37 nm  f=0.0009  <S**2>=0.000
      11 -> 15        -0.13755
      13 -> 16         0.18517
      13 -> 18         0.43614
      13 -> 19         0.48061

 Excited State  10:      Singlet-A      9.5355 eV  130.02 nm  f=0.0593  <S**2>=0.000
       9 -> 16         0.10818
      10 -> 15         0.22946
      10 -> 17         0.18245
      12 -> 16         0.39768
      12 -> 18        -0.36681
      12 -> 19         0.24635

 Excited State  11:      Singlet-A      9.7081 eV  127.71 nm  f=0.0104  <S**2>=0.000
      13 -> 18        -0.13555
      13 -> 20         0.66018
      13 -> 21        -0.18971

 Excited State  12:      Singlet-A     10.0185 eV  123.76 nm  f=0.0564  <S**2>=0.000
      13 -> 20         0.18826
      13 -> 21         0.65998

 Excited State  13:      Singlet-A     10.0892 eV  122.89 nm  f=0.0065  <S**2>=0.000
      10 -> 16        -0.16506
      10 -> 18         0.12519
      11 -> 15        -0.11798
      12 -> 15         0.59714
      12 -> 17         0.21697

 Excited State  14:      Singlet-A     10.2599 eV  120.84 nm  f=0.0452  <S**2>=0.000
      10 -> 15         0.13828
      11 -> 15         0.56688
      11 -> 16         0.12230
      11 -> 17         0.13856
      12 -> 15         0.12680
      12 -> 16        -0.17099
      13 -> 16         0.12969

 Excited State  15:      Singlet-A     10.3557 eV  119.73 nm  f=0.1637  <S**2>=0.000
       9 -> 16         0.10500
      10 -> 15         0.40492
      10 -> 17         0.18695
      11 -> 15        -0.22599
      12 -> 16        -0.39600
      12 -> 19         0.18011

 The electronic state is 1-A.
 Alpha  occ. eigenvalues --   -1.94350  -1.18795  -0.95717  -0.82780  -0.78733
 Alpha  occ. eigenvalues --   -0.69411  -0.65018  -0.55161  -0.53883  -0.45630
 Alpha  occ. eigenvalues --   -0.44371  -0.41835  -0.29759
 Alpha virt. eigenvalues --    0.09838   0.18995   0.19714   0.25912   0.26371
 Alpha virt. eigenvalues --    0.28498   0.30254   0.31122   0.37054   0.45780
 Alpha virt. eigenvalues --    0.50411

 Mulliken charges:
               1
     1  C   -0.192654
     2  C   -2.023476
     3  O    3.181443
     4  C   -2.019727
     5  C   -0.198520
     6  H    0.252337
     7  H    0.369944
     8  H    0.382574
     9  H    0.248079
 Sum of Mulliken charges =   0.00000

 Dipole moment (field-independent basis, Debye):
    X=             -1.5785    Y=             -9.7079    Z=              0.1857  Tot=              9.8372
 N-N= 1.043512421951D+02 E-N=-1.696350042627D+02  KE=-1.550499756536D+01
 Orbital energies and kinetic energies (alpha):
                                 1                 2
   1         O                -1.943498         -1.398558
   2         O                -1.187954         -1.061517
   3         O                -0.957173         -0.866758
   4         O                -0.827800         -0.607767
   5         O                -0.787327         -0.680762
   6         O                -0.694108         -0.572326
   7         O                -0.650184         -0.515242

 Normal termination of Gaussian 09 at Tue Dec 15 17:07:21 2015.
