 Gaussian 09, Revision D.01,
 Gaussian 09:  ES64L-G09RevD.01 24-Apr-2013

 ------------------------------------------------------------
 #P AM1(Input,print) CIS(Singlets,NStates=15) pop(full) force
 ------------------------------------------------------------

 -----------------
 AM1-Reparam Input
 -----------------
 Symbolic Z-matrix:
 Charge =  0 Multiplicity = 1

                         Standard orientation:
 ---------------------------------------------------------------------
 Center     Atomic      Atomic             Coordinates (Angstroms)
 Number     Number       Type             X           Y           Z
 ---------------------------------------------------------------------
      1          6           0        1.167013   -0.258812   -0.004737
      2          6           0        0.108758   -1.117973   -0.004070
      3          8           0       -1.113809   -0.441459    0.003735
      4          6           0       -0.706110    0.856629    0.002176
      5          6           0        0.623408    0.998950   -0.000937
      6          1           0        1.147896    1.909734    0.006692
      7          1           0       -1.591595    1.537298   -0.015170
      8          1           0       -0.026602   -2.201753    0.001494
      9          1           0        2.222362   -0.586368    0.022516
 ---------------------------------------------------------------------

 SCF Done:  E(RAM1) =   2.62370877210     A.U. after   13 cycles

 Excitation energies and oscillator strengths:

 Excited State   1:      Singlet-A      5.3443 eV  231.99 nm  f=0.3373  <S**2>=0.000
      13 -> 14         0.69711
 This state for optimization and/or second-order correction.
 Total Energy, E(CIS) =   2.82010869252
 Copying the excited state density for this state as the 1-particle RhoCI density.

 Excited State   2:      Singlet-A      6.0930 eV  203.49 nm  f=0.0003  <S**2>=0.000
      10 -> 15         0.10409
      13 -> 15         0.66983
      13 -> 19         0.11929

 Excited State   3:      Singlet-A      6.4964 eV  190.85 nm  f=0.0016  <S**2>=0.000
      10 -> 16        -0.10391
      13 -> 16         0.66764
      13 -> 18        -0.11574

 Excited State   4:      Singlet-A      6.8503 eV  180.99 nm  f=0.0001  <S**2>=0.000
      12 -> 14         0.69939

 Excited State   5:      Singlet-A      7.3637 eV  168.37 nm  f=0.0047  <S**2>=0.000
      11 -> 14         0.69480

 Excited State   6:      Singlet-A      8.0791 eV  153.46 nm  f=0.0000  <S**2>=0.000
      13 -> 17         0.66627
      13 -> 21        -0.12348

 Excited State   7:      Singlet-A      8.5973 eV  144.21 nm  f=0.0981  <S**2>=0.000
      10 -> 14         0.69001

 Excited State   8:      Singlet-A      9.0282 eV  137.33 nm  f=0.0126  <S**2>=0.000
      10 -> 15         0.34743
      10 -> 16        -0.15585
      13 -> 18         0.57019

 Excited State   9:      Singlet-A      9.1629 eV  135.31 nm  f=0.0431  <S**2>=0.000
       9 -> 15        -0.12382
       9 -> 16        -0.14433
      11 -> 15         0.10195
      11 -> 16         0.16855
      11 -> 18        -0.15627
      12 -> 15         0.49627
      12 -> 16        -0.22267
      12 -> 17        -0.24028

 Excited State  10:      Singlet-A      9.4022 eV  131.87 nm  f=0.0075  <S**2>=0.000
      10 -> 15        -0.15485
      10 -> 16        -0.31299
      11 -> 16         0.10418
      13 -> 17         0.12817
      13 -> 19         0.56187

 Excited State  11:      Singlet-A      9.4514 eV  131.18 nm  f=0.1890  <S**2>=0.000
       8 -> 15        -0.11445
      11 -> 15        -0.37735
      11 -> 16        -0.21784
      11 -> 18         0.17252
      12 -> 15         0.38702
      12 -> 16         0.13659
      12 -> 17         0.15795
      12 -> 18        -0.12144
      13 -> 19         0.10833

 Excited State  12:      Singlet-A      9.7548 eV  127.10 nm  f=0.1347  <S**2>=0.000
      11 -> 15        -0.26928
      11 -> 16         0.46131
      11 -> 18        -0.10855
      11 -> 19        -0.16619
      12 -> 16         0.34153
      12 -> 17        -0.12901

 Excited State  13:      Singlet-A      9.7919 eV  126.62 nm  f=0.0002  <S**2>=0.000
      10 -> 15         0.53910
      13 -> 15        -0.17058
      13 -> 18        -0.29202
      13 -> 19         0.24322

 Excited State  14:      Singlet-A     10.0708 eV  123.11 nm  f=0.0229  <S**2>=0.000
       8 -> 16         0.13426
       9 -> 15        -0.27289
       9 -> 16         0.12401
      11 -> 15         0.27827
      11 -> 17         0.18110
      11 -> 19         0.13372
      12 -> 15         0.13274
      12 -> 16         0.43657

 Excited State  15:      Singlet-A     10.1229 eV  122.48 nm  f=0.0014  <S**2>=0.000
      10 -> 16         0.55132
      13 -> 16         0.16922
      13 -> 18         0.23157
      13 -> 19         0.27833

 The electronic state is 1-A.
 Alpha  occ. eigenvalues --   -1.84177  -1.14108  -0.86065  -0.78903  -0.75158
 Alpha  occ. eigenvalues --   -0.65807  -0.62757  -0.55013  -0.52852  -0.43312
 Alpha  occ. eigenvalues --   -0.42614  -0.41548  -0.29334
 Alpha virt. eigenvalues --    0.11139   0.16040   0.17994   0.26832   0.28428
 Alpha virt. eigenvalues --    0.30606   0.37216   0.42729   0.47189   0.55717
 Alpha virt. eigenvalues --    0.58151

 Mulliken charges:
               1
     1  C   -0.159430
     2  C   -1.974086
     3  O    3.424666
     4  C   -1.971414
     5  C   -0.197762
     6  H    0.183586
     7  H    0.258701
     8  H    0.251986
     9  H    0.183752
 Sum of Mulliken charges =   0.00000

 Dipole moment (field-independent basis, Debye):
    X=            -11.6689    Y=             -4.4707    Z=              0.0756  Tot=             12.4963
 N-N= 1.040704539860D+02 E-N=-1.698891171181D+02  KE=-1.437140292481D+01
 Orbital energies and kinetic energies (alpha):
                                 1                 2
   1         O                -1.841772         -1.233176
   2         O                -1.141076         -0.997159
   3         O                -0.860650         -0.788673
   4         O                -0.789031         -0.540460
   5         O                -0.751579         -0.600026
   6         O                -0.658073         -0.561362
   7         O                -0.627568         -0.502702

 Normal termination of Gaussian 09 at Tue Dec 15 17:07:33 2015.
