 Gaussian 09, Revision D.01,
 Gaussian 09:  ES64L-G09RevD.01 24-Apr-2013

 ------------------------------------------------------------
 #P AM1(Input,print) CIS(Singlets,NStates=15) pop(full) force
 ------------------------------------------------------------

 -----------------
 AM1-Reparam Input
 -----------------
 Symbolic Z-matrix:
 Charge =  0 Multiplicity = 1

                         Standard orientation:
 ---------------------------------------------------------------------
 Center     Atomic      Atomic             Coordinates (Angstroms)
 Number     Number       Type             X           Y           Z
 ---------------------------------------------------------------------
      1          6           0       -1.151780    0.428735   -0.051436
      2          6           0       -0.731541   -0.889562    0.041920
      3          8           0        0.676392   -0.968070   -0.012975
      4          6           0        1.099382    0.333947   -0.022468
      5          6           0        0.067705    1.137959    0.042047
      6          1           0        0.142793    2.267538    0.026043
      7          1           0        2.179964    0.367783    0.010261
      8          1           0       -1.272615   -1.756239    0.021526
      9          1           0       -2.163874    0.799003   -0.014409
 ---------------------------------------------------------------------

 SCF Done:  E(RAM1) =   1.73453412246     A.U. after   14 cycles

 Excitation energies and oscillator strengths:

 Excited State   1:      Singlet-A      5.3774 eV  230.56 nm  f=0.3244  <S**2>=0.000
      13 -> 14         0.69231
 This state for optimization and/or second-order correction.
 Total Energy, E(CIS) =   1.93215131096
 Copying the excited state density for this state as the 1-particle RhoCI density.

 Excited State   2:      Singlet-A      6.1390 eV  201.96 nm  f=0.0005  <S**2>=0.000
      11 -> 15         0.12671
      13 -> 15         0.66827
      13 -> 17         0.11996

 Excited State   3:      Singlet-A      6.5974 eV  187.93 nm  f=0.0059  <S**2>=0.000
      11 -> 16        -0.10640
      13 -> 16         0.63053
      13 -> 17         0.20952
      13 -> 19         0.14877

 Excited State   4:      Singlet-A      6.9351 eV  178.78 nm  f=0.0038  <S**2>=0.000
      12 -> 14         0.68444
      13 -> 21         0.11058

 Excited State   5:      Singlet-A      7.5018 eV  165.27 nm  f=0.0042  <S**2>=0.000
      11 -> 16         0.11442
      13 -> 16        -0.20062
      13 -> 17         0.45854
      13 -> 18         0.12530
      13 -> 21         0.44185

 Excited State   6:      Singlet-A      7.7241 eV  160.52 nm  f=0.0116  <S**2>=0.000
      13 -> 15         0.13017
      13 -> 17        -0.44366
      13 -> 19         0.13706
      13 -> 20         0.20374
      13 -> 21         0.44980

 Excited State   7:      Singlet-A      8.2514 eV  150.26 nm  f=0.0051  <S**2>=0.000
      10 -> 14         0.65798
      11 -> 14        -0.14929
      13 -> 18        -0.10870

 Excited State   8:      Singlet-A      8.3307 eV  148.83 nm  f=0.0011  <S**2>=0.000
      13 -> 18         0.65563
      13 -> 20        -0.13057

 Excited State   9:      Singlet-A      8.5264 eV  145.41 nm  f=0.0041  <S**2>=0.000
      13 -> 16        -0.12435
      13 -> 18         0.15279
      13 -> 19         0.46200
      13 -> 20         0.39169
      13 -> 21        -0.24387

 Excited State  10:      Singlet-A      8.6812 eV  142.82 nm  f=0.0506  <S**2>=0.000
      10 -> 14         0.15926
      11 -> 14         0.62185
      12 -> 15         0.17933

 Excited State  11:      Singlet-A      8.8954 eV  139.38 nm  f=0.0872  <S**2>=0.000
      10 -> 14         0.10540
      13 -> 19        -0.44442
      13 -> 20         0.47394

 Excited State  12:      Singlet-A      9.2315 eV  134.30 nm  f=0.1517  <S**2>=0.000
       8 -> 15        -0.13857
      10 -> 17        -0.12106
      11 -> 14        -0.18991
      12 -> 15         0.50395
      12 -> 16        -0.18435
      12 -> 18         0.12932
      12 -> 21        -0.16607
      13 -> 19         0.11631
      13 -> 20        -0.13325

 Excited State  13:      Singlet-A      9.4630 eV  131.02 nm  f=0.0478  <S**2>=0.000
      10 -> 15         0.18241
      10 -> 17         0.18304
      10 -> 21        -0.12401
      11 -> 15         0.14265
      12 -> 15         0.35041
      12 -> 16         0.30118
      12 -> 17         0.28578
      12 -> 21         0.14788

 Excited State  14:      Singlet-A      9.6400 eV  128.61 nm  f=0.0258  <S**2>=0.000
       7 -> 15        -0.13040
      11 -> 15         0.62119
      11 -> 16         0.11102
      11 -> 17         0.10955
      12 -> 15        -0.12991
      13 -> 15        -0.13624

 Excited State  15:      Singlet-A      9.8551 eV  125.81 nm  f=0.2583  <S**2>=0.000
       8 -> 16         0.12220
       9 -> 16         0.13967
      10 -> 19         0.11634
      12 -> 16         0.34883
      12 -> 17        -0.29165
      12 -> 18         0.25163
      12 -> 19         0.31580

 The electronic state is 1-A.
 Alpha  occ. eigenvalues --   -1.90489  -1.22445  -0.99262  -0.81552  -0.80924
 Alpha  occ. eigenvalues --   -0.68439  -0.62744  -0.53495  -0.51795  -0.43455
 Alpha  occ. eigenvalues --   -0.41670  -0.39159  -0.27136
 Alpha virt. eigenvalues --    0.13485   0.17350   0.21112   0.25319   0.27420
 Alpha virt. eigenvalues --    0.29114   0.29531   0.30271   0.34730   0.44106
 Alpha virt. eigenvalues --    0.48097

 Mulliken charges:
               1
     1  C   -0.117449
     2  C   -1.953122
     3  O    3.176695
     4  C   -1.886188
     5  C   -0.137134
     6  H    0.167941
     7  H    0.277230
     8  H    0.295276
     9  H    0.176751
 Sum of Mulliken charges =   0.00000

 Dipole moment (field-independent basis, Debye):
    X=              6.4738    Y=             -8.7944    Z=             -0.2748  Tot=             10.9237
 N-N= 1.037836295888D+02 E-N=-1.691237001200D+02  KE=-1.572313702676D+01
 Orbital energies and kinetic energies (alpha):
                                 1                 2
   1         O                -1.904895         -1.358579
   2         O                -1.224450         -1.105518
   3         O                -0.992622         -0.918602
   4         O                -0.815524         -0.667921
   5         O                -0.809243         -0.670988
   6         O                -0.684390         -0.582940
   7         O                -0.627444         -0.513463

 Normal termination of Gaussian 09 at Tue Dec 15 17:06:54 2015.
