 Gaussian 09, Revision D.01,
 Gaussian 09:  ES64L-G09RevD.01 24-Apr-2013

 ------------------------------------------------------------
 #P AM1(Input,print) CIS(Singlets,NStates=15) pop(full) force
 ------------------------------------------------------------

 -----------------
 AM1-Reparam Input
 -----------------
 Symbolic Z-matrix:
 Charge =  0 Multiplicity = 1

                         Standard orientation:
 ---------------------------------------------------------------------
 Center     Atomic      Atomic             Coordinates (Angstroms)
 Number     Number       Type             X           Y           Z
 ---------------------------------------------------------------------
      1          6           0       -0.255349    1.154326   -0.018917
      2          6           0       -1.171603    0.043826    0.001751
      3          8           0       -0.444608   -1.028435    0.007647
      4          6           0        0.888982   -0.700744   -0.033743
      5          6           0        0.990899    0.587051    0.036535
      6          1           0        1.995673    1.179372   -0.013098
      7          1           0        1.550679   -1.601472    0.026153
      8          1           0       -2.157597    0.016672    0.021472
      9          1           0       -0.549466    2.126148   -0.009459
 ---------------------------------------------------------------------

 SCF Done:  E(RAM1) =   2.14272216512     A.U. after   14 cycles

 Excitation energies and oscillator strengths:

 Excited State   1:      Singlet-A      5.7862 eV  214.28 nm  f=0.3301  <S**2>=0.000
      13 -> 14         0.69182
 This state for optimization and/or second-order correction.
 Total Energy, E(CIS) =   2.35536151154
 Copying the excited state density for this state as the 1-particle RhoCI density.

 Excited State   2:      Singlet-A      6.7089 eV  184.80 nm  f=0.0047  <S**2>=0.000
      13 -> 15         0.54654
      13 -> 16         0.39805
      13 -> 17        -0.11913

 Excited State   3:      Singlet-A      6.9482 eV  178.44 nm  f=0.0020  <S**2>=0.000
      10 -> 15        -0.12277
      13 -> 15        -0.39537
      13 -> 16         0.54234
      13 -> 19         0.14753

 Excited State   4:      Singlet-A      7.3065 eV  169.69 nm  f=0.0010  <S**2>=0.000
      12 -> 14         0.69759

 Excited State   5:      Singlet-A      8.1048 eV  152.98 nm  f=0.0052  <S**2>=0.000
      10 -> 14        -0.14640
      11 -> 14         0.67141
      13 -> 17        -0.10298

 Excited State   6:      Singlet-A      8.4220 eV  147.21 nm  f=0.0009  <S**2>=0.000
      11 -> 14         0.10796
      13 -> 17         0.43447
      13 -> 18         0.41415
      13 -> 19        -0.12114
      13 -> 21         0.30769

 Excited State   7:      Singlet-A      8.7162 eV  142.25 nm  f=0.0065  <S**2>=0.000
      10 -> 16        -0.10901
      13 -> 15         0.10169
      13 -> 17         0.49457
      13 -> 18        -0.33580
      13 -> 19         0.26558
      13 -> 21        -0.17902

 Excited State   8:      Singlet-A      9.1071 eV  136.14 nm  f=0.0151  <S**2>=0.000
      10 -> 14         0.57975
      11 -> 14         0.12443
      11 -> 15         0.13074
      12 -> 15         0.15802
      12 -> 16        -0.15317
      12 -> 17         0.18118

 Excited State   9:      Singlet-A      9.4768 eV  130.83 nm  f=0.0062  <S**2>=0.000
      10 -> 16         0.19643
      13 -> 16        -0.10322
      13 -> 18         0.36954
      13 -> 19         0.46790
      13 -> 20        -0.14994
      13 -> 21        -0.19593

 Excited State  10:      Singlet-A      9.7206 eV  127.55 nm  f=0.1731  <S**2>=0.000
      11 -> 15        -0.13455
      11 -> 18        -0.10974
      12 -> 15         0.60772
      12 -> 17        -0.17818

 Excited State  11:      Singlet-A      9.7611 eV  127.02 nm  f=0.2301  <S**2>=0.000
       8 -> 15         0.10621
      10 -> 14         0.33917
      11 -> 15        -0.19137
      11 -> 17         0.12558
      11 -> 18        -0.10906
      12 -> 15        -0.24240
      12 -> 16         0.32023
      12 -> 17        -0.22360
      12 -> 18        -0.15477

 Excited State  12:      Singlet-A      9.9308 eV  124.85 nm  f=0.0045  <S**2>=0.000
      13 -> 17        -0.12535
      13 -> 18        -0.20257
      13 -> 19         0.32352
      13 -> 20        -0.12971
      13 -> 21         0.54731

 Excited State  13:      Singlet-A     10.1287 eV  122.41 nm  f=0.0618  <S**2>=0.000
      11 -> 15         0.13171
      11 -> 16         0.52653
      11 -> 19         0.11595
      12 -> 16         0.30511
      13 -> 20         0.16422

 Excited State  14:      Singlet-A     10.2296 eV  121.20 nm  f=0.0670  <S**2>=0.000
      10 -> 16         0.35741
      11 -> 16        -0.13903
      12 -> 16        -0.12426
      13 -> 20         0.51921

 Excited State  15:      Singlet-A     10.3554 eV  119.73 nm  f=0.0382  <S**2>=0.000
      10 -> 15         0.35301
      10 -> 16         0.34823
      13 -> 16         0.12702
      13 -> 18        -0.10213
      13 -> 19        -0.20880
      13 -> 20        -0.34063

 The electronic state is 1-A.
 Alpha  occ. eigenvalues --   -1.96120  -1.21365  -0.94780  -0.81971  -0.79433
 Alpha  occ. eigenvalues --   -0.69864  -0.67834  -0.57242  -0.54397  -0.45634
 Alpha  occ. eigenvalues --   -0.45018  -0.42122  -0.31185
 Alpha virt. eigenvalues --    0.11532   0.16929   0.18229   0.23952   0.26891
 Alpha virt. eigenvalues --    0.28596   0.30940   0.31783   0.33532   0.41144
 Alpha virt. eigenvalues --    0.46404

 Mulliken charges:
               1
     1  C   -0.208042
     2  C   -1.951486
     3  O    3.224426
     4  C   -1.864416
     5  C   -0.070042
     6  H    0.163188
     7  H    0.261924
     8  H    0.277270
     9  H    0.167178
 Sum of Mulliken charges =   0.00000

 Dipole moment (field-independent basis, Debye):
    X=             -3.2710    Y=             -9.3281    Z=              0.4663  Tot=              9.8960
 N-N= 1.049595535969D+02 E-N=-1.704798523325D+02  KE=-1.541450081665D+01
 Orbital energies and kinetic energies (alpha):
                                 1                 2
   1         O                -1.961197         -1.400289
   2         O                -1.213646         -1.054323
   3         O                -0.947802         -0.879436
   4         O                -0.819711         -0.582046
   5         O                -0.794335         -0.686527
   6         O                -0.698637         -0.590440
   7         O                -0.678341         -0.539493

 Normal termination of Gaussian 09 at Tue Dec 15 17:08:41 2015.
