 Gaussian 09, Revision D.01,
 Gaussian 09:  ES64L-G09RevD.01 24-Apr-2013

 ------------------------------------------------------------
 #P AM1(Input,print) CIS(Singlets,NStates=15) pop(full) force
 ------------------------------------------------------------

 -----------------
 AM1-Reparam Input
 -----------------
 Symbolic Z-matrix:
 Charge =  0 Multiplicity = 1

                         Standard orientation:
 ---------------------------------------------------------------------
 Center     Atomic      Atomic             Coordinates (Angstroms)
 Number     Number       Type             X           Y           Z
 ---------------------------------------------------------------------
      1          6           0        0.136899    1.145612    0.021080
      2          6           0       -1.020423    0.469537   -0.029252
      3          8           0       -0.771031   -0.829433    0.032619
      4          6           0        0.514860   -0.998840   -0.016891
      5          6           0        1.165948    0.247622   -0.024180
      6          1           0        2.287033    0.389486    0.061056
      7          1           0        0.891306   -1.977307   -0.014250
      8          1           0       -2.083258    0.774374   -0.043303
      9          1           0        0.289466    2.265327    0.031001
 ---------------------------------------------------------------------

 SCF Done:  E(RAM1) =   1.80043191140     A.U. after   14 cycles

 Excitation energies and oscillator strengths:

 Excited State   1:      Singlet-A      5.8654 eV  211.38 nm  f=0.3175  <S**2>=0.000
      13 -> 14         0.68512
 This state for optimization and/or second-order correction.
 Total Energy, E(CIS) =   2.01598088024
 Copying the excited state density for this state as the 1-particle RhoCI density.

 Excited State   2:      Singlet-A      7.0088 eV  176.90 nm  f=0.0093  <S**2>=0.000
      13 -> 15         0.65524
      13 -> 16        -0.17158
      13 -> 17        -0.14957

 Excited State   3:      Singlet-A      7.2919 eV  170.03 nm  f=0.0005  <S**2>=0.000
      10 -> 15         0.11850
      13 -> 15         0.17264
      13 -> 16         0.64233
      13 -> 19        -0.15642

 Excited State   4:      Singlet-A      7.6507 eV  162.06 nm  f=0.0016  <S**2>=0.000
      12 -> 14         0.69452

 Excited State   5:      Singlet-A      8.2481 eV  150.32 nm  f=0.0044  <S**2>=0.000
      10 -> 14         0.25992
      11 -> 14         0.64617

 Excited State   6:      Singlet-A      8.6453 eV  143.41 nm  f=0.0003  <S**2>=0.000
      13 -> 17         0.23272
      13 -> 18         0.59085
      13 -> 21         0.26416

 Excited State   7:      Singlet-A      9.1309 eV  135.79 nm  f=0.0783  <S**2>=0.000
      10 -> 14         0.62257
      11 -> 14        -0.24340
      12 -> 17         0.11862

 Excited State   8:      Singlet-A      9.2998 eV  133.32 nm  f=0.0073  <S**2>=0.000
      10 -> 16         0.19989
      13 -> 15         0.10273
      13 -> 17         0.60449
      13 -> 18        -0.23743

 Excited State   9:      Singlet-A      9.6992 eV  127.83 nm  f=0.1503  <S**2>=0.000
       8 -> 15         0.11271
       9 -> 16         0.14583
      10 -> 14        -0.13486
      10 -> 15         0.14233
      11 -> 15         0.29935
      11 -> 17        -0.14201
      11 -> 18         0.20711
      12 -> 15        -0.28321
      12 -> 16         0.19255
      12 -> 17         0.20631
      12 -> 18         0.20805
      13 -> 14         0.13984

 Excited State  10:      Singlet-A      9.8497 eV  125.88 nm  f=0.0003  <S**2>=0.000
      10 -> 15         0.28148
      13 -> 18         0.10375
      13 -> 19         0.59925

 Excited State  11:      Singlet-A     10.1362 eV  122.32 nm  f=0.0779  <S**2>=0.000
      12 -> 15         0.48398
      12 -> 16         0.42880
      12 -> 18         0.10050
      12 -> 19        -0.11186

 Excited State  12:      Singlet-A     10.3108 eV  120.25 nm  f=0.0528  <S**2>=0.000
      10 -> 15        -0.21834
      11 -> 15         0.40230
      11 -> 16        -0.38657
      11 -> 19         0.12584
      12 -> 16        -0.15658
      13 -> 16         0.11560
      13 -> 19         0.17251

 Excited State  13:      Singlet-A     10.3699 eV  119.56 nm  f=0.0601  <S**2>=0.000
      10 -> 15         0.46906
      10 -> 16        -0.22157
      11 -> 16        -0.16135
      12 -> 16        -0.28003
      13 -> 16        -0.13659
      13 -> 19        -0.17983
      13 -> 20        -0.10928

 Excited State  14:      Singlet-A     10.5927 eV  117.05 nm  f=0.0298  <S**2>=0.000
      10 -> 15        -0.11449
      10 -> 16        -0.26338
      11 -> 16         0.11472
      13 -> 18        -0.22133
      13 -> 19         0.14938
      13 -> 20        -0.35916
      13 -> 21         0.41928

 Excited State  15:      Singlet-A     10.6557 eV  116.35 nm  f=0.0703  <S**2>=0.000
       8 -> 16         0.15540
       9 -> 15         0.15488
      10 -> 16         0.26657
      11 -> 18        -0.11865
      12 -> 15         0.19476
      12 -> 16        -0.19010
      12 -> 17         0.22884
      12 -> 18         0.20622
      12 -> 19         0.18094
      12 -> 20        -0.12182
      13 -> 20         0.12629
      13 -> 21         0.22584

 The electronic state is 1-A.
 Alpha  occ. eigenvalues --   -2.02424  -1.28943  -1.00788  -0.90230  -0.85399
 Alpha  occ. eigenvalues --   -0.76918  -0.75887  -0.64003  -0.61666  -0.52386
 Alpha  occ. eigenvalues --   -0.51980  -0.50278  -0.39095
 Alpha virt. eigenvalues --    0.04526   0.10588   0.11219   0.18468   0.19336
 Alpha virt. eigenvalues --    0.21927   0.24105   0.26513   0.32429   0.40013
 Alpha virt. eigenvalues --    0.45790

 Mulliken charges:
               1
     1  C   -0.105854
     2  C   -1.910512
     3  O    3.165824
     4  C   -1.936684
     5  C   -0.125458
     6  H    0.163074
     7  H    0.289089
     8  H    0.296790
     9  H    0.163732
 Sum of Mulliken charges =   0.00000

 Dipole moment (field-independent basis, Debye):
    X=             -6.5917    Y=             -6.8769    Z=              0.7904  Tot=              9.5586
 N-N= 1.064409541148D+02 E-N=-1.719655643488D+02  KE=-1.571556503591D+01
 Orbital energies and kinetic energies (alpha):
                                 1                 2
   1         O                -2.024238         -1.429892
   2         O                -1.289434         -1.056252
   3         O                -1.007875         -0.859666
   4         O                -0.902301         -0.601881
   5         O                -0.853988         -0.699070
   6         O                -0.769175         -0.579006
   7         O                -0.758868         -0.589087

 Normal termination of Gaussian 09 at Tue Dec 15 17:09:08 2015.
