 Gaussian 09, Revision D.01,
 Gaussian 09:  ES64L-G09RevD.01 24-Apr-2013

 ------------------------------------------------------------
 #P AM1(Input,print) CIS(Singlets,NStates=15) pop(full) force
 ------------------------------------------------------------

 -----------------
 AM1-Reparam Input
 -----------------
 Symbolic Z-matrix:
 Charge =  0 Multiplicity = 1

                         Standard orientation:
 ---------------------------------------------------------------------
 Center     Atomic      Atomic             Coordinates (Angstroms)
 Number     Number       Type             X           Y           Z
 ---------------------------------------------------------------------
      1          6           0       -0.520978    1.102256   -0.031309
      2          6           0       -1.158001   -0.172240   -0.009191
      3          8           0       -0.207656   -1.147392    0.007263
      4          6           0        1.042012   -0.528583   -0.022241
      5          6           0        0.868888    0.809823    0.035096
      6          1           0        1.608042    1.564539    0.007360
      7          1           0        1.895582   -1.141840   -0.003126
      8          1           0       -2.203763   -0.517997    0.079096
      9          1           0       -1.030141    2.006900    0.024441
 ---------------------------------------------------------------------

 SCF Done:  E(RAM1) =   2.80184764517     A.U. after   13 cycles

 Excitation energies and oscillator strengths:

 Excited State   1:      Singlet-A      5.3935 eV  229.88 nm  f=0.3463  <S**2>=0.000
      13 -> 14         0.69499
 This state for optimization and/or second-order correction.
 Total Energy, E(CIS) =   3.00005532850
 Copying the excited state density for this state as the 1-particle RhoCI density.

 Excited State   2:      Singlet-A      6.6278 eV  187.07 nm  f=0.0050  <S**2>=0.000
      11 -> 15        -0.11511
      13 -> 15         0.62606
      13 -> 17         0.27162

 Excited State   3:      Singlet-A      6.8153 eV  181.92 nm  f=0.0013  <S**2>=0.000
       9 -> 14         0.11959
      12 -> 14         0.68418

 Excited State   4:      Singlet-A      6.9363 eV  178.75 nm  f=0.0024  <S**2>=0.000
      11 -> 16         0.11608
      13 -> 16         0.63281
      13 -> 18        -0.23908

 Excited State   5:      Singlet-A      7.7754 eV  159.46 nm  f=0.0080  <S**2>=0.000
      10 -> 14         0.65003
      13 -> 15        -0.10868
      13 -> 17         0.16998

 Excited State   6:      Singlet-A      7.9198 eV  156.55 nm  f=0.0008  <S**2>=0.000
      10 -> 14        -0.24815
      11 -> 15         0.13750
      13 -> 15        -0.17051
      13 -> 17         0.33761
      13 -> 18         0.26797
      13 -> 19        -0.26902
      13 -> 21        -0.33183

 Excited State   7:      Singlet-A      8.1629 eV  151.89 nm  f=0.0169  <S**2>=0.000
      11 -> 16        -0.12478
      13 -> 15        -0.14462
      13 -> 16        -0.12216
      13 -> 17         0.51204
      13 -> 18        -0.20216
      13 -> 19         0.24685
      13 -> 21         0.26283

 Excited State   8:      Singlet-A      8.5123 eV  145.65 nm  f=0.0995  <S**2>=0.000
      11 -> 14         0.68628

 Excited State   9:      Singlet-A      8.7443 eV  141.79 nm  f=0.0004  <S**2>=0.000
      13 -> 16         0.15422
      13 -> 18         0.47447
      13 -> 19         0.46317

 Excited State  10:      Singlet-A      9.2775 eV  133.64 nm  f=0.0019  <S**2>=0.000
      13 -> 18         0.27842
      13 -> 19        -0.34547
      13 -> 20         0.25406
      13 -> 21         0.47261

 Excited State  11:      Singlet-A      9.4582 eV  131.09 nm  f=0.0215  <S**2>=0.000
       8 -> 15         0.11642
       9 -> 18         0.12531
      10 -> 15        -0.12768
      10 -> 16        -0.14227
      10 -> 17        -0.22961
      12 -> 15         0.30101
      12 -> 16        -0.20742
      12 -> 17         0.15625
      12 -> 18         0.20294
      12 -> 19        -0.19166
      12 -> 21        -0.13484
      13 -> 20         0.24271

 Excited State  12:      Singlet-A      9.6227 eV  128.85 nm  f=0.0813  <S**2>=0.000
      12 -> 15        -0.13417
      13 -> 19         0.12286
      13 -> 20         0.59135
      13 -> 21        -0.22801

 Excited State  13:      Singlet-A      9.8266 eV  126.17 nm  f=0.0170  <S**2>=0.000
      10 -> 15         0.14714
      10 -> 17         0.10137
      11 -> 15         0.44087
      11 -> 17         0.10735
      12 -> 15         0.32438
      12 -> 16         0.24109
      12 -> 19         0.11277
      13 -> 15         0.13381

 Excited State  14:      Singlet-A      9.9131 eV  125.07 nm  f=0.0151  <S**2>=0.000
      10 -> 15        -0.24599
      11 -> 15         0.41839
      12 -> 15        -0.30690
      12 -> 16        -0.22775
      12 -> 17        -0.15863

 Excited State  15:      Singlet-A      9.9768 eV  124.27 nm  f=0.2086  <S**2>=0.000
       9 -> 14         0.12652
       9 -> 16        -0.10915
      10 -> 15        -0.29787
      10 -> 16        -0.16169
      10 -> 17        -0.18768
      12 -> 15        -0.13869
      12 -> 16         0.48387
      12 -> 19        -0.13866

 The electronic state is 1-A.
 Alpha  occ. eigenvalues --   -1.70235  -1.11233  -0.91228  -0.78936  -0.75146
 Alpha  occ. eigenvalues --   -0.66721  -0.62485  -0.54107  -0.49972  -0.43832
 Alpha  occ. eigenvalues --   -0.42681  -0.40571  -0.29117
 Alpha virt. eigenvalues --    0.11268   0.18236   0.19900   0.24393   0.27235
 Alpha virt. eigenvalues --    0.28387   0.30025   0.30298   0.36360   0.45213
 Alpha virt. eigenvalues --    0.49510

 Mulliken charges:
               1
     1  C   -0.155658
     2  C   -1.976331
     3  O    3.218867
     4  C   -1.948299
     5  C   -0.096738
     6  H    0.176663
     7  H    0.300014
     8  H    0.300499
     9  H    0.180984
 Sum of Mulliken charges =   0.00000

 Dipole moment (field-independent basis, Debye):
    X=             -1.7611    Y=            -10.2305    Z=              0.5616  Tot=             10.3962
 N-N= 1.034677832207D+02 E-N=-1.682669157310D+02  KE=-1.473971387288D+01
 Orbital energies and kinetic energies (alpha):
                                 1                 2
   1         O                -1.702346         -1.187838
   2         O                -1.112326         -0.988029
   3         O                -0.912278         -0.838549
   4         O                -0.789357         -0.601171
   5         O                -0.751457         -0.672478
   6         O                -0.667209         -0.583342
   7         O                -0.624852         -0.515564

 Normal termination of Gaussian 09 at Tue Dec 15 17:05:50 2015.
