 Gaussian 09, Revision D.01,
 Gaussian 09:  ES64L-G09RevD.01 24-Apr-2013

 ------------------------------------------------------------
 #P AM1(Input,print) CIS(Singlets,NStates=15) pop(full) force
 ------------------------------------------------------------

 -----------------
 AM1-Reparam Input
 -----------------
 Symbolic Z-matrix:
 Charge =  0 Multiplicity = 1

                         Standard orientation:
 ---------------------------------------------------------------------
 Center     Atomic      Atomic             Coordinates (Angstroms)
 Number     Number       Type             X           Y           Z
 ---------------------------------------------------------------------
      1          6           0        0.285540    1.128025   -0.022795
      2          6           0        1.182488    0.050844   -0.009044
      3          8           0        0.402109   -1.082291    0.000520
      4          6           0       -0.907967   -0.694371    0.000924
      5          6           0       -0.980951    0.676219    0.016464
      6          1           0       -1.943050    1.161635   -0.007027
      7          1           0       -1.636924   -1.524341   -0.014432
      8          1           0        2.254782   -0.096142    0.061871
      9          1           0        0.633659    2.152871    0.042130
 ---------------------------------------------------------------------

 SCF Done:  E(RAM1) =   2.57760831612     A.U. after   13 cycles

 Excitation energies and oscillator strengths:

 Excited State   1:      Singlet-A      5.4780 eV  226.33 nm  f=0.3210  <S**2>=0.000
      13 -> 14         0.69372
 This state for optimization and/or second-order correction.
 Total Energy, E(CIS) =   2.77892005417
 Copying the excited state density for this state as the 1-particle RhoCI density.

 Excited State   2:      Singlet-A      6.6151 eV  187.43 nm  f=0.0024  <S**2>=0.000
      10 -> 15         0.11387
      13 -> 15         0.66591
      13 -> 19        -0.10132

 Excited State   3:      Singlet-A      6.8334 eV  181.44 nm  f=0.0043  <S**2>=0.000
      12 -> 14         0.38586
      13 -> 16         0.55934
      13 -> 19         0.10074

 Excited State   4:      Singlet-A      6.9716 eV  177.84 nm  f=0.0013  <S**2>=0.000
      10 -> 14        -0.11498
      11 -> 14        -0.17150
      12 -> 14         0.54737
      13 -> 16        -0.36767

 Excited State   5:      Singlet-A      7.3137 eV  169.52 nm  f=0.0027  <S**2>=0.000
      10 -> 14         0.34110
      11 -> 14         0.57179
      12 -> 14         0.18936

 Excited State   6:      Singlet-A      8.3482 eV  148.52 nm  f=0.0003  <S**2>=0.000
      13 -> 17         0.67161
      13 -> 21        -0.12938

 Excited State   7:      Singlet-A      8.5242 eV  145.45 nm  f=0.1058  <S**2>=0.000
      10 -> 14         0.59712
      11 -> 14        -0.36303

 Excited State   8:      Singlet-A      9.2776 eV  133.64 nm  f=0.0952  <S**2>=0.000
       9 -> 15         0.11485
      10 -> 15         0.20861
      10 -> 17         0.10624
      11 -> 16         0.25312
      11 -> 17         0.13412
      11 -> 18        -0.11661
      12 -> 15         0.34856
      12 -> 16         0.20347
      12 -> 17        -0.16124
      12 -> 18        -0.14919
      13 -> 18         0.27976

 Excited State   9:      Singlet-A      9.3628 eV  132.42 nm  f=0.0553  <S**2>=0.000
      10 -> 15         0.20143
      10 -> 16        -0.22308
      11 -> 15        -0.24890
      12 -> 15        -0.18943
      12 -> 16        -0.14436
      12 -> 17         0.10933
      13 -> 18         0.46153

 Excited State  10:      Singlet-A      9.6346 eV  128.69 nm  f=0.0088  <S**2>=0.000
       7 -> 16         0.10778
      10 -> 15         0.21451
      10 -> 16         0.34299
      11 -> 15        -0.10556
      11 -> 16        -0.21765
      12 -> 15         0.11285
      12 -> 16        -0.16032
      13 -> 17        -0.12224
      13 -> 19         0.43431

 Excited State  11:      Singlet-A      9.7210 eV  127.54 nm  f=0.1060  <S**2>=0.000
      11 -> 15        -0.10634
      11 -> 16        -0.14344
      12 -> 15        -0.23069
      12 -> 16         0.56212
      12 -> 19         0.18514
      13 -> 19         0.15542

 Excited State  12:      Singlet-A      9.8316 eV  126.11 nm  f=0.1607  <S**2>=0.000
      10 -> 15         0.34934
      11 -> 15         0.54597
      11 -> 19        -0.10801
      12 -> 15        -0.11352

 Excited State  13:      Singlet-A     10.2283 eV  121.22 nm  f=0.0013  <S**2>=0.000
      10 -> 15         0.39642
      11 -> 15        -0.23952
      13 -> 15        -0.18735
      13 -> 18        -0.26065
      13 -> 19        -0.35590

 Excited State  14:      Singlet-A     10.3416 eV  119.89 nm  f=0.0339  <S**2>=0.000
       8 -> 15         0.14313
       8 -> 16        -0.11277
       9 -> 15         0.15662
      10 -> 15        -0.13977
      10 -> 16        -0.13247
      11 -> 16        -0.21642
      12 -> 15         0.25229
      12 -> 16         0.17424
      12 -> 17         0.43009
      12 -> 20        -0.11977

 Excited State  15:      Singlet-A     10.4559 eV  118.58 nm  f=0.0018  <S**2>=0.000
      10 -> 15        -0.11439
      10 -> 16         0.36789
      11 -> 16        -0.25343
      13 -> 16         0.17802
      13 -> 18         0.32563
      13 -> 19        -0.32656

 The electronic state is 1-A.
 Alpha  occ. eigenvalues --   -1.84191  -1.13718  -0.86713  -0.79260  -0.75081
 Alpha  occ. eigenvalues --   -0.66058  -0.63140  -0.56209  -0.55381  -0.44387
 Alpha  occ. eigenvalues --   -0.44075  -0.42980  -0.31703
 Alpha virt. eigenvalues --    0.09546   0.16337   0.17483   0.25431   0.27022
 Alpha virt. eigenvalues --    0.29252   0.35250   0.40520   0.48031   0.55487
 Alpha virt. eigenvalues --    0.59883

 Mulliken charges:
               1
     1  C   -0.184826
     2  C   -2.009006
     3  O    3.440981
     4  C   -2.008332
     5  C   -0.176079
     6  H    0.197577
     7  H    0.272866
     8  H    0.264992
     9  H    0.201827
 Sum of Mulliken charges =   0.00000

 Dipole moment (field-independent basis, Debye):
    X=              3.4972    Y=            -10.6346    Z=              0.1999  Tot=             11.1967
 N-N= 1.039152211013D+02 E-N=-1.694668876632D+02  KE=-1.435041667298D+01
 Orbital energies and kinetic energies (alpha):
                                 1                 2
   1         O                -1.841908         -1.240756
   2         O                -1.137182         -0.976567
   3         O                -0.867128         -0.784129
   4         O                -0.792597         -0.536374
   5         O                -0.750812         -0.610008
   6         O                -0.660581         -0.569155
   7         O                -0.631401         -0.499181

 Normal termination of Gaussian 09 at Tue Dec 15 17:07:39 2015.
