 Gaussian 09, Revision D.01,
 Gaussian 09:  ES64L-G09RevD.01 24-Apr-2013

 ------------------------------------------------------------
 #P AM1(Input,print) CIS(Singlets,NStates=15) pop(full) force
 ------------------------------------------------------------

 -----------------
 AM1-Reparam Input
 -----------------
 Symbolic Z-matrix:
 Charge =  0 Multiplicity = 1

                         Standard orientation:
 ---------------------------------------------------------------------
 Center     Atomic      Atomic             Coordinates (Angstroms)
 Number     Number       Type             X           Y           Z
 ---------------------------------------------------------------------
      1          6           0       -0.611481    1.018234   -0.012699
      2          6           0       -1.096582   -0.170793    0.015960
      3          8           0       -0.181562   -1.109748   -0.010608
      4          6           0        1.017743   -0.505011    0.001332
      5          6           0        0.894040    0.834652    0.013340
      6          1           0        1.602161    1.597933   -0.015683
      7          1           0        1.865715   -1.158445   -0.001804
      8          1           0       -2.192187   -0.563814    0.011929
      9          1           0       -1.045513    1.939813   -0.017174
 ---------------------------------------------------------------------

 SCF Done:  E(RAM1) =  0.432425620086E-01 A.U. after   13 cycles

 Excitation energies and oscillator strengths:

 Excited State   1:      Singlet-A      4.8801 eV  254.06 nm  f=0.0462  <S**2>=0.000
      12 -> 15         0.29588
      13 -> 14         0.63507
 This state for optimization and/or second-order correction.
 Total Energy, E(CIS) =  0.222582924624
 Copying the excited state density for this state as the 1-particle RhoCI density.

 Excited State   2:      Singlet-A      5.3601 eV  231.31 nm  f=0.0019  <S**2>=0.000
      12 -> 14        -0.45771
      13 -> 15         0.52800

 Excited State   3:      Singlet-A      5.4653 eV  226.86 nm  f=0.0001  <S**2>=0.000
      13 -> 16         0.65987
      13 -> 17        -0.13323
      13 -> 19        -0.11799
      13 -> 22         0.11165

 Excited State   4:      Singlet-A      5.8841 eV  210.71 nm  f=0.0019  <S**2>=0.000
       7 -> 16        -0.14818
      12 -> 16         0.63103
      12 -> 17        -0.12449
      12 -> 19        -0.11693
      12 -> 22         0.13434

 Excited State   5:      Singlet-A      6.1358 eV  202.07 nm  f=0.0151  <S**2>=0.000
      12 -> 14        -0.11221
      12 -> 15        -0.16522
      12 -> 18         0.18374
      12 -> 19         0.12799
      12 -> 21         0.14461
      13 -> 17         0.14419
      13 -> 18         0.40720
      13 -> 19         0.23638
      13 -> 21         0.22523
      13 -> 22         0.10773
      13 -> 23         0.17220

 Excited State   6:      Singlet-A      6.1980 eV  200.04 nm  f=0.1207  <S**2>=0.000
      11 -> 17        -0.10215
      12 -> 14         0.26671
      12 -> 15         0.48436
      13 -> 14        -0.20154
      13 -> 15         0.25951
      13 -> 18         0.12183
      13 -> 19         0.10693

 Excited State   7:      Singlet-A      6.3773 eV  194.42 nm  f=0.0329  <S**2>=0.000
      11 -> 14        -0.10642
      12 -> 14        -0.10021
      12 -> 15         0.15165
      12 -> 17        -0.12247
      13 -> 16         0.10085
      13 -> 17         0.57587
      13 -> 19        -0.14387

 Excited State   8:      Singlet-A      6.4181 eV  193.18 nm  f=0.1668  <S**2>=0.000
      12 -> 14         0.26292
      12 -> 15        -0.22495
      12 -> 17         0.10320
      12 -> 18         0.23299
      12 -> 19        -0.13252
      12 -> 21        -0.13231
      13 -> 14         0.11959
      13 -> 15         0.23140
      13 -> 17         0.24540
      13 -> 18        -0.15875
      13 -> 21         0.19092
      13 -> 23        -0.15396

 Excited State   9:      Singlet-A      6.4347 eV  192.68 nm  f=0.1963  <S**2>=0.000
      12 -> 14         0.29194
      12 -> 15        -0.23000
      12 -> 18        -0.23614
      12 -> 21         0.16352
      12 -> 23        -0.11439
      13 -> 14         0.11727
      13 -> 15         0.24789
      13 -> 18         0.21580
      13 -> 19        -0.12090
      13 -> 21        -0.21966
      13 -> 23         0.12033

 Excited State  10:      Singlet-A      6.6075 eV  187.64 nm  f=0.0047  <S**2>=0.000
      12 -> 17         0.56636
      12 -> 20         0.21760
      12 -> 23        -0.14931
      13 -> 19        -0.24405

 Excited State  11:      Singlet-A      7.1739 eV  172.83 nm  f=0.0009  <S**2>=0.000
       9 -> 14         0.26198
      11 -> 14         0.42522
      11 -> 15         0.44241

 Excited State  12:      Singlet-A      7.3917 eV  167.73 nm  f=0.0032  <S**2>=0.000
       9 -> 15        -0.20952
      10 -> 14        -0.27006
      11 -> 14        -0.36651
      11 -> 15         0.41405
      12 -> 20         0.10496
      13 -> 19         0.11484

 Excited State  13:      Singlet-A      7.5690 eV  163.81 nm  f=0.0006  <S**2>=0.000
      11 -> 15        -0.21054
      12 -> 20         0.35579
      12 -> 23        -0.13331
      13 -> 16         0.14770
      13 -> 18        -0.15520
      13 -> 19         0.43318
      13 -> 21        -0.12518
      13 -> 22        -0.12225

 Excited State  14:      Singlet-A      7.6721 eV  161.60 nm  f=0.0028  <S**2>=0.000
       9 -> 14         0.16924
       9 -> 15         0.12173
      10 -> 14         0.44792
      11 -> 14        -0.25766
      12 -> 18        -0.10549
      13 -> 20         0.30458
      13 -> 23        -0.16488

 Excited State  15:      Singlet-A      7.7267 eV  160.46 nm  f=0.0080  <S**2>=0.000
       9 -> 14        -0.16240
      10 -> 14        -0.20702
      11 -> 14         0.23387
      12 -> 18        -0.24269
      12 -> 19         0.17982
      13 -> 20         0.43175
      13 -> 21         0.13704
      13 -> 22         0.14007
      13 -> 23        -0.13112

 The electronic state is 1-A.
 Alpha  occ. eigenvalues --   -1.60324  -1.23856  -1.12053  -0.84576  -0.79914
 Alpha  occ. eigenvalues --   -0.69211  -0.62030  -0.56916  -0.51692  -0.50786
 Alpha  occ. eigenvalues --   -0.47936  -0.38762  -0.36063
 Alpha virt. eigenvalues --    0.04262   0.06340   0.09742   0.12482   0.15260
 Alpha virt. eigenvalues --    0.15965   0.17723   0.18808   0.19539   0.20905
 Alpha virt. eigenvalues --    0.23344

 Mulliken charges:
               1
     1  C   -0.226041
     2  C   -0.082549
     3  O   -0.073240
     4  C   -0.096892
     5  C   -0.212646
     6  H    0.162984
     7  H    0.183946
     8  H    0.190849
     9  H    0.153588
 Sum of Mulliken charges =   0.00000

 Dipole moment (field-independent basis, Debye):
    X=             -0.0351    Y=              0.1568    Z=             -0.0247  Tot=              0.1625
 N-N= 1.041771959367D+02 E-N=-1.721338470692D+02  KE=-1.665168621306D+01
 Orbital energies and kinetic energies (alpha):
                                 1                 2
   1         O                -1.603238         -1.338914
   2         O                -1.238565         -1.052481
   3         O                -1.120534         -0.972513
   4         O                -0.845758         -0.715007
   5         O                -0.799137         -0.716122
   6         O                -0.692110         -0.607452
   7         O                -0.620298         -0.499543

 Normal termination of Gaussian 09 at Tue Dec 15 16:12:09 2015.
