 Gaussian 09, Revision D.01,
 Gaussian 09:  ES64L-G09RevD.01 24-Apr-2013

 ------------------------------------------------------------
 #P AM1(Input,print) CIS(Singlets,NStates=15) pop(full) force
 ------------------------------------------------------------

 -----------------
 AM1-Reparam Input
 -----------------
 Symbolic Z-matrix:
 Charge =  0 Multiplicity = 1

                         Standard orientation:
 ---------------------------------------------------------------------
 Center     Atomic      Atomic             Coordinates (Angstroms)
 Number     Number       Type             X           Y           Z
 ---------------------------------------------------------------------
      1          6           0       -1.115220    0.506248    0.010032
      2          6           0       -0.781567   -0.769679   -0.008981
      3          8           0        0.554626   -1.039254   -0.005218
      4          6           0        1.133608    0.197050    0.015542
      5          6           0        0.174769    1.171781   -0.010840
      6          1           0        0.351075    2.265793    0.005408
      7          1           0        2.262143    0.197772   -0.014644
      8          1           0       -1.455427   -1.702582    0.031262
      9          1           0       -2.064344    0.920648   -0.014796
 ---------------------------------------------------------------------

 SCF Done:  E(RAM1) =   1.71720606219     A.U. after   14 cycles

 Excitation energies and oscillator strengths:

 Excited State   1:      Singlet-A      5.2769 eV  234.96 nm  f=0.3409  <S**2>=0.000
      13 -> 14         0.69533
 This state for optimization and/or second-order correction.
 Total Energy, E(CIS) =   1.91112902378
 Copying the excited state density for this state as the 1-particle RhoCI density.

 Excited State   2:      Singlet-A      5.7419 eV  215.93 nm  f=0.0005  <S**2>=0.000
      11 -> 15         0.11985
      13 -> 15         0.67404
      13 -> 17         0.11272
      13 -> 19         0.10197

 Excited State   3:      Singlet-A      6.1791 eV  200.65 nm  f=0.0004  <S**2>=0.000
      11 -> 16        -0.12451
      13 -> 16         0.65951
      13 -> 17         0.12107
      13 -> 19        -0.12724

 Excited State   4:      Singlet-A      6.9441 eV  178.55 nm  f=0.0000  <S**2>=0.000
      12 -> 14         0.68045
      13 -> 21        -0.11313

 Excited State   5:      Singlet-A      7.3072 eV  169.67 nm  f=0.0104  <S**2>=0.000
      12 -> 14         0.13899
      13 -> 15        -0.10865
      13 -> 17         0.43405
      13 -> 19         0.34192
      13 -> 20        -0.14264
      13 -> 21         0.36240

 Excited State   6:      Singlet-A      7.5835 eV  163.49 nm  f=0.0157  <S**2>=0.000
      13 -> 16        -0.14848
      13 -> 17         0.52383
      13 -> 19        -0.28128
      13 -> 20         0.10255
      13 -> 21        -0.29511

 Excited State   7:      Singlet-A      8.1715 eV  151.73 nm  f=0.0003  <S**2>=0.000
      13 -> 16        -0.10020
      13 -> 18         0.54891
      13 -> 19        -0.31398
      13 -> 21         0.27945

 Excited State   8:      Singlet-A      8.2941 eV  149.48 nm  f=0.0002  <S**2>=0.000
      10 -> 14         0.68316
      13 -> 20        -0.12226

 Excited State   9:      Singlet-A      8.4353 eV  146.98 nm  f=0.0098  <S**2>=0.000
      13 -> 18         0.42321
      13 -> 19         0.36133
      13 -> 21        -0.41706

 Excited State  10:      Singlet-A      8.6027 eV  144.12 nm  f=0.0743  <S**2>=0.000
      11 -> 14         0.63169
      12 -> 15         0.23569

 Excited State  11:      Singlet-A      8.8996 eV  139.31 nm  f=0.0791  <S**2>=0.000
      10 -> 14         0.12690
      13 -> 19         0.15794
      13 -> 20         0.64505
      13 -> 21         0.10089

 Excited State  12:      Singlet-A      9.0206 eV  137.44 nm  f=0.1938  <S**2>=0.000
       8 -> 15         0.16390
       9 -> 15         0.14572
      10 -> 17         0.12453
      11 -> 14        -0.20593
      12 -> 15         0.47758
      12 -> 16        -0.26562
      12 -> 19         0.12391
      12 -> 21         0.10604
      13 -> 20         0.13211

 Excited State  13:      Singlet-A      9.3523 eV  132.57 nm  f=0.0006  <S**2>=0.000
       7 -> 15        -0.11785
      11 -> 15         0.62929
      11 -> 16         0.19735
      11 -> 17         0.11489
      13 -> 15        -0.12028

 Excited State  14:      Singlet-A      9.5582 eV  129.71 nm  f=0.1577  <S**2>=0.000
       8 -> 16        -0.15230
      10 -> 17        -0.12146
      11 -> 14        -0.19256
      11 -> 16         0.11423
      12 -> 15         0.29631
      12 -> 16         0.43491
      12 -> 18         0.16398
      12 -> 20         0.11368
      12 -> 21        -0.19170

 Excited State  15:      Singlet-A      9.5938 eV  129.23 nm  f=0.0086  <S**2>=0.000
       7 -> 16         0.11146
      11 -> 15        -0.20315
      11 -> 16         0.61731
      13 -> 16         0.13025

 The electronic state is 1-A.
 Alpha  occ. eigenvalues --   -1.90676  -1.21878  -0.97739  -0.81758  -0.79424
 Alpha  occ. eigenvalues --   -0.67901  -0.62814  -0.52381  -0.51161  -0.43686
 Alpha  occ. eigenvalues --   -0.41496  -0.39315  -0.26441
 Alpha virt. eigenvalues --    0.13440   0.16657   0.18054   0.26124   0.28000
 Alpha virt. eigenvalues --    0.29112   0.30127   0.30644   0.36629   0.46102
 Alpha virt. eigenvalues --    0.49876

 Mulliken charges:
               1
     1  C   -0.122629
     2  C   -1.910914
     3  O    3.164933
     4  C   -1.918071
     5  C   -0.141173
     6  H    0.168996
     7  H    0.292623
     8  H    0.293207
     9  H    0.173028
 Sum of Mulliken charges =   0.00000

 Dipole moment (field-independent basis, Debye):
    X=              4.7697    Y=             -9.9062    Z=             -0.1017  Tot=             10.9951
 N-N= 1.037209660673D+02 E-N=-1.691712459239D+02  KE=-1.570288308720D+01
 Orbital energies and kinetic energies (alpha):
                                 1                 2
   1         O                -1.906761         -1.373544
   2         O                -1.218777         -1.108793
   3         O                -0.977389         -0.910914
   4         O                -0.817583         -0.623441
   5         O                -0.794235         -0.688333
   6         O                -0.679006         -0.586339
   7         O                -0.628139         -0.513728

 Normal termination of Gaussian 09 at Tue Dec 15 17:06:52 2015.
