 Gaussian 09, Revision D.01,
 Gaussian 09:  ES64L-G09RevD.01 24-Apr-2013

 ------------------------------------------------------------
 #P AM1(Input,print) CIS(Singlets,NStates=15) pop(full) force
 ------------------------------------------------------------

 -----------------
 AM1-Reparam Input
 -----------------
 Symbolic Z-matrix:
 Charge =  0 Multiplicity = 1

                         Standard orientation:
 ---------------------------------------------------------------------
 Center     Atomic      Atomic             Coordinates (Angstroms)
 Number     Number       Type             X           Y           Z
 ---------------------------------------------------------------------
      1          6           0        1.167013   -0.258812   -0.004737
      2          6           0        0.108758   -1.117973   -0.004070
      3          8           0       -1.113809   -0.441459    0.003735
      4          6           0       -0.706110    0.856629    0.002176
      5          6           0        0.623408    0.998950   -0.000937
      6          1           0        1.147896    1.909734    0.006692
      7          1           0       -1.591595    1.537298   -0.015170
      8          1           0       -0.026602   -2.201753    0.001494
      9          1           0        2.222362   -0.586368    0.022516
 ---------------------------------------------------------------------

 SCF Done:  E(RAM1) =   1.41374562699     A.U. after   13 cycles

 Excitation energies and oscillator strengths:

 Excited State   1:      Singlet-A      6.1542 eV  201.46 nm  f=0.0047  <S**2>=0.000
      12 -> 15         0.15537
      13 -> 14        -0.11592
      13 -> 15         0.66135
      13 -> 17        -0.10487
 This state for optimization and/or second-order correction.
 Total Energy, E(CIS) =   1.63990692591
 Copying the excited state density for this state as the 1-particle RhoCI density.

 Excited State   2:      Singlet-A      6.2926 eV  197.03 nm  f=0.2805  <S**2>=0.000
      13 -> 14         0.68155
      13 -> 15         0.11453

 Excited State   3:      Singlet-A      6.5526 eV  189.21 nm  f=0.0001  <S**2>=0.000
      12 -> 16        -0.17120
      13 -> 16         0.65839
      13 -> 17        -0.10631

 Excited State   4:      Singlet-A      7.7308 eV  160.38 nm  f=0.0132  <S**2>=0.000
      10 -> 14         0.10210
      13 -> 17         0.66198

 Excited State   5:      Singlet-A      7.7993 eV  158.97 nm  f=0.0000  <S**2>=0.000
      11 -> 14         0.68405
      13 -> 22         0.11279

 Excited State   6:      Singlet-A      8.3048 eV  149.29 nm  f=0.0000  <S**2>=0.000
      12 -> 15        -0.22205
      12 -> 16        -0.10539
      13 -> 19         0.48585
      13 -> 20         0.10214
      13 -> 22         0.40645

 Excited State   7:      Singlet-A      8.3592 eV  148.32 nm  f=0.0003  <S**2>=0.000
      10 -> 14        -0.21674
      12 -> 14         0.49425
      13 -> 18        -0.43749

 Excited State   8:      Singlet-A      8.4040 eV  147.53 nm  f=0.0008  <S**2>=0.000
      10 -> 14         0.64890
      12 -> 14         0.14871
      13 -> 18        -0.15898
      13 -> 19        -0.10407

 Excited State   9:      Singlet-A      8.7041 eV  142.44 nm  f=0.0052  <S**2>=0.000
      12 -> 15         0.56066
      13 -> 15        -0.13295
      13 -> 19         0.30052
      13 -> 20        -0.15058
      13 -> 21         0.11340

 Excited State  10:      Singlet-A      8.9408 eV  138.67 nm  f=0.0011  <S**2>=0.000
      12 -> 15        -0.20578
      12 -> 16         0.17044
      13 -> 15         0.12075
      13 -> 19         0.10032
      13 -> 20        -0.33040
      13 -> 21         0.52553

 Excited State  11:      Singlet-A      9.0971 eV  136.29 nm  f=0.0062  <S**2>=0.000
      12 -> 15         0.10404
      12 -> 16        -0.37308
      13 -> 16        -0.12703
      13 -> 19        -0.30813
      13 -> 20        -0.23623
      13 -> 21         0.11979
      13 -> 22         0.37839

 Excited State  12:      Singlet-A      9.2073 eV  134.66 nm  f=0.0191  <S**2>=0.000
      12 -> 15         0.11425
      12 -> 16         0.41497
      13 -> 16         0.12324
      13 -> 19        -0.20304
      13 -> 20         0.23723
      13 -> 21         0.16542
      13 -> 22         0.37852

 Excited State  13:      Singlet-A      9.2362 eV  134.24 nm  f=0.1885  <S**2>=0.000
      11 -> 15        -0.14075
      12 -> 14         0.43384
      13 -> 18         0.50100

 Excited State  14:      Singlet-A      9.4806 eV  130.78 nm  f=0.1471  <S**2>=0.000
       9 -> 15        -0.29905
       9 -> 16        -0.10950
      10 -> 15         0.16342
      10 -> 17        -0.16380
      11 -> 15         0.38991
      11 -> 16        -0.31634
      11 -> 19         0.13051
      12 -> 14         0.12424

 Excited State  15:      Singlet-A      9.5317 eV  130.08 nm  f=0.0368  <S**2>=0.000
      12 -> 16        -0.26624
      13 -> 16        -0.11544
      13 -> 20         0.46879
      13 -> 21         0.38110
      13 -> 22        -0.13871

 The electronic state is 1-A.
 Alpha  occ. eigenvalues --   -1.88528  -1.21086  -0.94196  -0.78769  -0.77686
 Alpha  occ. eigenvalues --   -0.66769  -0.61820  -0.48640  -0.47228  -0.38984
 Alpha  occ. eigenvalues --   -0.37596  -0.35728  -0.24718
 Alpha virt. eigenvalues --    0.19404   0.20524   0.22600   0.29157   0.29483
 Alpha virt. eigenvalues --    0.31534   0.34487   0.34957   0.37574   0.40655
 Alpha virt. eigenvalues --    0.44606

 Mulliken charges:
               1
     1  C   -0.032558
     2  C   -1.521666
     3  O    2.747433
     4  C   -1.507474
     5  C   -0.055442
     6  H    0.055243
     7  H    0.130182
     8  H    0.130677
     9  H    0.053604
 Sum of Mulliken charges =   0.00000

 Dipole moment (field-independent basis, Debye):
    X=             -9.5737    Y=             -3.6150    Z=              0.0535  Tot=             10.2336
 N-N= 1.037016519291D+02 E-N=-1.702620641165D+02  KE=-1.587880057607D+01
 Orbital energies and kinetic energies (alpha):
                                 1                 2
   1         O                -1.885276         -1.372654
   2         O                -1.210857         -1.104714
   3         O                -0.941963         -0.878487
   4         O                -0.787687         -0.658667
   5         O                -0.776858         -0.662306
   6         O                -0.667685         -0.633824
   7         O                -0.618204         -0.551743

 Normal termination of Gaussian 09 at Tue Dec 15 17:07:53 2015.
