 Gaussian 09, Revision D.01,
 Gaussian 09:  ES64L-G09RevD.01 24-Apr-2013

 ------------------------------------------------------------
 #P AM1(Input,print) CIS(Singlets,NStates=15) pop(full) force
 ------------------------------------------------------------

 -----------------
 AM1-Reparam Input
 -----------------
 Symbolic Z-matrix:
 Charge =  0 Multiplicity = 1

                         Standard orientation:
 ---------------------------------------------------------------------
 Center     Atomic      Atomic             Coordinates (Angstroms)
 Number     Number       Type             X           Y           Z
 ---------------------------------------------------------------------
      1          6           0       -0.975310    0.715668   -0.009273
      2          6           0       -0.928919   -0.602198   -0.018064
      3          8           0        0.318882   -1.148367    0.018147
      4          6           0        1.166129   -0.012823   -0.013168
      5          6           0        0.405930    1.103118    0.015270
      6          1           0        0.802026    2.164230   -0.016746
      7          1           0        2.195371   -0.198491   -0.022500
      8          1           0       -1.727105   -1.367089   -0.003242
      9          1           0       -1.828327    1.365698    0.048715
 ---------------------------------------------------------------------

 SCF Done:  E(RAM1) =  -6.20981834160     A.U. after   13 cycles

 Excitation energies and oscillator strengths:

 Excited State   1:      Singlet-A      6.2658 eV  197.88 nm  f=0.4326  <S**2>=0.000
      13 -> 14         0.69852
 This state for optimization and/or second-order correction.
 Total Energy, E(CIS) =  -5.97955537727
 Copying the excited state density for this state as the 1-particle RhoCI density.

 Excited State   2:      Singlet-A      7.6057 eV  163.01 nm  f=0.0006  <S**2>=0.000
      12 -> 14         0.69779

 Excited State   3:      Singlet-A      8.4323 eV  147.04 nm  f=0.0001  <S**2>=0.000
      10 -> 15         0.11083
      13 -> 15         0.67869
      13 -> 20         0.11358

 Excited State   4:      Singlet-A      8.6181 eV  143.87 nm  f=0.0066  <S**2>=0.000
      11 -> 14         0.69468

 Excited State   5:      Singlet-A      9.5535 eV  129.78 nm  f=0.0003  <S**2>=0.000
      10 -> 16        -0.11384
      13 -> 16         0.65673
      13 -> 21        -0.17477

 Excited State   6:      Singlet-A     10.6438 eV  116.49 nm  f=0.1060  <S**2>=0.000
      10 -> 14         0.67210
      13 -> 19        -0.11336

 Excited State   7:      Singlet-A     10.7189 eV  115.67 nm  f=0.0036  <S**2>=0.000
      13 -> 17         0.66507
      13 -> 20        -0.15940

 Excited State   8:      Singlet-A     11.1414 eV  111.28 nm  f=0.0037  <S**2>=0.000
      13 -> 16         0.17094
      13 -> 17         0.14479
      13 -> 20         0.50764
      13 -> 21         0.34031
      13 -> 22        -0.20072

 Excited State   9:      Singlet-A     11.3283 eV  109.45 nm  f=0.0007  <S**2>=0.000
      13 -> 18         0.68008

 Excited State  10:      Singlet-A     11.6775 eV  106.17 nm  f=0.3186  <S**2>=0.000
       9 -> 15         0.27603
      11 -> 15        -0.12579
      12 -> 15         0.57439
      12 -> 16        -0.10690
      12 -> 20         0.11383

 Excited State  11:      Singlet-A     11.9576 eV  103.69 nm  f=0.0021  <S**2>=0.000
       9 -> 14         0.64134
      13 -> 21         0.21535

 Excited State  12:      Singlet-A     12.2702 eV  101.05 nm  f=0.1305  <S**2>=0.000
       8 -> 14         0.32737
       9 -> 14        -0.14822
      11 -> 17         0.17133
      12 -> 16         0.12883
      12 -> 17         0.34905
      12 -> 18        -0.10657
      13 -> 20        -0.21495
      13 -> 21         0.28812

 Excited State  13:      Singlet-A     12.3084 eV  100.73 nm  f=0.2428  <S**2>=0.000
       8 -> 14        -0.29013
      11 -> 17         0.20585
      12 -> 16         0.12654
      12 -> 17         0.41785
      12 -> 18        -0.13158
      13 -> 19         0.12713
      13 -> 20         0.17779
      13 -> 21        -0.23599

 Excited State  14:      Singlet-A     12.3843 eV  100.11 nm  f=0.0834  <S**2>=0.000
       8 -> 14         0.21420
      13 -> 19         0.64618

 Excited State  15:      Singlet-A     12.5911 eV   98.47 nm  f=0.1077  <S**2>=0.000
       8 -> 14         0.47193
       9 -> 14         0.16964
      13 -> 19        -0.15480
      13 -> 20         0.26559
      13 -> 21        -0.34221

 The electronic state is 1-A.
 Alpha  occ. eigenvalues --   -3.83079  -1.08370  -0.86704  -0.81688  -0.75379
 Alpha  occ. eigenvalues --   -0.73356  -0.67488  -0.56394  -0.54713  -0.48165
 Alpha  occ. eigenvalues --   -0.44921  -0.41896  -0.29281
 Alpha virt. eigenvalues --    0.15197   0.24482   0.29243   0.35230   0.37459
 Alpha virt. eigenvalues --    0.38284   0.40407   0.41462   0.47461   0.51632
 Alpha virt. eigenvalues --    0.55127

 Mulliken charges:
               1
     1  C   -0.250627
     2  C   -1.796091
     3  O    3.188865
     4  C   -1.813483
     5  C   -0.197012
     6  H    0.183429
     7  H    0.245968
     8  H    0.248211
     9  H    0.190741
 Sum of Mulliken charges =   0.00000

 Dipole moment (field-independent basis, Debye):
    X=              2.6988    Y=            -11.6286    Z=              0.4988  Tot=             11.9481
 N-N= 1.019694411116D+02 E-N=-1.707211459451D+02  KE=-2.260870763387D+01
 Orbital energies and kinetic energies (alpha):
                                 1                 2
   1         O                -3.830793         -2.956002
   2         O                -1.083701         -1.077331
   3         O                -0.867036         -0.749952
   4         O                -0.816878         -0.801335
   5         O                -0.753794         -0.926416
   6         O                -0.733559         -0.746107
   7         O                -0.674878         -0.766949

 Normal termination of Gaussian 09 at Fri Dec 11 13:41:41 2015.
