 Gaussian 09, Revision D.01,
 Gaussian 09:  ES64L-G09RevD.01 24-Apr-2013

 ------------------------------------------------------------
 #P AM1(Input,print) CIS(Singlets,NStates=15) pop(full) force
 ------------------------------------------------------------

 -----------------
 AM1-Reparam Input
 -----------------
 Symbolic Z-matrix:
 Charge =  0 Multiplicity = 1

                         Standard orientation:
 ---------------------------------------------------------------------
 Center     Atomic      Atomic             Coordinates (Angstroms)
 Number     Number       Type             X           Y           Z
 ---------------------------------------------------------------------
      1          6           0        0.269649    1.157506   -0.027083
      2          6           0        1.157473    0.128801    0.036511
      3          8           0        0.480125   -1.103581   -0.017696
      4          6           0       -0.879646   -0.711124    0.014942
      5          6           0       -1.066506    0.611417   -0.011165
      6          1           0       -1.941303    1.097651    0.039832
      7          1           0       -1.572960   -1.579756    0.011849
      8          1           0        2.206221    0.002054   -0.027439
      9          1           0        0.581217    2.189097    0.038100
 ---------------------------------------------------------------------

 SCF Done:  E(RAM1) =   1.14370848078     A.U. after   13 cycles

 Excitation energies and oscillator strengths:

 Excited State   1:      Singlet-A      5.4233 eV  228.62 nm  f=0.1843  <S**2>=0.000
      12 -> 15        -0.16240
      13 -> 14         0.67590
 This state for optimization and/or second-order correction.
 Total Energy, E(CIS) =   1.34300992379
 Copying the excited state density for this state as the 1-particle RhoCI density.

 Excited State   2:      Singlet-A      6.3570 eV  195.04 nm  f=0.0298  <S**2>=0.000
      12 -> 14         0.19793
      13 -> 15         0.47934
      13 -> 16        -0.39820
      13 -> 17        -0.19721
      13 -> 18        -0.13113

 Excited State   3:      Singlet-A      6.5000 eV  190.75 nm  f=0.0235  <S**2>=0.000
      12 -> 14         0.22381
      13 -> 15         0.40496
      13 -> 16         0.44883
      13 -> 17         0.22198
      13 -> 18         0.13597

 Excited State   4:      Singlet-A      6.7249 eV  184.36 nm  f=0.0000  <S**2>=0.000
      13 -> 16        -0.29690
      13 -> 17         0.59908
      13 -> 19         0.14094
      13 -> 21        -0.11480

 Excited State   5:      Singlet-A      7.3751 eV  168.11 nm  f=0.0003  <S**2>=0.000
       9 -> 14         0.11667
      11 -> 14         0.69058

 Excited State   6:      Singlet-A      7.8823 eV  157.29 nm  f=0.2326  <S**2>=0.000
      10 -> 14         0.21546
      12 -> 14         0.58741
      13 -> 15        -0.25916

 Excited State   7:      Singlet-A      8.0332 eV  154.34 nm  f=0.0389  <S**2>=0.000
       9 -> 15        -0.12001
      10 -> 14         0.55165
      11 -> 15         0.25021
      12 -> 14        -0.21587
      13 -> 19         0.13244
      13 -> 20         0.12966

 Excited State   8:      Singlet-A      8.1649 eV  151.85 nm  f=0.0091  <S**2>=0.000
      12 -> 15        -0.15249
      12 -> 16         0.16291
      13 -> 18        -0.25247
      13 -> 19         0.55349
      13 -> 20        -0.10931
      13 -> 23         0.10680
      13 -> 24        -0.13674

 Excited State   9:      Singlet-A      8.1888 eV  151.41 nm  f=0.0036  <S**2>=0.000
      10 -> 14        -0.16145
      12 -> 16        -0.10672
      13 -> 16        -0.12131
      13 -> 18         0.38747
      13 -> 19         0.27722
      13 -> 20         0.41274

 Excited State  10:      Singlet-A      8.2773 eV  149.79 nm  f=0.2113  <S**2>=0.000
      12 -> 15         0.63135
      13 -> 14         0.14765
      13 -> 18        -0.11881
      13 -> 19         0.10458

 Excited State  11:      Singlet-A      8.4570 eV  146.61 nm  f=0.0147  <S**2>=0.000
       6 -> 15        -0.10193
       9 -> 15        -0.21131
      10 -> 14        -0.32016
      10 -> 15         0.11443
      11 -> 15         0.56042

 Excited State  12:      Singlet-A      8.6787 eV  142.86 nm  f=0.0038  <S**2>=0.000
      12 -> 16         0.51893
      12 -> 17         0.38075
      12 -> 18         0.11929
      13 -> 22        -0.15582

 Excited State  13:      Singlet-A      8.8333 eV  140.36 nm  f=0.0036  <S**2>=0.000
      12 -> 16        -0.30775
      12 -> 17         0.43737
      13 -> 18         0.20750
      13 -> 20        -0.37223

 Excited State  14:      Singlet-A      9.2191 eV  134.49 nm  f=0.0001  <S**2>=0.000
      13 -> 21         0.61297
      13 -> 22        -0.27967

 Excited State  15:      Singlet-A      9.4397 eV  131.34 nm  f=0.0022  <S**2>=0.000
      12 -> 16         0.21211
      12 -> 17        -0.33908
      13 -> 16        -0.12127
      13 -> 18         0.40161
      13 -> 20        -0.34049
      13 -> 21         0.13671

 The electronic state is 1-A.
 Alpha  occ. eigenvalues --   -1.78275  -1.19135  -0.97316  -0.86727  -0.80538
 Alpha  occ. eigenvalues --   -0.73776  -0.69661  -0.58991  -0.56231  -0.52075
 Alpha  occ. eigenvalues --   -0.49297  -0.46407  -0.37013
 Alpha virt. eigenvalues --    0.04238   0.07866   0.10976   0.11707   0.18752
 Alpha virt. eigenvalues --    0.19305   0.20725   0.22332   0.25080   0.27595
 Alpha virt. eigenvalues --    0.28643

 Mulliken charges:
               1
     1  C   -0.149033
     2  C   -1.187130
     3  O    2.077439
     4  C   -1.204935
     5  C   -0.100185
     6  H    0.092796
     7  H    0.189152
     8  H    0.173383
     9  H    0.108512
 Sum of Mulliken charges =   0.00000

 Dipole moment (field-independent basis, Debye):
    X=              2.9674    Y=             -7.3552    Z=             -0.3818  Tot=              7.9404
 N-N= 1.037574889378D+02 E-N=-1.702161584812D+02  KE=-1.490257533655D+01
 Orbital energies and kinetic energies (alpha):
                                 1                 2
   1         O                -1.782747         -1.195277
   2         O                -1.191347         -0.983794
   3         O                -0.973161         -0.836410
   4         O                -0.867271         -0.615794
   5         O                -0.805378         -0.666244
   6         O                -0.737765         -0.598215
   7         O                -0.696611         -0.507070

 Normal termination of Gaussian 09 at Tue Dec 15 17:05:37 2015.
