 Gaussian 09, Revision D.01,
 Gaussian 09:  ES64L-G09RevD.01 24-Apr-2013

 ------------------------------------------------------------
 #P AM1(Input,print) CIS(Singlets,NStates=15) pop(full) force
 ------------------------------------------------------------

 -----------------
 AM1-Reparam Input
 -----------------
 Symbolic Z-matrix:
 Charge =  0 Multiplicity = 1

                         Standard orientation:
 ---------------------------------------------------------------------
 Center     Atomic      Atomic             Coordinates (Angstroms)
 Number     Number       Type             X           Y           Z
 ---------------------------------------------------------------------
      1          6           0        0.699464    0.957538   -0.011056
      2          6           0        1.134713   -0.301575   -0.003416
      3          8           0        0.025016   -1.146156   -0.012566
      4          6           0       -1.088091   -0.362235    0.026599
      5          6           0       -0.773046    0.941971    0.004832
      6          1           0       -1.398015    1.705741   -0.031000
      7          1           0       -2.025956   -0.964620   -0.042853
      8          1           0        2.075277   -0.823505    0.056105
      9          1           0        1.310319    1.837434    0.016522
 ---------------------------------------------------------------------

 SCF Done:  E(RAM1) =   2.56303467677     A.U. after   13 cycles

 Excitation energies and oscillator strengths:

 Excited State   1:      Singlet-A      5.1042 eV  242.91 nm  f=0.3584  <S**2>=0.000
      13 -> 14         0.69646
 This state for optimization and/or second-order correction.
 Total Energy, E(CIS) =   2.75061140034
 Copying the excited state density for this state as the 1-particle RhoCI density.

 Excited State   2:      Singlet-A      5.9338 eV  208.94 nm  f=0.0009  <S**2>=0.000
      11 -> 15         0.10683
      13 -> 15         0.67102
      13 -> 17        -0.13857

 Excited State   3:      Singlet-A      6.3912 eV  193.99 nm  f=0.0021  <S**2>=0.000
      11 -> 16        -0.10605
      13 -> 16         0.66132
      13 -> 17        -0.10824
      13 -> 18        -0.16903

 Excited State   4:      Singlet-A      6.6796 eV  185.62 nm  f=0.0002  <S**2>=0.000
       9 -> 14         0.10180
      12 -> 14         0.69717

 Excited State   5:      Singlet-A      7.5242 eV  164.78 nm  f=0.0017  <S**2>=0.000
      13 -> 15        -0.12223
      13 -> 17        -0.38867
      13 -> 18         0.50361
      13 -> 20        -0.19268
      13 -> 21         0.14360

 Excited State   6:      Singlet-A      7.9263 eV  156.42 nm  f=0.0140  <S**2>=0.000
      10 -> 14         0.58803
      13 -> 16        -0.10112
      13 -> 17        -0.27395
      13 -> 18        -0.22374

 Excited State   7:      Singlet-A      8.0879 eV  153.30 nm  f=0.0074  <S**2>=0.000
      10 -> 14         0.37931
      13 -> 16         0.11325
      13 -> 17         0.47810
      13 -> 18         0.28279
      13 -> 19        -0.10094

 Excited State   8:      Singlet-A      8.6448 eV  143.42 nm  f=0.0005  <S**2>=0.000
      13 -> 18         0.10639
      13 -> 19         0.67488

 Excited State   9:      Singlet-A      8.7821 eV  141.18 nm  f=0.0806  <S**2>=0.000
      11 -> 14         0.66974
      12 -> 15        -0.11223
      12 -> 16        -0.10108

 Excited State  10:      Singlet-A      9.1638 eV  135.30 nm  f=0.1139  <S**2>=0.000
       8 -> 15         0.13248
       8 -> 16         0.10029
      10 -> 17         0.11397
      12 -> 15         0.54259
      12 -> 16        -0.24610
      12 -> 17        -0.13175
      12 -> 18         0.21088

 Excited State  11:      Singlet-A      9.4567 eV  131.11 nm  f=0.0109  <S**2>=0.000
      13 -> 18         0.24879
      13 -> 20         0.55632
      13 -> 21        -0.32260

 Excited State  12:      Singlet-A      9.6899 eV  127.95 nm  f=0.0786  <S**2>=0.000
      10 -> 15         0.23766
      10 -> 17        -0.11819
      11 -> 14         0.16144
      12 -> 15         0.29784
      12 -> 16         0.48794
      12 -> 18        -0.19467

 Excited State  13:      Singlet-A      9.8078 eV  126.41 nm  f=0.1036  <S**2>=0.000
       9 -> 15         0.12457
       9 -> 16        -0.13545
      10 -> 15        -0.19391
      10 -> 16        -0.25570
      10 -> 17         0.21969
      10 -> 18         0.11624
      11 -> 15         0.10084
      12 -> 16         0.33825
      12 -> 17        -0.22912
      12 -> 18         0.22456
      12 -> 19        -0.17539

 Excited State  14:      Singlet-A      9.8819 eV  125.47 nm  f=0.0898  <S**2>=0.000
      13 -> 20         0.35286
      13 -> 21         0.59366

 Excited State  15:      Singlet-A      9.9068 eV  125.15 nm  f=0.0037  <S**2>=0.000
       7 -> 15        -0.15102
      11 -> 15         0.64198
      13 -> 15        -0.13390

 The electronic state is 1-A.
 Alpha  occ. eigenvalues --   -1.73437  -1.15455  -0.95849  -0.81653  -0.76094
 Alpha  occ. eigenvalues --   -0.67564  -0.64157  -0.55310  -0.50417  -0.44662
 Alpha  occ. eigenvalues --   -0.44286  -0.40248  -0.27786
 Alpha virt. eigenvalues --    0.11059   0.16265   0.18368   0.25884   0.27838
 Alpha virt. eigenvalues --    0.29182   0.31819   0.32853   0.38117   0.47289
 Alpha virt. eigenvalues --    0.51958

 Mulliken charges:
               1
     1  C   -0.070424
     2  C   -1.889386
     3  O    3.228150
     4  C   -1.903426
     5  C   -0.098968
     6  H    0.119724
     7  H    0.249790
     8  H    0.244751
     9  H    0.119789
 Sum of Mulliken charges =   0.00000

 Dipole moment (field-independent basis, Debye):
    X=              0.0677    Y=            -11.0648    Z=             -0.3505  Tot=             11.0706
 N-N= 1.036539645299D+02 E-N=-1.684115623011D+02  KE=-1.503192638847D+01
 Orbital energies and kinetic energies (alpha):
                                 1                 2
   1         O                -1.734374         -1.221631
   2         O                -1.154555         -1.009933
   3         O                -0.958491         -0.870958
   4         O                -0.816528         -0.623929
   5         O                -0.760943         -0.680479
   6         O                -0.675644         -0.573456
   7         O                -0.641567         -0.519460

 Normal termination of Gaussian 09 at Tue Dec 15 17:06:24 2015.
