 Gaussian 09, Revision D.01,
 Gaussian 09:  ES64L-G09RevD.01 24-Apr-2013

 ------------------------------------------------------------
 #P AM1(Input,print) CIS(Singlets,NStates=15) pop(full) force
 ------------------------------------------------------------

 -----------------
 AM1-Reparam Input
 -----------------
 Symbolic Z-matrix:
 Charge =  0 Multiplicity = 1

                         Standard orientation:
 ---------------------------------------------------------------------
 Center     Atomic      Atomic             Coordinates (Angstroms)
 Number     Number       Type             X           Y           Z
 ---------------------------------------------------------------------
      1          6           0        0.906798    0.776835   -0.013504
      2          6           0        1.034385   -0.574751    0.020855
      3          8           0       -0.305036   -1.109669   -0.002194
      4          6           0       -1.147473   -0.105361   -0.002074
      5          6           0       -0.458687    1.060529   -0.015200
      6          1           0       -0.909003    2.133576    0.071905
      7          1           0       -2.221451   -0.316488    0.014679
      8          1           0        1.834847   -1.276483   -0.028184
      9          1           0        1.725766    1.393239    0.018693
 ---------------------------------------------------------------------

 SCF Done:  E(RAM1) =  -4.09443043402     A.U. after   14 cycles

 Excitation energies and oscillator strengths:

 Excited State   1:      Singlet-A      7.3582 eV  168.50 nm  f=0.1744  <S**2>=0.000
      12 -> 14        -0.11189
      13 -> 14         0.58288
      13 -> 15         0.29245
      13 -> 16         0.11808
      13 -> 17        -0.13405
 This state for optimization and/or second-order correction.
 Total Energy, E(CIS) =  -3.82402275595
 Copying the excited state density for this state as the 1-particle RhoCI density.

 Excited State   2:      Singlet-A      7.4232 eV  167.02 nm  f=0.0726  <S**2>=0.000
      12 -> 14         0.11803
      13 -> 14        -0.30832
      13 -> 15         0.56923
      13 -> 16         0.10829
      13 -> 17        -0.17512

 Excited State   3:      Singlet-A      7.9176 eV  156.59 nm  f=0.0240  <S**2>=0.000
      12 -> 14         0.67482
      13 -> 14         0.14768

 Excited State   4:      Singlet-A      8.2905 eV  149.55 nm  f=0.0105  <S**2>=0.000
      13 -> 15        -0.18523
      13 -> 16         0.62249
      13 -> 17        -0.16900
      13 -> 21        -0.13055

 Excited State   5:      Singlet-A      8.5505 eV  145.00 nm  f=0.0060  <S**2>=0.000
      11 -> 14         0.69307

 Excited State   6:      Singlet-A      9.0853 eV  136.47 nm  f=0.0249  <S**2>=0.000
      13 -> 15         0.16501
      13 -> 16         0.19980
      13 -> 17         0.64130

 Excited State   7:      Singlet-A      9.4881 eV  130.67 nm  f=0.0048  <S**2>=0.000
      11 -> 15        -0.14373
      12 -> 15         0.59751
      12 -> 16         0.11694
      12 -> 17        -0.17191
      12 -> 18         0.14619
      13 -> 18        -0.10634

 Excited State   8:      Singlet-A      9.5857 eV  129.34 nm  f=0.0141  <S**2>=0.000
      10 -> 16        -0.10683
      12 -> 15         0.10103
      13 -> 18         0.64319
      13 -> 21        -0.14185
      13 -> 22        -0.12048

 Excited State   9:      Singlet-A      9.9273 eV  124.89 nm  f=0.0104  <S**2>=0.000
      10 -> 15         0.16115
      13 -> 18         0.20416
      13 -> 19        -0.27506
      13 -> 20         0.31851
      13 -> 21         0.45236
      13 -> 22         0.12913

 Excited State  10:      Singlet-A     10.0840 eV  122.95 nm  f=0.0077  <S**2>=0.000
       8 -> 15        -0.13548
       9 -> 15         0.10778
      11 -> 15        -0.33080
      11 -> 16        -0.13972
      11 -> 17         0.26622
      12 -> 15        -0.19029
      12 -> 16         0.34191
      12 -> 17        -0.11068
      12 -> 21        -0.20756

 Excited State  11:      Singlet-A     10.1687 eV  121.93 nm  f=0.0423  <S**2>=0.000
      10 -> 14         0.30251
      11 -> 15         0.18380
      12 -> 15        -0.10608
      12 -> 16         0.20902
      13 -> 19         0.39245
      13 -> 20         0.34048

 Excited State  12:      Singlet-A     10.4113 eV  119.09 nm  f=0.1573  <S**2>=0.000
      10 -> 14        -0.21864
      11 -> 15         0.21538
      11 -> 16         0.24807
      11 -> 17        -0.21456
      11 -> 18        -0.10949
      12 -> 16         0.36842
      12 -> 18         0.28410
      13 -> 19        -0.11695
      13 -> 20        -0.13503

 Excited State  13:      Singlet-A     10.6128 eV  116.83 nm  f=0.1887  <S**2>=0.000
       8 -> 15         0.10586
       9 -> 15        -0.11138
      10 -> 14         0.12842
      11 -> 16        -0.22414
      11 -> 22        -0.10702
      12 -> 17         0.48170
      12 -> 18         0.30744
      13 -> 19        -0.12253

 Excited State  14:      Singlet-A     10.6681 eV  116.22 nm  f=0.0204  <S**2>=0.000
      13 -> 19         0.36171
      13 -> 20        -0.34086
      13 -> 21         0.45577
      13 -> 23        -0.12190

 Excited State  15:      Singlet-A     10.8594 eV  114.17 nm  f=0.0119  <S**2>=0.000
       8 -> 16         0.10545
      10 -> 14        -0.17107
      11 -> 16        -0.32512
      11 -> 17        -0.13538
      11 -> 21         0.13446
      12 -> 15        -0.14501
      12 -> 16        -0.14823
      12 -> 17        -0.21584
      12 -> 18         0.34824
      12 -> 21         0.10676
      13 -> 19         0.15286
      13 -> 20         0.20634

 The electronic state is 1-A.
 Alpha  occ. eigenvalues --   -2.98729  -1.33314  -1.00822  -1.00044  -0.98478
 Alpha  occ. eigenvalues --   -0.89475  -0.77440  -0.60519  -0.57874  -0.54282
 Alpha  occ. eigenvalues --   -0.48661  -0.46276  -0.39111
 Alpha virt. eigenvalues --    0.10626   0.11422   0.15287   0.18057   0.19658
 Alpha virt. eigenvalues --    0.22886   0.23057   0.26680   0.27596   0.32880
 Alpha virt. eigenvalues --    0.39901

 Mulliken charges:
               1
     1  C   -0.233669
     2  C   -1.577002
     3  O    2.722065
     4  C   -1.589249
     5  C   -0.302131
     6  H    0.202422
     7  H    0.296564
     8  H    0.272315
     9  H    0.208684
 Sum of Mulliken charges =   0.00000

 Dipole moment (field-independent basis, Debye):
    X=             -3.1704    Y=             -9.3076    Z=             -0.0750  Tot=              9.8330
 N-N= 1.047762295888D+02 E-N=-1.725736149773D+02  KE=-2.106721523294D+01
 Orbital energies and kinetic energies (alpha):
                                 1                 2
   1         O                -2.987286         -2.028979
   2         O                -1.333140         -1.228339
   3         O                -1.008218         -0.928458
   4         O                -1.000444         -1.002596
   5         O                -0.984778         -0.928226
   6         O                -0.894749         -0.820353
   7         O                -0.774404         -0.700682

 Normal termination of Gaussian 09 at Fri Dec 11 13:41:40 2015.
