 Gaussian 09, Revision D.01,
 Gaussian 09:  ES64L-G09RevD.01 24-Apr-2013

 ------------------------------------------------------------
 #P AM1(Input,print) CIS(Singlets,NStates=15) pop(full) force
 ------------------------------------------------------------

 -----------------
 AM1-Reparam Input
 -----------------
 Symbolic Z-matrix:
 Charge =  0 Multiplicity = 1

                         Standard orientation:
 ---------------------------------------------------------------------
 Center     Atomic      Atomic             Coordinates (Angstroms)
 Number     Number       Type             X           Y           Z
 ---------------------------------------------------------------------
      1          6           0        0.998752    0.679922   -0.001949
      2          6           0        0.970490   -0.617294   -0.003461
      3          8           0       -0.401906   -1.116253   -0.007436
      4          6           0       -1.112923    0.025511    0.003450
      5          6           0       -0.424883    1.084749   -0.002005
      6          1           0       -0.759060    2.137273    0.008006
      7          1           0       -2.161964   -0.160181    0.024412
      8          1           0        1.666415   -1.403271    0.051075
      9          1           0        1.881249    1.318878   -0.000214
 ---------------------------------------------------------------------

 SCF Done:  E(RAM1) =  0.400263977694E-01 A.U. after   14 cycles

 Excitation energies and oscillator strengths:

 Excited State   1:      Singlet-A      4.8466 eV  255.82 nm  f=0.0578  <S**2>=0.000
      12 -> 15         0.20145
      13 -> 14         0.66687
 This state for optimization and/or second-order correction.
 Total Energy, E(CIS) =  0.218136267467
 Copying the excited state density for this state as the 1-particle RhoCI density.

 Excited State   2:      Singlet-A      5.4927 eV  225.73 nm  f=0.0002  <S**2>=0.000
       7 -> 16         0.11162
      12 -> 16        -0.17815
      13 -> 16         0.65074

 Excited State   3:      Singlet-A      5.5904 eV  221.78 nm  f=0.0004  <S**2>=0.000
      12 -> 14        -0.47478
      13 -> 15         0.50737

 Excited State   4:      Singlet-A      5.9207 eV  209.41 nm  f=0.0020  <S**2>=0.000
       7 -> 16        -0.14660
      12 -> 16         0.62802
      12 -> 22        -0.12926
      13 -> 16         0.19779

 Excited State   5:      Singlet-A      6.3194 eV  196.20 nm  f=0.0025  <S**2>=0.000
      12 -> 17        -0.16034
      12 -> 18        -0.17890
      12 -> 22        -0.13769
      13 -> 17         0.41851
      13 -> 18         0.33203
      13 -> 19        -0.10945
      13 -> 22         0.25050
      13 -> 23         0.10764

 Excited State   6:      Singlet-A      6.5030 eV  190.66 nm  f=0.3483  <S**2>=0.000
      11 -> 16        -0.13605
      12 -> 14         0.44887
      13 -> 15         0.44061
      13 -> 17        -0.11027
      13 -> 18         0.11955

 Excited State   7:      Singlet-A      6.5401 eV  189.57 nm  f=0.0287  <S**2>=0.000
      11 -> 14        -0.10333
      12 -> 14        -0.12512
      12 -> 18         0.15147
      12 -> 19         0.15754
      12 -> 21        -0.16679
      12 -> 22        -0.14503
      13 -> 15        -0.12038
      13 -> 17        -0.22944
      13 -> 18         0.33964
      13 -> 19         0.14064
      13 -> 21        -0.12684
      13 -> 22        -0.15300
      13 -> 23         0.23308
      13 -> 24         0.15854

 Excited State   8:      Singlet-A      6.5905 eV  188.13 nm  f=0.0111  <S**2>=0.000
      12 -> 18         0.17345
      12 -> 23         0.12884
      12 -> 24         0.11557
      13 -> 17         0.42549
      13 -> 19         0.24677
      13 -> 21        -0.19540
      13 -> 22        -0.30795

 Excited State   9:      Singlet-A      6.6646 eV  186.03 nm  f=0.0717  <S**2>=0.000
      12 -> 15         0.66098
      13 -> 14        -0.18820

 Excited State  10:      Singlet-A      7.0214 eV  176.58 nm  f=0.0004  <S**2>=0.000
      11 -> 14         0.12473
      12 -> 17         0.56999
      12 -> 18         0.12595
      12 -> 21        -0.10860
      12 -> 24        -0.11180
      13 -> 17         0.13010
      13 -> 19        -0.22493

 Excited State  11:      Singlet-A      7.3578 eV  168.51 nm  f=0.0007  <S**2>=0.000
       8 -> 14         0.10044
       8 -> 15         0.10993
      10 -> 14         0.14358
      10 -> 15        -0.10749
      11 -> 14         0.60992
      11 -> 15         0.15382
      12 -> 17        -0.11549
      13 -> 17        -0.13384

 Excited State  12:      Singlet-A      7.5637 eV  163.92 nm  f=0.0003  <S**2>=0.000
       9 -> 14        -0.11355
      10 -> 14        -0.14504
      11 -> 14        -0.12355
      11 -> 15         0.29769
      12 -> 17        -0.15334
      12 -> 18         0.32162
      12 -> 19         0.11150
      12 -> 22        -0.11813
      12 -> 23         0.17021
      12 -> 24        -0.10539
      13 -> 18        -0.15828
      13 -> 19        -0.13523
      13 -> 21        -0.14041
      13 -> 22         0.16584
      13 -> 24         0.18859

 Excited State  13:      Singlet-A      7.6077 eV  162.97 nm  f=0.0021  <S**2>=0.000
       9 -> 14         0.15879
       9 -> 15         0.18193
      10 -> 14         0.50585
      10 -> 15        -0.26282
      11 -> 14        -0.17059
      12 -> 18         0.14383

 Excited State  14:      Singlet-A      7.6847 eV  161.34 nm  f=0.0002  <S**2>=0.000
       8 -> 14         0.11950
       9 -> 14        -0.33530
       9 -> 15        -0.10619
      10 -> 15        -0.13854
      11 -> 14        -0.15200
      11 -> 15         0.41921
      12 -> 18        -0.16205
      12 -> 24         0.10346
      13 -> 18         0.14017
      13 -> 22        -0.20581
      13 -> 24        -0.11963

 Excited State  15:      Singlet-A      7.8706 eV  157.53 nm  f=0.0026  <S**2>=0.000
       9 -> 14         0.16986
      10 -> 14        -0.19346
      10 -> 15         0.14328
      11 -> 15         0.11417
      12 -> 18         0.16364
      12 -> 19        -0.28411
      12 -> 20         0.15164
      12 -> 22         0.18238
      13 -> 18         0.31452
      13 -> 19        -0.16839
      13 -> 20         0.21509
      13 -> 24        -0.14626

 The electronic state is 1-A.
 Alpha  occ. eigenvalues --   -1.56117  -1.24170  -1.12319  -0.81577  -0.80999
 Alpha  occ. eigenvalues --   -0.68500  -0.59333  -0.55190  -0.52308  -0.50843
 Alpha  occ. eigenvalues --   -0.48640  -0.40196  -0.36587
 Alpha virt. eigenvalues --    0.03661   0.06929   0.09924   0.13092   0.14587
 Alpha virt. eigenvalues --    0.15615   0.17727   0.18034   0.19195   0.20429
 Alpha virt. eigenvalues --    0.21970

 Mulliken charges:
               1
     1  C   -0.174558
     2  C   -0.087017
     3  O   -0.131882
     4  C   -0.048110
     5  C   -0.229827
     6  H    0.159553
     7  H    0.169079
     8  H    0.176722
     9  H    0.166041
 Sum of Mulliken charges =   0.00000

 Dipole moment (field-independent basis, Debye):
    X=              0.3419    Y=              0.6900    Z=              0.0846  Tot=              0.7747
 N-N= 1.036610492401D+02 E-N=-1.713320305129D+02  KE=-1.657441919075D+01
 Orbital energies and kinetic energies (alpha):
                                 1                 2
   1         O                -1.561166         -1.323362
   2         O                -1.241698         -1.042726
   3         O                -1.123187         -0.976097
   4         O                -0.815771         -0.702095
   5         O                -0.809990         -0.722203
   6         O                -0.685000         -0.604543
   7         O                -0.593334         -0.485687

 Normal termination of Gaussian 09 at Tue Dec 15 16:30:33 2015.
