 Gaussian 09, Revision D.01,
 Gaussian 09:  ES64L-G09RevD.01 24-Apr-2013

 ------------------------------------------------------------
 #P AM1(Input,print) CIS(Singlets,NStates=15) pop(full) force
 ------------------------------------------------------------

 -----------------
 AM1-Reparam Input
 -----------------
 Symbolic Z-matrix:
 Charge =  0 Multiplicity = 1

                         Standard orientation:
 ---------------------------------------------------------------------
 Center     Atomic      Atomic             Coordinates (Angstroms)
 Number     Number       Type             X           Y           Z
 ---------------------------------------------------------------------
      1          6           0       -0.619851    1.030034    0.007988
      2          6           0       -1.102430   -0.219413   -0.030448
      3          8           0       -0.134311   -1.166405    0.029321
      4          6           0        1.027502   -0.459811   -0.018884
      5          6           0        0.840039    0.864140    0.005937
      6          1           0        1.535831    1.716008   -0.021504
      7          1           0        1.951865   -1.049190   -0.017593
      8          1           0       -2.137643   -0.600521   -0.033458
      9          1           0       -1.147130    1.975245    0.050430
 ---------------------------------------------------------------------

 SCF Done:  E(RAM1) =   1.71219500669     A.U. after   14 cycles

 Excitation energies and oscillator strengths:

 Excited State   1:      Singlet-A      5.2091 eV  238.01 nm  f=0.3508  <S**2>=0.000
      13 -> 14         0.69633
 This state for optimization and/or second-order correction.
 Total Energy, E(CIS) =   1.90362649517
 Copying the excited state density for this state as the 1-particle RhoCI density.

 Excited State   2:      Singlet-A      6.0265 eV  205.73 nm  f=0.0012  <S**2>=0.000
      13 -> 15         0.64757
      13 -> 16        -0.16013
      13 -> 17         0.15411

 Excited State   3:      Singlet-A      6.0949 eV  203.42 nm  f=0.0016  <S**2>=0.000
      13 -> 15         0.16930
      13 -> 16         0.64013
      13 -> 18         0.10431
      13 -> 20        -0.16151

 Excited State   4:      Singlet-A      6.7868 eV  182.68 nm  f=0.0004  <S**2>=0.000
      12 -> 14         0.68796

 Excited State   5:      Singlet-A      7.2868 eV  170.15 nm  f=0.0004  <S**2>=0.000
      12 -> 14        -0.13119
      13 -> 16         0.13867
      13 -> 19         0.15497
      13 -> 20         0.50223
      13 -> 21        -0.40514

 Excited State   6:      Singlet-A      7.5783 eV  163.61 nm  f=0.0201  <S**2>=0.000
      13 -> 15        -0.15132
      13 -> 17         0.67217

 Excited State   7:      Singlet-A      8.1016 eV  153.04 nm  f=0.0011  <S**2>=0.000
      13 -> 16        -0.11073
      13 -> 18         0.65733
      13 -> 21        -0.19539

 Excited State   8:      Singlet-A      8.2651 eV  150.01 nm  f=0.0015  <S**2>=0.000
      10 -> 14         0.65365
      13 -> 19        -0.22510

 Excited State   9:      Singlet-A      8.3711 eV  148.11 nm  f=0.0015  <S**2>=0.000
      10 -> 14         0.12251
      13 -> 18         0.20759
      13 -> 19         0.22505
      13 -> 20         0.33787
      13 -> 21         0.51447

 Excited State  10:      Singlet-A      8.6089 eV  144.02 nm  f=0.0715  <S**2>=0.000
      11 -> 14         0.65252
      12 -> 15         0.15141

 Excited State  11:      Singlet-A      8.6694 eV  143.01 nm  f=0.0914  <S**2>=0.000
      10 -> 14         0.19054
      13 -> 19         0.58725
      13 -> 20        -0.28111
      13 -> 21        -0.12939

 Excited State  12:      Singlet-A      9.1133 eV  136.05 nm  f=0.1657  <S**2>=0.000
       8 -> 15        -0.18809
      10 -> 17         0.17937
      12 -> 15        -0.20587
      12 -> 16         0.49392
      12 -> 18         0.16395
      12 -> 20        -0.19546
      12 -> 21         0.15765

 Excited State  13:      Singlet-A      9.5307 eV  130.09 nm  f=0.0579  <S**2>=0.000
       8 -> 16         0.10313
      11 -> 14         0.13358
      11 -> 15         0.48655
      12 -> 15        -0.37184
      12 -> 16        -0.16291

 Excited State  14:      Singlet-A      9.6136 eV  128.97 nm  f=0.0902  <S**2>=0.000
       8 -> 16        -0.13632
      11 -> 14        -0.16351
      11 -> 15         0.41105
      11 -> 16         0.15606
      12 -> 15         0.41989
      12 -> 16         0.13700
      12 -> 19         0.10546

 Excited State  15:      Singlet-A      9.7881 eV  126.67 nm  f=0.0044  <S**2>=0.000
       7 -> 15        -0.13221
      11 -> 15        -0.13933
      11 -> 16         0.63287
      13 -> 15        -0.12444

 The electronic state is 1-A.
 Alpha  occ. eigenvalues --   -1.91166  -1.21401  -0.98687  -0.81537  -0.80065
 Alpha  occ. eigenvalues --   -0.68388  -0.63054  -0.52792  -0.51648  -0.43889
 Alpha  occ. eigenvalues --   -0.41844  -0.39194  -0.26354
 Alpha virt. eigenvalues --    0.13037   0.17866   0.18382   0.26393   0.27461
 Alpha virt. eigenvalues --    0.29024   0.29095   0.30291   0.36915   0.46298
 Alpha virt. eigenvalues --    0.50194

 Mulliken charges:
               1
     1  C   -0.144167
     2  C   -1.914948
     3  O    3.166884
     4  C   -1.913650
     5  C   -0.131750
     6  H    0.172085
     7  H    0.297424
     8  H    0.295785
     9  H    0.172337
 Sum of Mulliken charges =   0.00000

 Dipole moment (field-independent basis, Debye):
    X=             -1.2335    Y=            -10.6499    Z=              0.7221  Tot=             10.7454
 N-N= 1.038504483601D+02 E-N=-1.693573021270D+02  KE=-1.571884216384D+01
 Orbital energies and kinetic energies (alpha):
                                 1                 2
   1         O                -1.911663         -1.380919
   2         O                -1.214005         -1.100642
   3         O                -0.986870         -0.912924
   4         O                -0.815372         -0.624131
   5         O                -0.800654         -0.701622
   6         O                -0.683885         -0.581078
   7         O                -0.630541         -0.513077

 Normal termination of Gaussian 09 at Tue Dec 15 17:06:51 2015.
