 Gaussian 09, Revision D.01,
 Gaussian 09:  ES64L-G09RevD.01 24-Apr-2013

 ------------------------------------------------------------
 #P AM1(Input,print) CIS(Singlets,NStates=15) pop(full) force
 ------------------------------------------------------------

 -----------------
 AM1-Reparam Input
 -----------------
 Symbolic Z-matrix:
 Charge =  0 Multiplicity = 1

                         Standard orientation:
 ---------------------------------------------------------------------
 Center     Atomic      Atomic             Coordinates (Angstroms)
 Number     Number       Type             X           Y           Z
 ---------------------------------------------------------------------
      1          6           0        0.701226    0.967271    0.040553
      2          6           0        1.125392   -0.316932   -0.018002
      3          8           0        0.007052   -1.142557   -0.010788
      4          6           0       -1.064523   -0.340344    0.037152
      5          6           0       -0.742517    0.901630   -0.041313
      6          1           0       -1.448645    1.775495   -0.029997
      7          1           0       -2.014939   -0.928212    0.013211
      8          1           0        2.024224   -0.811181   -0.003780
      9          1           0        1.265480    1.834602   -0.003475
 ---------------------------------------------------------------------

 SCF Done:  E(RAM1) =   1.42548908506     A.U. after   13 cycles

 Excitation energies and oscillator strengths:

 Excited State   1:      Singlet-A      5.6494 eV  219.47 nm  f=0.0029  <S**2>=0.000
      13 -> 15         0.67934
 This state for optimization and/or second-order correction.
 Total Energy, E(CIS) =   1.63309941742
 Copying the excited state density for this state as the 1-particle RhoCI density.

 Excited State   2:      Singlet-A      5.7834 eV  214.38 nm  f=0.3103  <S**2>=0.000
      13 -> 14         0.68965

 Excited State   3:      Singlet-A      6.5300 eV  189.87 nm  f=0.0006  <S**2>=0.000
      11 -> 16        -0.10214
      13 -> 16         0.64782
      13 -> 17        -0.16961
      13 -> 20        -0.11708
      13 -> 21         0.10175

 Excited State   4:      Singlet-A      7.2806 eV  170.29 nm  f=0.0007  <S**2>=0.000
      11 -> 14        -0.29933
      12 -> 14         0.61699
      13 -> 22         0.10704

 Excited State   5:      Singlet-A      7.4732 eV  165.90 nm  f=0.0079  <S**2>=0.000
      13 -> 16         0.15002
      13 -> 17         0.65685
      13 -> 19         0.10242

 Excited State   6:      Singlet-A      7.7216 eV  160.57 nm  f=0.0007  <S**2>=0.000
      13 -> 19         0.44904
      13 -> 22         0.48605

 Excited State   7:      Singlet-A      8.2606 eV  150.09 nm  f=0.0022  <S**2>=0.000
      11 -> 14        -0.40562
      12 -> 14        -0.18370
      13 -> 18         0.51426

 Excited State   8:      Singlet-A      8.4135 eV  147.36 nm  f=0.0043  <S**2>=0.000
      10 -> 14         0.68507

 Excited State   9:      Singlet-A      8.5549 eV  144.93 nm  f=0.0042  <S**2>=0.000
      13 -> 19        -0.39744
      13 -> 20        -0.21083
      13 -> 21         0.44704
      13 -> 22         0.22511

 Excited State  10:      Singlet-A      8.6938 eV  142.61 nm  f=0.0048  <S**2>=0.000
      13 -> 17        -0.10484
      13 -> 19         0.30511
      13 -> 21         0.46781
      13 -> 22        -0.38592

 Excited State  11:      Singlet-A      8.8679 eV  139.81 nm  f=0.0399  <S**2>=0.000
      11 -> 15         0.26414
      12 -> 15         0.45078
      13 -> 20         0.39008

 Excited State  12:      Singlet-A      9.0559 eV  136.91 nm  f=0.0525  <S**2>=0.000
      11 -> 16        -0.10739
      12 -> 15        -0.36307
      13 -> 18        -0.16212
      13 -> 20         0.47407
      13 -> 21         0.19410
      13 -> 22         0.13899

 Excited State  13:      Singlet-A      9.1168 eV  136.00 nm  f=0.0835  <S**2>=0.000
      11 -> 14        -0.31922
      11 -> 15         0.42067
      12 -> 14        -0.15094
      12 -> 17        -0.10046
      13 -> 18        -0.32432
      13 -> 19         0.10099
      13 -> 20        -0.12160
      13 -> 22        -0.11447

 Excited State  14:      Singlet-A      9.2979 eV  133.35 nm  f=0.2723  <S**2>=0.000
       8 -> 15         0.12459
      11 -> 14         0.33357
      11 -> 15         0.40013
      12 -> 14         0.17096
      12 -> 15        -0.24523
      12 -> 16         0.11595
      13 -> 18         0.23618

 Excited State  15:      Singlet-A      9.7486 eV  127.18 nm  f=0.0032  <S**2>=0.000
      11 -> 15        -0.10296
      11 -> 16         0.42322
      12 -> 16         0.43434
      13 -> 16         0.15237
      13 -> 20         0.17097
      13 -> 23         0.11260

 The electronic state is 1-A.
 Alpha  occ. eigenvalues --   -1.90158  -1.19856  -0.97252  -0.79244  -0.77676
 Alpha  occ. eigenvalues --   -0.67861  -0.62784  -0.49985  -0.48088  -0.40464
 Alpha  occ. eigenvalues --   -0.37842  -0.36841  -0.23811
 Alpha virt. eigenvalues --    0.17571   0.19445   0.23696   0.28738   0.29911
 Alpha virt. eigenvalues --    0.31386   0.33761   0.34243   0.35266   0.40445
 Alpha virt. eigenvalues --    0.45611

 Mulliken charges:
               1
     1  C   -0.069778
     2  C   -1.529407
     3  O    2.770674
     4  C   -1.502101
     5  C   -0.088194
     6  H    0.061287
     7  H    0.145102
     8  H    0.147442
     9  H    0.064976
 Sum of Mulliken charges =   0.00000

 Dipole moment (field-independent basis, Debye):
    X=             -0.4592    Y=             -9.7956    Z=             -0.2485  Tot=              9.8095
 N-N= 1.040287152976D+02 E-N=-1.706640354549D+02  KE=-1.590516605696D+01
 Orbital energies and kinetic energies (alpha):
                                 1                 2
   1         O                -1.901577         -1.393608
   2         O                -1.198559         -1.076140
   3         O                -0.972523         -0.889204
   4         O                -0.792440         -0.632354
   5         O                -0.776759         -0.707746
   6         O                -0.678606         -0.621113
   7         O                -0.627841         -0.549122

 Normal termination of Gaussian 09 at Tue Dec 15 17:07:54 2015.
