 Gaussian 09, Revision D.01,
 Gaussian 09:  ES64L-G09RevD.01 24-Apr-2013

 ------------------------------------------------------------
 #P AM1(Input,print) CIS(Singlets,NStates=15) pop(full) force
 ------------------------------------------------------------

 -----------------
 AM1-Reparam Input
 -----------------
 Symbolic Z-matrix:
 Charge =  0 Multiplicity = 1

                         Standard orientation:
 ---------------------------------------------------------------------
 Center     Atomic      Atomic             Coordinates (Angstroms)
 Number     Number       Type             X           Y           Z
 ---------------------------------------------------------------------
      1          6           0        0.222048    1.174549   -0.022903
      2          6           0        1.125406    0.115966    0.022755
      3          8           0        0.481424   -1.064922   -0.017949
      4          6           0       -0.810911   -0.774028    0.015656
      5          6           0       -1.055215    0.593731   -0.003601
      6          1           0       -1.979509    1.086894    0.028569
      7          1           0       -1.545866   -1.581484    0.001573
      8          1           0        2.236428    0.095079    0.020905
      9          1           0        0.549588    2.257576    0.021105
 ---------------------------------------------------------------------

 SCF Done:  E(RAM1) =   1.76573332665     A.U. after   13 cycles

 Excitation energies and oscillator strengths:

 Excited State   1:      Singlet-A      5.7433 eV  215.88 nm  f=0.3353  <S**2>=0.000
      13 -> 14         0.68882
 This state for optimization and/or second-order correction.
 Total Energy, E(CIS) =   1.97679612900
 Copying the excited state density for this state as the 1-particle RhoCI density.

 Excited State   2:      Singlet-A      6.9087 eV  179.46 nm  f=0.0079  <S**2>=0.000
      13 -> 15         0.67472
      13 -> 17        -0.15532

 Excited State   3:      Singlet-A      7.1726 eV  172.86 nm  f=0.0002  <S**2>=0.000
      11 -> 15        -0.11336
      13 -> 16         0.66160
      13 -> 18        -0.14334
      13 -> 19        -0.13730

 Excited State   4:      Singlet-A      7.7916 eV  159.13 nm  f=0.0006  <S**2>=0.000
      12 -> 14         0.69226

 Excited State   5:      Singlet-A      8.2794 eV  149.75 nm  f=0.0061  <S**2>=0.000
      10 -> 14         0.66282
      11 -> 14        -0.20826

 Excited State   6:      Singlet-A      8.6233 eV  143.78 nm  f=0.0001  <S**2>=0.000
      11 -> 15        -0.10838
      13 -> 17        -0.19026
      13 -> 18         0.59461
      13 -> 21         0.26131

 Excited State   7:      Singlet-A      9.0250 eV  137.38 nm  f=0.1129  <S**2>=0.000
      10 -> 14         0.19958
      11 -> 14         0.65978

 Excited State   8:      Singlet-A      9.1920 eV  134.88 nm  f=0.0112  <S**2>=0.000
      11 -> 16        -0.21587
      13 -> 15         0.10544
      13 -> 17         0.62405
      13 -> 18         0.17884

 Excited State   9:      Singlet-A      9.7247 eV  127.49 nm  f=0.0032  <S**2>=0.000
      11 -> 15        -0.27339
      13 -> 19         0.63176

 Excited State  10:      Singlet-A      9.8276 eV  126.16 nm  f=0.0451  <S**2>=0.000
       8 -> 15         0.12448
       9 -> 16        -0.13138
      10 -> 15         0.31201
      10 -> 16         0.17899
      10 -> 17        -0.19831
      10 -> 18        -0.15122
      11 -> 15        -0.10471
      12 -> 15         0.24826
      12 -> 16        -0.13982
      12 -> 17        -0.19281
      12 -> 18         0.23716
      13 -> 14        -0.11945
      13 -> 19        -0.10926

 Excited State  11:      Singlet-A     10.2383 eV  121.10 nm  f=0.0009  <S**2>=0.000
      11 -> 15         0.58353
      12 -> 15         0.12143
      13 -> 16         0.17422
      13 -> 19         0.22736

 Excited State  12:      Singlet-A     10.3533 eV  119.75 nm  f=0.0928  <S**2>=0.000
      10 -> 16         0.14417
      11 -> 16        -0.12126
      12 -> 15         0.31644
      12 -> 16         0.53816
      12 -> 17        -0.10639
      12 -> 18        -0.13368

 Excited State  13:      Singlet-A     10.4862 eV  118.24 nm  f=0.0964  <S**2>=0.000
      10 -> 15         0.28451
      11 -> 16         0.38874
      12 -> 15        -0.13709
      12 -> 16         0.22661
      13 -> 17         0.12622
      13 -> 20        -0.30540
      13 -> 21         0.21403

 Excited State  14:      Singlet-A     10.5176 eV  117.88 nm  f=0.0990  <S**2>=0.000
      10 -> 15         0.33198
      10 -> 16        -0.17081
      12 -> 15        -0.27646
      12 -> 16         0.19655
      13 -> 18         0.16778
      13 -> 20         0.26745
      13 -> 21        -0.31827

 Excited State  15:      Singlet-A     10.6067 eV  116.89 nm  f=0.0166  <S**2>=0.000
      10 -> 15         0.15460
      10 -> 16        -0.12926
      11 -> 16        -0.41249
      12 -> 15        -0.13511
      13 -> 18        -0.20695
      13 -> 21         0.41904

 The electronic state is 1-A.
 Alpha  occ. eigenvalues --   -1.99799  -1.27008  -0.98783  -0.89499  -0.84321
 Alpha  occ. eigenvalues --   -0.76126  -0.74580  -0.62628  -0.61171  -0.52236
 Alpha  occ. eigenvalues --   -0.51341  -0.50485  -0.38007
 Alpha virt. eigenvalues --    0.04673   0.10920   0.11606   0.19195   0.20609
 Alpha virt. eigenvalues --    0.22452   0.25093   0.26998   0.31303   0.39393
 Alpha virt. eigenvalues --    0.44461

 Mulliken charges:
               1
     1  C   -0.100750
     2  C   -1.917021
     3  O    3.162299
     4  C   -1.930319
     5  C   -0.103954
     6  H    0.143159
     7  H    0.299915
     8  H    0.290923
     9  H    0.155748
 Sum of Mulliken charges =   0.00000

 Dipole moment (field-independent basis, Debye):
    X=              4.2039    Y=             -9.2982    Z=             -0.4796  Tot=             10.2157
 N-N= 1.055632363734D+02 E-N=-1.706322378816D+02  KE=-1.564307094655D+01
 Orbital energies and kinetic energies (alpha):
                                 1                 2
   1         O                -1.997987         -1.392989
   2         O                -1.270084         -1.055667
   3         O                -0.987834         -0.869006
   4         O                -0.894991         -0.587505
   5         O                -0.843206         -0.689218
   6         O                -0.761264         -0.611918
   7         O                -0.745802         -0.545569

 Normal termination of Gaussian 09 at Tue Dec 15 17:09:06 2015.
