 Gaussian 09, Revision D.01,
 Gaussian 09:  ES64L-G09RevD.01 24-Apr-2013

 ------------------------------------------------------------
 #P AM1(Input,print) CIS(Singlets,NStates=15) pop(full) force
 ------------------------------------------------------------

 -----------------
 AM1-Reparam Input
 -----------------
 Symbolic Z-matrix:
 Charge =  0 Multiplicity = 1

                         Standard orientation:
 ---------------------------------------------------------------------
 Center     Atomic      Atomic             Coordinates (Angstroms)
 Number     Number       Type             X           Y           Z
 ---------------------------------------------------------------------
      1          6           0        0.906798    0.776835   -0.013504
      2          6           0        1.034385   -0.574751    0.020855
      3          8           0       -0.305036   -1.109669   -0.002194
      4          6           0       -1.147473   -0.105361   -0.002074
      5          6           0       -0.458687    1.060529   -0.015200
      6          1           0       -0.909003    2.133576    0.071905
      7          1           0       -2.221451   -0.316488    0.014679
      8          1           0        1.834847   -1.276483   -0.028184
      9          1           0        1.725766    1.393239    0.018693
 ---------------------------------------------------------------------

 SCF Done:  E(RAM1) =  -6.25711936161     A.U. after   13 cycles

 Excitation energies and oscillator strengths:

 Excited State   1:      Singlet-A      6.5052 eV  190.59 nm  f=0.4238  <S**2>=0.000
      13 -> 14         0.69688
 This state for optimization and/or second-order correction.
 Total Energy, E(CIS) =  -6.01805622567
 Copying the excited state density for this state as the 1-particle RhoCI density.

 Excited State   2:      Singlet-A      7.9112 eV  156.72 nm  f=0.0060  <S**2>=0.000
      11 -> 14         0.19633
      12 -> 14         0.67038

 Excited State   3:      Singlet-A      8.4112 eV  147.40 nm  f=0.0070  <S**2>=0.000
      11 -> 14         0.67281
      12 -> 14        -0.19834

 Excited State   4:      Singlet-A      9.0576 eV  136.88 nm  f=0.0010  <S**2>=0.000
      10 -> 15         0.11679
      13 -> 15         0.67523

 Excited State   5:      Singlet-A      9.9299 eV  124.86 nm  f=0.0009  <S**2>=0.000
      10 -> 16        -0.12888
      13 -> 16         0.64167
      13 -> 17        -0.17605
      13 -> 21        -0.16161

 Excited State   6:      Singlet-A     10.6667 eV  116.23 nm  f=0.0028  <S**2>=0.000
      13 -> 16         0.16812
      13 -> 17         0.67186

 Excited State   7:      Singlet-A     10.8087 eV  114.71 nm  f=0.1341  <S**2>=0.000
      10 -> 14         0.69083

 Excited State   8:      Singlet-A     11.5675 eV  107.18 nm  f=0.0127  <S**2>=0.000
      13 -> 15         0.12528
      13 -> 18         0.43053
      13 -> 19         0.18099
      13 -> 20        -0.20958
      13 -> 21        -0.36090
      13 -> 22         0.24770

 Excited State   9:      Singlet-A     11.8744 eV  104.41 nm  f=0.0344  <S**2>=0.000
       9 -> 14         0.12147
      10 -> 16        -0.11186
      13 -> 16         0.11793
      13 -> 18         0.52072
      13 -> 19        -0.16598
      13 -> 20         0.17927
      13 -> 21         0.30795
      13 -> 22        -0.14501

 Excited State  10:      Singlet-A     12.0288 eV  103.07 nm  f=0.2479  <S**2>=0.000
       8 -> 15         0.12107
      11 -> 15         0.15350
      11 -> 17        -0.10649
      12 -> 15         0.28337
      12 -> 17         0.55209
      12 -> 18        -0.10602

 Excited State  11:      Singlet-A     12.3697 eV  100.23 nm  f=0.0137  <S**2>=0.000
       7 -> 14         0.17441
       8 -> 14        -0.10271
       9 -> 14         0.64141
      13 -> 18        -0.10934

 Excited State  12:      Singlet-A     12.4134 eV   99.88 nm  f=0.2737  <S**2>=0.000
      12 -> 15         0.58483
      12 -> 17        -0.29768

 Excited State  13:      Singlet-A     12.5926 eV   98.46 nm  f=0.0485  <S**2>=0.000
       8 -> 14         0.25430
       9 -> 14         0.12274
      13 -> 19         0.43123
      13 -> 20        -0.31839
      13 -> 21         0.25374
      13 -> 22        -0.22096

 Excited State  14:      Singlet-A     12.7496 eV   97.25 nm  f=0.2127  <S**2>=0.000
       8 -> 14         0.10187
       8 -> 15         0.14704
       8 -> 16         0.12772
       9 -> 16         0.12628
      11 -> 15         0.35371
      11 -> 18        -0.19669
      12 -> 16        -0.32221
      12 -> 17        -0.16841
      12 -> 18         0.15973
      12 -> 21         0.18502

 Excited State  15:      Singlet-A     13.0153 eV   95.26 nm  f=0.0322  <S**2>=0.000
       8 -> 14         0.59645
      13 -> 19        -0.16804
      13 -> 22         0.26980

 The electronic state is 1-A.
 Alpha  occ. eigenvalues --   -3.82233  -1.10033  -0.87892  -0.82066  -0.75479
 Alpha  occ. eigenvalues --   -0.74342  -0.68002  -0.58609  -0.56834  -0.49380
 Alpha  occ. eigenvalues --   -0.45301  -0.43585  -0.31507
 Alpha virt. eigenvalues --    0.14398   0.24399   0.29145   0.32758   0.36997
 Alpha virt. eigenvalues --    0.39463   0.39621   0.40900   0.45585   0.51491
 Alpha virt. eigenvalues --    0.57297

 Mulliken charges:
               1
     1  C   -0.175441
     2  C   -1.826697
     3  O    3.215186
     4  C   -1.868719
     5  C   -0.260233
     6  H    0.193997
     7  H    0.275061
     8  H    0.245459
     9  H    0.201387
 Sum of Mulliken charges =   0.00000

 Dipole moment (field-independent basis, Debye):
    X=             -3.3965    Y=            -10.4077    Z=             -0.1065  Tot=             10.9484
 N-N= 1.021903318788D+02 E-N=-1.709538577236D+02  KE=-2.263578961526D+01
 Orbital energies and kinetic energies (alpha):
                                 1                 2
   1         O                -3.822332         -2.959813
   2         O                -1.100328         -1.076052
   3         O                -0.878916         -0.726863
   4         O                -0.820656         -0.855303
   5         O                -0.754790         -0.870558
   6         O                -0.743419         -0.776125
   7         O                -0.680018         -0.754422

 Normal termination of Gaussian 09 at Fri Dec 11 13:41:41 2015.
