 Gaussian 09, Revision D.01,
 Gaussian 09:  ES64L-G09RevD.01 24-Apr-2013

 ------------------------------------------------------------
 #P AM1(Input,print) CIS(Singlets,NStates=15) pop(full) force
 ------------------------------------------------------------

 -----------------
 AM1-Reparam Input
 -----------------
 Symbolic Z-matrix:
 Charge =  0 Multiplicity = 1

                         Standard orientation:
 ---------------------------------------------------------------------
 Center     Atomic      Atomic             Coordinates (Angstroms)
 Number     Number       Type             X           Y           Z
 ---------------------------------------------------------------------
      1          6           0        0.760338    0.887249   -0.009021
      2          6           0        1.077972   -0.418550    0.017701
      3          8           0       -0.077139   -1.163490   -0.014097
      4          6           0       -1.145988   -0.238772    0.027431
      5          6           0       -0.613710    0.982587   -0.024102
      6          1           0       -1.233499    1.867463    0.041784
      7          1           0       -2.067250   -0.683119   -0.020846
      8          1           0        1.969513   -0.900513   -0.005957
      9          1           0        1.476681    1.749002    0.025739
 ---------------------------------------------------------------------

 SCF Done:  E(RAM1) =   1.74909411311     A.U. after   14 cycles

 Excitation energies and oscillator strengths:

 Excited State   1:      Singlet-A      5.4956 eV  225.61 nm  f=0.3112  <S**2>=0.000
      13 -> 14         0.69049
 This state for optimization and/or second-order correction.
 Total Energy, E(CIS) =   1.95105234683
 Copying the excited state density for this state as the 1-particle RhoCI density.

 Excited State   2:      Singlet-A      6.5123 eV  190.39 nm  f=0.0068  <S**2>=0.000
      13 -> 15         0.64172
      13 -> 17        -0.24830

 Excited State   3:      Singlet-A      6.8131 eV  181.98 nm  f=0.0000  <S**2>=0.000
      13 -> 16         0.63711
      13 -> 19         0.12298
      13 -> 21         0.19736

 Excited State   4:      Singlet-A      7.2596 eV  170.79 nm  f=0.0010  <S**2>=0.000
      12 -> 14         0.66116
      13 -> 21        -0.18112

 Excited State   5:      Singlet-A      7.6996 eV  161.03 nm  f=0.0022  <S**2>=0.000
      12 -> 14         0.21204
      13 -> 17         0.21020
      13 -> 19        -0.21334
      13 -> 20         0.11841
      13 -> 21         0.56089

 Excited State   6:      Singlet-A      7.7683 eV  159.60 nm  f=0.0135  <S**2>=0.000
      10 -> 14         0.16628
      11 -> 14         0.14177
      13 -> 15         0.19055
      13 -> 16         0.12064
      13 -> 17         0.56729
      13 -> 21        -0.20949

 Excited State   7:      Singlet-A      8.0083 eV  154.82 nm  f=0.0004  <S**2>=0.000
      10 -> 14         0.48597
      11 -> 14         0.43898
      13 -> 17        -0.23415

 Excited State   8:      Singlet-A      8.5065 eV  145.75 nm  f=0.0074  <S**2>=0.000
      13 -> 18         0.68185

 Excited State   9:      Singlet-A      8.6059 eV  144.07 nm  f=0.0011  <S**2>=0.000
      13 -> 16        -0.14267
      13 -> 18         0.10603
      13 -> 19         0.63988
      13 -> 21         0.19565

 Excited State  10:      Singlet-A      8.8591 eV  139.95 nm  f=0.0746  <S**2>=0.000
      10 -> 14        -0.44940
      11 -> 14         0.49799
      13 -> 22         0.10026

 Excited State  11:      Singlet-A      9.1296 eV  135.80 nm  f=0.0931  <S**2>=0.000
      13 -> 20         0.67156
      13 -> 21        -0.13355

 Excited State  12:      Singlet-A      9.4141 eV  131.70 nm  f=0.0356  <S**2>=0.000
       8 -> 15         0.10841
      10 -> 15        -0.16269
      10 -> 17         0.27363
      11 -> 15        -0.15834
      11 -> 17         0.23905
      12 -> 15        -0.16745
      12 -> 16         0.22733
      12 -> 18        -0.21236
      12 -> 19        -0.12397
      12 -> 21         0.27263
      13 -> 14         0.10141

 Excited State  13:      Singlet-A      9.9785 eV  124.25 nm  f=0.0482  <S**2>=0.000
      10 -> 15        -0.20828
      11 -> 15         0.52470
      11 -> 17        -0.12608
      12 -> 15        -0.23250
      12 -> 16         0.13241
      13 -> 16        -0.12496

 Excited State  14:      Singlet-A     10.0074 eV  123.89 nm  f=0.1076  <S**2>=0.000
       8 -> 16         0.10997
      10 -> 15        -0.16207
      10 -> 18        -0.12459
      11 -> 14        -0.10360
      11 -> 15         0.11764
      11 -> 16         0.13455
      12 -> 15         0.46196
      12 -> 16         0.29214
      12 -> 20        -0.14890
      12 -> 21         0.13927

 Excited State  15:      Singlet-A     10.1158 eV  122.57 nm  f=0.2608  <S**2>=0.000
       8 -> 15         0.10090
      10 -> 15         0.37090
      10 -> 17        -0.14131
      12 -> 15        -0.10682
      12 -> 16         0.44385
      12 -> 17        -0.13121
      12 -> 19         0.16320

 The electronic state is 1-A.
 Alpha  occ. eigenvalues --   -1.90806  -1.23923  -1.00555  -0.82201  -0.81360
 Alpha  occ. eigenvalues --   -0.68965  -0.63335  -0.54694  -0.52118  -0.42376
 Alpha  occ. eigenvalues --   -0.42092  -0.40432  -0.27817
 Alpha virt. eigenvalues --    0.13674   0.19729   0.20579   0.24881   0.27256
 Alpha virt. eigenvalues --    0.29085   0.29464   0.30040   0.34428   0.43607
 Alpha virt. eigenvalues --    0.48001

 Mulliken charges:
               1
     1  C   -0.146306
     2  C   -1.947060
     3  O    3.187995
     4  C   -1.918570
     5  C   -0.114287
     6  H    0.175906
     7  H    0.281429
     8  H    0.303415
     9  H    0.177480
 Sum of Mulliken charges =   0.00000

 Dipole moment (field-independent basis, Debye):
    X=             -0.5066    Y=            -10.6466    Z=             -0.5637  Tot=             10.6736
 N-N= 1.042050369771D+02 E-N=-1.697241084269D+02  KE=-1.577428796488D+01
 Orbital energies and kinetic energies (alpha):
                                 1                 2
   1         O                -1.908056         -1.363015
   2         O                -1.239226         -1.111129
   3         O                -1.005546         -0.933566
   4         O                -0.822014         -0.720510
   5         O                -0.813605         -0.624092
   6         O                -0.689653         -0.583551
   7         O                -0.633354         -0.519413

 Normal termination of Gaussian 09 at Tue Dec 15 17:06:58 2015.
