 Gaussian 09, Revision D.01,
 Gaussian 09:  ES64L-G09RevD.01 24-Apr-2013

 ------------------------------------------------------------
 #P AM1(Input,print) CIS(Singlets,NStates=15) pop(full) force
 ------------------------------------------------------------

 -----------------
 AM1-Reparam Input
 -----------------
 Symbolic Z-matrix:
 Charge =  0 Multiplicity = 1

                         Standard orientation:
 ---------------------------------------------------------------------
 Center     Atomic      Atomic             Coordinates (Angstroms)
 Number     Number       Type             X           Y           Z
 ---------------------------------------------------------------------
      1          6           0        0.569653    1.043992    0.004934
      2          6           0        1.183941   -0.220889   -0.006324
      3          8           0        0.135734   -1.131821   -0.002770
      4          6           0       -1.038320   -0.454336    0.013365
      5          6           0       -0.867145    0.820923   -0.009065
      6          1           0       -1.586914    1.554453   -0.018553
      7          1           0       -1.864804   -1.070508   -0.002558
      8          1           0        2.119918   -0.536569    0.003201
      9          1           0        1.157157    1.969053    0.022617
 ---------------------------------------------------------------------

 SCF Done:  E(RAM1) =   1.76571128515     A.U. after   13 cycles

 Excitation energies and oscillator strengths:

 Excited State   1:      Singlet-A      5.2909 eV  234.34 nm  f=0.3631  <S**2>=0.000
      13 -> 14         0.69455
 This state for optimization and/or second-order correction.
 Total Energy, E(CIS) =   1.96014664265
 Copying the excited state density for this state as the 1-particle RhoCI density.

 Excited State   2:      Singlet-A      6.9779 eV  177.68 nm  f=0.0001  <S**2>=0.000
      12 -> 14         0.67950
      13 -> 15        -0.16691

 Excited State   3:      Singlet-A      7.0104 eV  176.86 nm  f=0.0022  <S**2>=0.000
      12 -> 14         0.17126
      13 -> 15         0.65668
      13 -> 17        -0.12090

 Excited State   4:      Singlet-A      7.4594 eV  166.21 nm  f=0.0061  <S**2>=0.000
      13 -> 16         0.66717
      13 -> 18        -0.15629
      13 -> 19        -0.10474

 Excited State   5:      Singlet-A      7.9014 eV  156.91 nm  f=0.0060  <S**2>=0.000
      11 -> 14         0.69821

 Excited State   6:      Singlet-A      8.6880 eV  142.71 nm  f=0.0026  <S**2>=0.000
      13 -> 15        -0.10256
      13 -> 17        -0.39507
      13 -> 18         0.49989
      13 -> 20        -0.10037
      13 -> 22         0.22992

 Excited State   7:      Singlet-A      9.4004 eV  131.89 nm  f=0.0948  <S**2>=0.000
      10 -> 14         0.66344
      12 -> 15        -0.13998
      13 -> 21         0.11321

 Excited State   8:      Singlet-A      9.4100 eV  131.76 nm  f=0.0066  <S**2>=0.000
      10 -> 16        -0.10470
      13 -> 17         0.52241
      13 -> 18         0.37768
      13 -> 19        -0.18818

 Excited State   9:      Singlet-A      9.8473 eV  125.91 nm  f=0.0019  <S**2>=0.000
      10 -> 16        -0.10006
      13 -> 16         0.10076
      13 -> 17         0.18313
      13 -> 19         0.65113

 Excited State  10:      Singlet-A      9.9665 eV  124.40 nm  f=0.0309  <S**2>=0.000
      10 -> 14         0.14060
      11 -> 16        -0.19392
      11 -> 17         0.16256
      11 -> 18         0.10434
      12 -> 15         0.43781
      12 -> 16        -0.18635
      12 -> 17        -0.19083
      12 -> 18         0.26988

 Excited State  11:      Singlet-A     10.3893 eV  119.34 nm  f=0.1478  <S**2>=0.000
      11 -> 15         0.34525
      11 -> 16         0.15374
      11 -> 17        -0.17700
      12 -> 15         0.44478
      12 -> 16         0.11584
      12 -> 18        -0.22499

 Excited State  12:      Singlet-A     10.6106 eV  116.85 nm  f=0.0356  <S**2>=0.000
      13 -> 18         0.22790
      13 -> 20         0.54037
      13 -> 22        -0.35382

 Excited State  13:      Singlet-A     10.7068 eV  115.80 nm  f=0.1603  <S**2>=0.000
      11 -> 16        -0.33006
      11 -> 19         0.10659
      12 -> 16         0.55852
      12 -> 17        -0.15454
      12 -> 19        -0.10467

 Excited State  14:      Singlet-A     10.8253 eV  114.53 nm  f=0.0622  <S**2>=0.000
      13 -> 18        -0.12260
      13 -> 20         0.40068
      13 -> 22         0.53927

 Excited State  15:      Singlet-A     10.9400 eV  113.33 nm  f=0.0523  <S**2>=0.000
       9 -> 15         0.10478
      10 -> 14        -0.12840
      11 -> 15         0.18830
      11 -> 16        -0.11568
      13 -> 21         0.63070

 The electronic state is 1-A.
 Alpha  occ. eigenvalues --   -1.91454  -1.17821  -0.94852  -0.83043  -0.79306
 Alpha  occ. eigenvalues --   -0.70745  -0.68304  -0.58336  -0.55700  -0.47873
 Alpha  occ. eigenvalues --   -0.45286  -0.42393  -0.30334
 Alpha virt. eigenvalues --    0.09839   0.18341   0.21297   0.27607   0.28598
 Alpha virt. eigenvalues --    0.30234   0.32489   0.32857   0.34776   0.41303
 Alpha virt. eigenvalues --    0.45409

 Mulliken charges:
               1
     1  C   -0.191656
     2  C   -2.037803
     3  O    3.308264
     4  C   -1.992864
     5  C   -0.166070
     6  H    0.211332
     7  H    0.328966
     8  H    0.324820
     9  H    0.215010
 Sum of Mulliken charges =   0.00000

 Dipole moment (field-independent basis, Debye):
    X=              0.4587    Y=            -10.6238    Z=             -0.0911  Tot=             10.6341
 N-N= 1.040976327831D+02 E-N=-1.694121347644D+02  KE=-1.554275822225D+01
 Orbital energies and kinetic energies (alpha):
                                 1                 2
   1         O                -1.914541         -1.367602
   2         O                -1.178206         -1.045838
   3         O                -0.948523         -0.898958
   4         O                -0.830426         -0.586415
   5         O                -0.793062         -0.705424
   6         O                -0.707448         -0.581626
   7         O                -0.683043         -0.535777

 Normal termination of Gaussian 09 at Tue Dec 15 17:09:39 2015.
