 Gaussian 09, Revision D.01,
 Gaussian 09:  ES64L-G09RevD.01 24-Apr-2013

 ------------------------------------------------------------
 #P AM1(Input,print) CIS(Singlets,NStates=15) pop(full) force
 ------------------------------------------------------------

 -----------------
 AM1-Reparam Input
 -----------------
 Symbolic Z-matrix:
 Charge =  0 Multiplicity = 1

                         Standard orientation:
 ---------------------------------------------------------------------
 Center     Atomic      Atomic             Coordinates (Angstroms)
 Number     Number       Type             X           Y           Z
 ---------------------------------------------------------------------
      1          6           0        0.070270    1.220215    0.033094
      2          6           0        1.095662    0.248151    0.007007
      3          8           0        0.629743   -0.973439   -0.014514
      4          6           0       -0.702132   -0.852046    0.007143
      5          6           0       -1.140103    0.409482   -0.025611
      6          1           0       -2.147956    0.807186   -0.000010
      7          1           0       -1.313116   -1.781554    0.064889
      8          1           0        2.230622    0.359411   -0.013713
      9          1           0        0.250327    2.247660   -0.064854
 ---------------------------------------------------------------------

 SCF Done:  E(RAM1) =   1.78732238234     A.U. after   14 cycles

 Excitation energies and oscillator strengths:

 Excited State   1:      Singlet-A      5.4895 eV  225.86 nm  f=0.3623  <S**2>=0.000
      13 -> 14         0.69277
 This state for optimization and/or second-order correction.
 Total Energy, E(CIS) =   1.98905758351
 Copying the excited state density for this state as the 1-particle RhoCI density.

 Excited State   2:      Singlet-A      6.6071 eV  187.65 nm  f=0.0061  <S**2>=0.000
      13 -> 15         0.65857
      13 -> 16         0.11735
      13 -> 17         0.19138

 Excited State   3:      Singlet-A      6.7731 eV  183.05 nm  f=0.0033  <S**2>=0.000
      13 -> 15        -0.10741
      13 -> 16         0.66367
      13 -> 18         0.14511
      13 -> 19         0.10807

 Excited State   4:      Singlet-A      7.5192 eV  164.89 nm  f=0.0010  <S**2>=0.000
      12 -> 14         0.69814

 Excited State   5:      Singlet-A      8.2543 eV  150.21 nm  f=0.0001  <S**2>=0.000
      13 -> 15         0.10360
      13 -> 17        -0.30069
      13 -> 18         0.55291
      13 -> 21         0.24217

 Excited State   6:      Singlet-A      8.3952 eV  147.68 nm  f=0.0073  <S**2>=0.000
      10 -> 14         0.67516
      11 -> 14         0.14395
      13 -> 18         0.11463

 Excited State   7:      Singlet-A      8.9011 eV  139.29 nm  f=0.0131  <S**2>=0.000
      11 -> 15         0.13128
      13 -> 15        -0.12842
      13 -> 17         0.58396
      13 -> 18         0.30121

 Excited State   8:      Singlet-A      8.9932 eV  137.86 nm  f=0.1060  <S**2>=0.000
      10 -> 14        -0.13935
      11 -> 14         0.66367

 Excited State   9:      Singlet-A      9.4505 eV  131.19 nm  f=0.0002  <S**2>=0.000
      13 -> 19         0.67735

 Excited State  10:      Singlet-A      9.7991 eV  126.53 nm  f=0.0401  <S**2>=0.000
       8 -> 15        -0.14388
       8 -> 16        -0.10011
       9 -> 16        -0.10222
      10 -> 15        -0.17859
      10 -> 16        -0.16520
      10 -> 17        -0.19014
      12 -> 15        -0.29059
      12 -> 16         0.31592
      12 -> 17        -0.15789
      12 -> 18         0.27015

 Excited State  11:      Singlet-A     10.1127 eV  122.60 nm  f=0.0187  <S**2>=0.000
      11 -> 15         0.61099
      11 -> 16         0.13964
      12 -> 16         0.16708
      13 -> 15         0.12508
      13 -> 17        -0.10472

 Excited State  12:      Singlet-A     10.2873 eV  120.52 nm  f=0.0229  <S**2>=0.000
      10 -> 15        -0.29530
      11 -> 15        -0.14365
      12 -> 15         0.48654
      12 -> 16         0.28593
      12 -> 17         0.14710

 Excited State  13:      Singlet-A     10.3147 eV  120.20 nm  f=0.2074  <S**2>=0.000
      10 -> 15         0.31814
      10 -> 16         0.16598
      10 -> 17         0.14319
      10 -> 18         0.10493
      12 -> 15        -0.12301
      12 -> 16         0.43742
      12 -> 19         0.11757
      13 -> 21         0.20586

 Excited State  14:      Singlet-A     10.3772 eV  119.48 nm  f=0.0204  <S**2>=0.000
      12 -> 16        -0.12402
      13 -> 18        -0.22038
      13 -> 21         0.62132

 Excited State  15:      Singlet-A     10.5111 eV  117.95 nm  f=0.0601  <S**2>=0.000
      10 -> 16        -0.14232
      11 -> 16         0.48078
      12 -> 16        -0.10100
      13 -> 20        -0.44253

 The electronic state is 1-A.
 Alpha  occ. eigenvalues --   -2.00600  -1.26435  -0.99161  -0.90199  -0.83306
 Alpha  occ. eigenvalues --   -0.76353  -0.74932  -0.62231  -0.60838  -0.52884
 Alpha  occ. eigenvalues --   -0.51878  -0.50015  -0.36860
 Alpha virt. eigenvalues --    0.04182   0.10139   0.10937   0.19296   0.20771
 Alpha virt. eigenvalues --    0.22556   0.25747   0.26860   0.31896   0.39971
 Alpha virt. eigenvalues --    0.44986

 Mulliken charges:
               1
     1  C   -0.133933
     2  C   -1.923484
     3  O    3.153927
     4  C   -1.904144
     5  C   -0.081790
     6  H    0.144310
     7  H    0.302450
     8  H    0.300029
     9  H    0.142634
 Sum of Mulliken charges =   0.00000

 Dipole moment (field-independent basis, Debye):
    X=              5.4774    Y=             -8.8882    Z=             -0.2786  Tot=             10.4442
 N-N= 1.056708316970D+02 E-N=-1.708116821171D+02  KE=-1.564149389327D+01
 Orbital energies and kinetic energies (alpha):
                                 1                 2
   1         O                -2.006005         -1.403633
   2         O                -1.264347         -1.051185
   3         O                -0.991605         -0.870165
   4         O                -0.901987         -0.589139
   5         O                -0.833057         -0.685161
   6         O                -0.763526         -0.606140
   7         O                -0.749317         -0.543590

 Normal termination of Gaussian 09 at Tue Dec 15 17:09:08 2015.
