 Gaussian 09, Revision D.01,
 Gaussian 09:  ES64L-G09RevD.01 24-Apr-2013

 ------------------------------------------------------------
 #P AM1(Input,print) CIS(Singlets,NStates=15) pop(full) force
 ------------------------------------------------------------

 -----------------
 AM1-Reparam Input
 -----------------
 Symbolic Z-matrix:
 Charge =  0 Multiplicity = 1

                         Standard orientation:
 ---------------------------------------------------------------------
 Center     Atomic      Atomic             Coordinates (Angstroms)
 Number     Number       Type             X           Y           Z
 ---------------------------------------------------------------------
      1          6           0       -0.716696    0.974194   -0.001533
      2          6           0       -1.107298   -0.366008   -0.010851
      3          8           0       -0.014993   -1.126145    0.021393
      4          6           0        1.125713   -0.343801   -0.025532
      5          6           0        0.713331    0.902906    0.003358
      6          1           0        1.455381    1.817331    0.048706
      7          1           0        2.036707   -0.850826   -0.004192
      8          1           0       -2.092884   -0.817018   -0.011359
      9          1           0       -1.369558    1.855927    0.003043
 ---------------------------------------------------------------------

 SCF Done:  E(RAM1) =   1.78585640681     A.U. after   13 cycles

 Excitation energies and oscillator strengths:

 Excited State   1:      Singlet-A      5.4406 eV  227.89 nm  f=0.3461  <S**2>=0.000
      13 -> 14         0.69116
 This state for optimization and/or second-order correction.
 Total Energy, E(CIS) =   1.98579429405
 Copying the excited state density for this state as the 1-particle RhoCI density.

 Excited State   2:      Singlet-A      6.6737 eV  185.78 nm  f=0.0082  <S**2>=0.000
      13 -> 15         0.67234
      13 -> 17        -0.13660

 Excited State   3:      Singlet-A      7.0683 eV  175.41 nm  f=0.0018  <S**2>=0.000
      13 -> 16         0.66272
      13 -> 18        -0.11458
      13 -> 19        -0.14958

 Excited State   4:      Singlet-A      7.2919 eV  170.03 nm  f=0.0011  <S**2>=0.000
      12 -> 14         0.69648

 Excited State   5:      Singlet-A      8.0886 eV  153.28 nm  f=0.0002  <S**2>=0.000
      11 -> 14        -0.14770
      13 -> 17         0.46733
      13 -> 18        -0.41474
      13 -> 21         0.24371

 Excited State   6:      Singlet-A      8.2464 eV  150.35 nm  f=0.0051  <S**2>=0.000
      10 -> 14         0.12524
      11 -> 14         0.66952
      13 -> 18        -0.14062

 Excited State   7:      Singlet-A      8.9983 eV  137.79 nm  f=0.0036  <S**2>=0.000
      10 -> 16         0.12290
      13 -> 17         0.47540
      13 -> 18         0.46417

 Excited State   8:      Singlet-A      9.1235 eV  135.90 nm  f=0.0779  <S**2>=0.000
      10 -> 14         0.64766
      11 -> 14        -0.11800
      12 -> 17         0.17814

 Excited State   9:      Singlet-A      9.5195 eV  130.24 nm  f=0.0037  <S**2>=0.000
      10 -> 15         0.13760
      13 -> 18        -0.16017
      13 -> 19         0.62829
      13 -> 21        -0.13931

 Excited State  10:      Singlet-A      9.6930 eV  127.91 nm  f=0.1672  <S**2>=0.000
      10 -> 14         0.17688
      11 -> 15        -0.13376
      11 -> 16        -0.20414
      11 -> 18         0.22604
      12 -> 15         0.35425
      12 -> 17        -0.35013
      12 -> 18         0.14463
      13 -> 14        -0.10571

 Excited State  11:      Singlet-A     10.0957 eV  122.81 nm  f=0.1138  <S**2>=0.000
      12 -> 16         0.65924
      12 -> 19        -0.11815

 Excited State  12:      Singlet-A     10.2357 eV  121.13 nm  f=0.0040  <S**2>=0.000
      13 -> 17        -0.11250
      13 -> 18         0.18981
      13 -> 19         0.19312
      13 -> 21         0.62712

 Excited State  13:      Singlet-A     10.4105 eV  119.09 nm  f=0.1448  <S**2>=0.000
      10 -> 15         0.10185
      11 -> 15         0.48628
      12 -> 15         0.40860
      12 -> 17         0.10508
      12 -> 18        -0.12295
      12 -> 19         0.10149

 Excited State  14:      Singlet-A     10.4704 eV  118.41 nm  f=0.0892  <S**2>=0.000
      10 -> 15         0.25096
      13 -> 20         0.62759

 Excited State  15:      Singlet-A     10.5970 eV  117.00 nm  f=0.0153  <S**2>=0.000
      10 -> 15         0.56395
      10 -> 16         0.13287
      11 -> 15        -0.17815
      13 -> 15         0.11516
      13 -> 19        -0.12912
      13 -> 20        -0.23604

 The electronic state is 1-A.
 Alpha  occ. eigenvalues --   -2.00274  -1.26400  -1.01521  -0.89621  -0.84765
 Alpha  occ. eigenvalues --   -0.76212  -0.74850  -0.65512  -0.61765  -0.53065
 Alpha  occ. eigenvalues --   -0.52476  -0.49201  -0.37277
 Alpha virt. eigenvalues --    0.03727   0.10853   0.12426   0.18060   0.19999
 Alpha virt. eigenvalues --    0.21954   0.24758   0.25681   0.29439   0.36946
 Alpha virt. eigenvalues --    0.43148

 Mulliken charges:
               1
     1  C   -0.163842
     2  C   -1.933937
     3  O    3.185655
     4  C   -1.869429
     5  C   -0.126393
     6  H    0.174867
     7  H    0.272049
     8  H    0.299427
     9  H    0.161602
 Sum of Mulliken charges =   0.00000

 Dipole moment (field-independent basis, Debye):
    X=             -0.1351    Y=             -9.9158    Z=              0.6011  Tot=              9.9349
 N-N= 1.055395077116D+02 E-N=-1.704172702699D+02  KE=-1.563128112245D+01
 Orbital energies and kinetic energies (alpha):
                                 1                 2
   1         O                -2.002738         -1.386979
   2         O                -1.263997         -1.028091
   3         O                -1.015207         -0.876503
   4         O                -0.896208         -0.588199
   5         O                -0.847654         -0.709057
   6         O                -0.762120         -0.591284
   7         O                -0.748498         -0.548390

 Normal termination of Gaussian 09 at Tue Dec 15 17:08:56 2015.
