 Gaussian 09, Revision D.01,
 Gaussian 09:  ES64L-G09RevD.01 24-Apr-2013

 ------------------------------------------------------------
 #P AM1(Input,print) CIS(Singlets,NStates=15) pop(full) force
 ------------------------------------------------------------

 -----------------
 AM1-Reparam Input
 -----------------
 Symbolic Z-matrix:
 Charge =  0 Multiplicity = 1

                         Standard orientation:
 ---------------------------------------------------------------------
 Center     Atomic      Atomic             Coordinates (Angstroms)
 Number     Number       Type             X           Y           Z
 ---------------------------------------------------------------------
      1          6           0       -0.975310    0.715668   -0.009273
      2          6           0       -0.928919   -0.602198   -0.018064
      3          8           0        0.318882   -1.148367    0.018147
      4          6           0        1.166129   -0.012823   -0.013168
      5          6           0        0.405930    1.103118    0.015270
      6          1           0        0.802026    2.164230   -0.016746
      7          1           0        2.195371   -0.198491   -0.022500
      8          1           0       -1.727105   -1.367089   -0.003242
      9          1           0       -1.828327    1.365698    0.048715
 ---------------------------------------------------------------------

 SCF Done:  E(RAM1) =  -5.03693069420     A.U. after   14 cycles

 Excitation energies and oscillator strengths:

 Excited State   1:      Singlet-A      6.8485 eV  181.04 nm  f=0.0427  <S**2>=0.000
      13 -> 14         0.31546
      13 -> 15         0.61002
 This state for optimization and/or second-order correction.
 Total Energy, E(CIS) =  -4.78525176970
 Copying the excited state density for this state as the 1-particle RhoCI density.

 Excited State   2:      Singlet-A      6.9406 eV  178.64 nm  f=0.2100  <S**2>=0.000
      13 -> 14         0.60511
      13 -> 15        -0.31233

 Excited State   3:      Singlet-A      7.0696 eV  175.38 nm  f=0.0027  <S**2>=0.000
      12 -> 14         0.69496

 Excited State   4:      Singlet-A      7.6591 eV  161.88 nm  f=0.0030  <S**2>=0.000
      13 -> 16         0.66533
      13 -> 17        -0.14281

 Excited State   5:      Singlet-A      8.1505 eV  152.12 nm  f=0.0027  <S**2>=0.000
      11 -> 14         0.69561

 Excited State   6:      Singlet-A      8.5752 eV  144.58 nm  f=0.1200  <S**2>=0.000
      10 -> 14        -0.25815
      13 -> 17         0.30877
      13 -> 18         0.55438

 Excited State   7:      Singlet-A      8.6499 eV  143.34 nm  f=0.0258  <S**2>=0.000
      13 -> 16         0.14159
      13 -> 17         0.58676
      13 -> 18        -0.28848

 Excited State   8:      Singlet-A      8.8985 eV  139.33 nm  f=0.1871  <S**2>=0.000
       9 -> 15         0.22971
      12 -> 15         0.61196
      13 -> 18        -0.10835

 Excited State   9:      Singlet-A      9.3579 eV  132.49 nm  f=0.0020  <S**2>=0.000
      13 -> 19         0.68408

 Excited State  10:      Singlet-A      9.5860 eV  129.34 nm  f=0.0148  <S**2>=0.000
       9 -> 16        -0.15921
      10 -> 14        -0.12998
      11 -> 15         0.11851
      11 -> 17        -0.15361
      12 -> 16         0.52090
      12 -> 17         0.18399
      12 -> 19        -0.21972

 Excited State  11:      Singlet-A      9.7370 eV  127.33 nm  f=0.0809  <S**2>=0.000
      10 -> 15        -0.13342
      11 -> 15         0.18580
      12 -> 16         0.16113
      12 -> 17        -0.25320
      13 -> 17         0.10206
      13 -> 20         0.52638

 Excited State  12:      Singlet-A      9.7472 eV  127.20 nm  f=0.1421  <S**2>=0.000
       9 -> 15         0.13385
      11 -> 15        -0.23967
      11 -> 16         0.12438
      12 -> 16        -0.13988
      12 -> 17         0.39402
      13 -> 18        -0.11005
      13 -> 20         0.38118

 Excited State  13:      Singlet-A      9.9300 eV  124.86 nm  f=0.0129  <S**2>=0.000
       9 -> 15        -0.13236
      11 -> 15         0.47399
      11 -> 16         0.17839
      11 -> 17        -0.23380
      12 -> 16        -0.30440
      12 -> 17         0.11719
      12 -> 19        -0.10188

 Excited State  14:      Singlet-A     10.1789 eV  121.81 nm  f=0.2444  <S**2>=0.000
       9 -> 16        -0.14753
      10 -> 14        -0.30708
      10 -> 16        -0.10583
      11 -> 15         0.14564
      11 -> 16         0.11504
      11 -> 17         0.20672
      11 -> 19         0.12307
      11 -> 20         0.13879
      12 -> 19         0.42720
      13 -> 18        -0.13608

 Excited State  15:      Singlet-A     10.3400 eV  119.91 nm  f=0.0010  <S**2>=0.000
      10 -> 15         0.44262
      10 -> 16         0.19625
      13 -> 20         0.13328
      13 -> 21        -0.40905
      13 -> 22         0.16014

 The electronic state is 1-A.
 Alpha  occ. eigenvalues --   -3.71828  -1.15768  -0.85057  -0.84063  -0.83467
 Alpha  occ. eigenvalues --   -0.74803  -0.64051  -0.45863  -0.41898  -0.39730
 Alpha  occ. eigenvalues --   -0.36264  -0.32310  -0.25531
 Alpha virt. eigenvalues --    0.21558   0.22904   0.25962   0.30349   0.31051
 Alpha virt. eigenvalues --    0.32387   0.34919   0.40612   0.44931   0.45832
 Alpha virt. eigenvalues --    0.49858

 Mulliken charges:
               1
     1  C   -0.229205
     2  C   -1.346641
     3  O    2.585621
     4  C   -1.401014
     5  C   -0.163306
     6  H    0.097910
     7  H    0.182237
     8  H    0.153366
     9  H    0.121032
 Sum of Mulliken charges =   0.00000

 Dipole moment (field-independent basis, Debye):
    X=              2.5626    Y=            -10.4609    Z=              0.4029  Tot=             10.7777
 N-N= 1.013494921734D+02 E-N=-1.678737566898D+02  KE=-2.288640494678D+01
 Orbital energies and kinetic energies (alpha):
                                 1                 2
   1         O                -3.718281         -3.108679
   2         O                -1.157681         -1.224181
   3         O                -0.850573         -0.956390
   4         O                -0.840628         -0.944145
   5         O                -0.834674         -0.893105
   6         O                -0.748034         -0.773684
   7         O                -0.640505         -0.717904

 Normal termination of Gaussian 09 at Fri Dec 11 13:41:18 2015.
