 Gaussian 09, Revision D.01,
 Gaussian 09:  ES64L-G09RevD.01 24-Apr-2013

 ------------------------------------------------------------
 #P AM1(Input,print) CIS(Singlets,NStates=15) pop(full) force
 ------------------------------------------------------------

 -----------------
 AM1-Reparam Input
 -----------------
 Symbolic Z-matrix:
 Charge =  0 Multiplicity = 1

                         Standard orientation:
 ---------------------------------------------------------------------
 Center     Atomic      Atomic             Coordinates (Angstroms)
 Number     Number       Type             X           Y           Z
 ---------------------------------------------------------------------
      1          6           0       -0.947164    0.716686   -0.010814
      2          6           0       -1.014519   -0.569908    0.008926
      3          8           0        0.305405   -1.133132   -0.007615
      4          6           0        1.159974   -0.111578   -0.002272
      5          6           0        0.462598    1.147134    0.014043
      6          1           0        0.936790    2.101913   -0.021668
      7          1           0        2.235390   -0.305277    0.012470
      8          1           0       -1.786927   -1.281373    0.020675
      9          1           0       -1.793824    1.455788   -0.009853
 ---------------------------------------------------------------------

 SCF Done:  E(RAM1) =   1.40660302076     A.U. after   13 cycles

 Excitation energies and oscillator strengths:

 Excited State   1:      Singlet-A      5.7385 eV  216.06 nm  f=0.3209  <S**2>=0.000
      13 -> 14         0.69302
 This state for optimization and/or second-order correction.
 Total Energy, E(CIS) =   1.61748861560
 Copying the excited state density for this state as the 1-particle RhoCI density.

 Excited State   2:      Singlet-A      5.9832 eV  207.22 nm  f=0.0006  <S**2>=0.000
      13 -> 15         0.65363
      13 -> 17        -0.20081

 Excited State   3:      Singlet-A      6.5240 eV  190.04 nm  f=0.0003  <S**2>=0.000
      11 -> 16         0.10302
      13 -> 16         0.66210
      13 -> 21         0.18089

 Excited State   4:      Singlet-A      7.2512 eV  170.98 nm  f=0.0010  <S**2>=0.000
      11 -> 14        -0.19855
      12 -> 14         0.66021

 Excited State   5:      Singlet-A      7.4016 eV  167.51 nm  f=0.0047  <S**2>=0.000
      13 -> 15         0.20299
      13 -> 17         0.63435
      13 -> 19         0.11410
      13 -> 21         0.10655

 Excited State   6:      Singlet-A      7.8493 eV  157.95 nm  f=0.0035  <S**2>=0.000
      13 -> 16        -0.12003
      13 -> 19        -0.33535
      13 -> 21         0.45032
      13 -> 22         0.37788

 Excited State   7:      Singlet-A      8.2153 eV  150.92 nm  f=0.0035  <S**2>=0.000
      11 -> 14         0.39322
      12 -> 14         0.11497
      13 -> 18         0.55992

 Excited State   8:      Singlet-A      8.3185 eV  149.05 nm  f=0.0015  <S**2>=0.000
      11 -> 15        -0.11518
      13 -> 17        -0.18216
      13 -> 19         0.52668
      13 -> 20         0.24030
      13 -> 21         0.31521

 Excited State   9:      Singlet-A      8.4154 eV  147.33 nm  f=0.0017  <S**2>=0.000
      10 -> 14         0.48759
      13 -> 19        -0.16322
      13 -> 20         0.44537
      13 -> 22        -0.11920

 Excited State  10:      Singlet-A      8.6099 eV  144.00 nm  f=0.0125  <S**2>=0.000
      10 -> 14         0.49757
      13 -> 19         0.19330
      13 -> 20        -0.42460
      13 -> 22         0.14327

 Excited State  11:      Singlet-A      9.0023 eV  137.72 nm  f=0.0660  <S**2>=0.000
      11 -> 14         0.29524
      11 -> 15         0.42271
      12 -> 14         0.10209
      12 -> 15         0.19274
      12 -> 17        -0.10582
      13 -> 18        -0.22424
      13 -> 21         0.19090
      13 -> 22        -0.18207

 Excited State  12:      Singlet-A      9.0446 eV  137.08 nm  f=0.1168  <S**2>=0.000
      11 -> 14         0.40573
      11 -> 15        -0.35095
      12 -> 14         0.11804
      13 -> 18        -0.32045
      13 -> 21        -0.12520

 Excited State  13:      Singlet-A      9.1876 eV  134.95 nm  f=0.0397  <S**2>=0.000
      11 -> 15         0.25722
      13 -> 19         0.13761
      13 -> 20         0.19663
      13 -> 21        -0.26315
      13 -> 22         0.51161

 Excited State  14:      Singlet-A      9.7192 eV  127.57 nm  f=0.2346  <S**2>=0.000
       8 -> 15        -0.11605
       8 -> 16        -0.14647
      10 -> 16        -0.12266
      10 -> 17         0.13616
      11 -> 14         0.18306
      11 -> 18        -0.10798
      12 -> 15        -0.10840
      12 -> 16         0.48150
      12 -> 17         0.21351
      12 -> 19        -0.14400
      12 -> 21         0.11719

 Excited State  15:      Singlet-A      9.8980 eV  125.26 nm  f=0.0029  <S**2>=0.000
       8 -> 15         0.11582
      11 -> 15        -0.16537
      11 -> 16         0.26696
      12 -> 15         0.45093
      12 -> 16         0.22877
      13 -> 23        -0.20459

 The electronic state is 1-A.
 Alpha  occ. eigenvalues --   -1.88083  -1.17013  -0.95146  -0.78370  -0.76682
 Alpha  occ. eigenvalues --   -0.67353  -0.60791  -0.50572  -0.47266  -0.40945
 Alpha  occ. eigenvalues --   -0.37579  -0.37019  -0.23703
 Alpha virt. eigenvalues --    0.17293   0.21006   0.23412   0.28231   0.29243
 Alpha virt. eigenvalues --    0.31308   0.32410   0.34495   0.35357   0.39712
 Alpha virt. eigenvalues --    0.44908

 Mulliken charges:
               1
     1  C    0.017046
     2  C   -1.492405
     3  O    2.774499
     4  C   -1.583137
     5  C   -0.157302
     6  H    0.071821
     7  H    0.177312
     8  H    0.140004
     9  H    0.052162
 Sum of Mulliken charges =   0.00000

 Dipole moment (field-independent basis, Debye):
    X=              2.4012    Y=             -9.6000    Z=             -0.1307  Tot=              9.8966
 N-N= 1.029083050777D+02 E-N=-1.688044385399D+02  KE=-1.578854832331D+01
 Orbital energies and kinetic energies (alpha):
                                 1                 2
   1         O                -1.880831         -1.360262
   2         O                -1.170127         -1.060967
   3         O                -0.951455         -0.877177
   4         O                -0.783700         -0.626129
   5         O                -0.766817         -0.704231
   6         O                -0.673528         -0.614867
   7         O                -0.607910         -0.532897

 Normal termination of Gaussian 09 at Tue Dec 15 17:07:55 2015.
