 Gaussian 09, Revision D.01,
 Gaussian 09:  ES64L-G09RevD.01 24-Apr-2013

 -------------------------------------------------------
 #P B3LYP/3-21G CIS(Singlets,NStates=15) pop(full) force
 -------------------------------------------------------

 --------
 FuranDFT
 --------
 Symbolic Z-matrix:
 Charge =  0 Multiplicity = 1

                         Standard orientation:
 ---------------------------------------------------------------------
 Center     Atomic      Atomic             Coordinates (Angstroms)
 Number     Number       Type             X           Y           Z
 ---------------------------------------------------------------------
      1          6           0       -0.923480    0.800700    0.007144
      2          6           0       -1.009410   -0.554554   -0.002617
      3          8           0        0.229269   -1.121560    0.003120
      4          6           0        1.170285   -0.149929    0.002709
      5          6           0        0.523621    1.086046   -0.008737
      6          1           0        0.971874    2.054273    0.038401
      7          1           0        2.139677   -0.461506   -0.026468
      8          1           0       -1.856605   -1.193391    0.002057
      9          1           0       -1.655201    1.479529   -0.029949
 ---------------------------------------------------------------------

 SCF Done:  E(RB3LYP) =  -228.741357270     A.U. after   15 cycles

 Excitation energies and oscillator strengths:

 Excited State   1:      Singlet-A      7.0344 eV  176.25 nm  f=0.0054  <S**2>=0.000
      17 -> 19         0.49747
      18 -> 19        -0.12740
      18 -> 20         0.47703
 This state for optimization and/or second-order correction.
 Total Energy, E(CIS) =  -228.482847529
 Copying the excited state density for this state as the 1-particle RhoCI density.

 Excited State   2:      Singlet-A      7.3151 eV  169.49 nm  f=0.2198  <S**2>=0.000
      17 -> 19         0.12292
      18 -> 19         0.67027

 Excited State   3:      Singlet-A      8.6827 eV  142.79 nm  f=0.0041  <S**2>=0.000
      16 -> 19         0.70235

 Excited State   4:      Singlet-A      9.0796 eV  136.55 nm  f=0.0700  <S**2>=0.000
      17 -> 19         0.14482
      17 -> 20         0.29462
      18 -> 20        -0.16585
      18 -> 21         0.54350
      18 -> 22        -0.22425

 Excited State   5:      Singlet-A      9.1458 eV  135.56 nm  f=0.1239  <S**2>=0.000
      17 -> 19         0.10776
      17 -> 20         0.55650
      18 -> 20        -0.12940
      18 -> 21        -0.33263
      18 -> 22         0.14728

 Excited State   6:      Singlet-A      9.4587 eV  131.08 nm  f=0.0038  <S**2>=0.000
      18 -> 21         0.26160
      18 -> 22         0.63747

 Excited State   7:      Singlet-A      9.6307 eV  128.74 nm  f=0.5283  <S**2>=0.000
      17 -> 19        -0.40432
      17 -> 20         0.25431
      18 -> 20         0.43408
      18 -> 21         0.12887

 Excited State   8:      Singlet-A      9.7927 eV  126.61 nm  f=0.0017  <S**2>=0.000
      15 -> 19         0.55707
      18 -> 23        -0.40716

 Excited State   9:      Singlet-A      9.9540 eV  124.56 nm  f=0.0049  <S**2>=0.000
      15 -> 19         0.40797
      16 -> 20         0.12923
      17 -> 21        -0.20229
      18 -> 23         0.50148
      18 -> 24        -0.11226

 Excited State  10:      Singlet-A     10.1238 eV  122.47 nm  f=0.0009  <S**2>=0.000
      14 -> 19         0.23743
      15 -> 19        -0.10575
      16 -> 20         0.63216

 Excited State  11:      Singlet-A     10.2151 eV  121.37 nm  f=0.0018  <S**2>=0.000
      17 -> 21         0.61022
      17 -> 22        -0.23860
      18 -> 23         0.22207

 Excited State  12:      Singlet-A     10.4713 eV  118.40 nm  f=0.0011  <S**2>=0.000
      17 -> 21         0.20223
      17 -> 22         0.65089
      18 -> 24         0.12632

 Excited State  13:      Singlet-A     10.6681 eV  116.22 nm  f=0.0009  <S**2>=0.000
      14 -> 19         0.11116
      17 -> 21        -0.15353
      17 -> 22        -0.10017
      18 -> 24         0.65030
      18 -> 26         0.12486

 Excited State  14:      Singlet-A     10.7970 eV  114.83 nm  f=0.0001  <S**2>=0.000
      14 -> 19         0.63000
      16 -> 20        -0.23061
      17 -> 23        -0.12334
      18 -> 24        -0.11871

 Excited State  15:      Singlet-A     10.9465 eV  113.26 nm  f=0.0015  <S**2>=0.000
      15 -> 20         0.68840

 The electronic state is 1-A.
 Alpha  occ. eigenvalues --  -19.11239 -10.17479 -10.17405 -10.12837 -10.12018
 Alpha  occ. eigenvalues --   -1.12734  -0.79384  -0.75325  -0.60760  -0.57752
 Alpha  occ. eigenvalues --   -0.54636  -0.46135  -0.44723  -0.42830  -0.39491
 Alpha  occ. eigenvalues --   -0.35690  -0.27105  -0.23193
 Alpha virt. eigenvalues --    0.02152   0.07136   0.15117   0.15654   0.18071
 Alpha virt. eigenvalues --    0.20117   0.21767   0.22591   0.35636   0.40373
 Alpha virt. eigenvalues --    0.46148   0.68670   0.69931   0.70191   0.73597

 Mulliken charges:
               1
     1  C   -0.258219
     2  C    0.102520
     3  O   -0.494604
     4  C    0.089359
     5  C   -0.252339
     6  H    0.183922
     7  H    0.222032
     8  H    0.219163
     9  H    0.188166
 Sum of Mulliken charges =   0.00000

 Dipole moment (field-independent basis, Debye):
    X=             -0.1610    Y=              0.6072    Z=             -0.0183  Tot=              0.6284
 Quadrupole moment (field-independent basis, Debye-Ang):
   XX=            -23.5932   YY=            -27.8828   ZZ=            -31.7593
   XY=              0.6320   XZ=              0.0225   YZ=              0.0532

 Normal termination of Gaussian 09 at Tue Dec 15 16:17:16 2015.
