 Gaussian 09, Revision D.01,
 Gaussian 09:  ES64L-G09RevD.01 24-Apr-2013

 -------------------------------------------------------
 #P B3LYP/3-21G CIS(Singlets,NStates=15) pop(full) force
 -------------------------------------------------------

 --------
 FuranDFT
 --------
 Symbolic Z-matrix:
 Charge =  0 Multiplicity = 1

                         Standard orientation:
 ---------------------------------------------------------------------
 Center     Atomic      Atomic             Coordinates (Angstroms)
 Number     Number       Type             X           Y           Z
 ---------------------------------------------------------------------
      1          6           0       -0.942754    0.721818   -0.008713
      2          6           0       -1.013396   -0.617276   -0.014587
      3          8           0        0.338747   -1.090956    0.005008
      4          6           0        1.173161   -0.066625    0.004058
      5          6           0        0.431732    1.096270   -0.017886
      6          1           0        0.818183    2.137040    0.053337
      7          1           0        2.240727   -0.294566    0.014654
      8          1           0       -1.820827   -1.306558    0.045322
      9          1           0       -1.840517    1.386614    0.069402
 ---------------------------------------------------------------------

 SCF Done:  E(RB3LYP) =  -228.743193768     A.U. after   14 cycles

 Excitation energies and oscillator strengths:

 Excited State   1:      Singlet-A      7.0266 eV  176.45 nm  f=0.1195  <S**2>=0.000
      17 -> 19         0.30423
      18 -> 19         0.53753
      18 -> 20         0.30049
 This state for optimization and/or second-order correction.
 Total Energy, E(CIS) =  -228.484970819
 Copying the excited state density for this state as the 1-particle RhoCI density.

 Excited State   2:      Singlet-A      7.4293 eV  166.89 nm  f=0.1052  <S**2>=0.000
      17 -> 19         0.42582
      18 -> 19        -0.41541
      18 -> 20         0.35183

 Excited State   3:      Singlet-A      8.2985 eV  149.41 nm  f=0.0027  <S**2>=0.000
      18 -> 21         0.68987
      18 -> 22        -0.11846

 Excited State   4:      Singlet-A      8.4022 eV  147.56 nm  f=0.0038  <S**2>=0.000
      16 -> 19         0.70078

 Excited State   5:      Singlet-A      8.6796 eV  142.85 nm  f=0.0015  <S**2>=0.000
      18 -> 21         0.12373
      18 -> 22         0.68428

 Excited State   6:      Singlet-A      9.4816 eV  130.76 nm  f=0.3211  <S**2>=0.000
      17 -> 19        -0.30703
      17 -> 20         0.31085
      17 -> 21         0.29920
      18 -> 20         0.39190

 Excited State   7:      Singlet-A      9.4915 eV  130.63 nm  f=0.0508  <S**2>=0.000
      17 -> 20        -0.39725
      17 -> 21         0.53283
      17 -> 22        -0.10299
      18 -> 23        -0.14859

 Excited State   8:      Singlet-A      9.6654 eV  128.28 nm  f=0.0372  <S**2>=0.000
      15 -> 19        -0.13112
      17 -> 20        -0.22608
      17 -> 22        -0.21981
      18 -> 23         0.57512
      18 -> 24        -0.10414

 Excited State   9:      Singlet-A      9.8132 eV  126.34 nm  f=0.2106  <S**2>=0.000
      17 -> 19         0.24145
      17 -> 20         0.34259
      17 -> 21         0.33606
      17 -> 22         0.13214
      18 -> 20        -0.23953
      18 -> 23         0.27314
      18 -> 24        -0.11644

 Excited State  10:      Singlet-A      9.9365 eV  124.78 nm  f=0.0236  <S**2>=0.000
      15 -> 19        -0.29203
      17 -> 20        -0.15809
      17 -> 22         0.56566
      18 -> 24         0.20163

 Excited State  11:      Singlet-A     10.0076 eV  123.89 nm  f=0.0118  <S**2>=0.000
      14 -> 19        -0.14390
      15 -> 19         0.57297
      16 -> 20        -0.21525
      17 -> 22         0.23913
      18 -> 23         0.16757

 Excited State  12:      Singlet-A     10.1100 eV  122.64 nm  f=0.0432  <S**2>=0.000
      14 -> 19         0.49159
      15 -> 19         0.16824
      16 -> 20         0.34558
      17 -> 19        -0.10084
      17 -> 22         0.11331
      18 -> 24        -0.24018

 Excited State  13:      Singlet-A     10.1629 eV  122.00 nm  f=0.0174  <S**2>=0.000
      14 -> 19         0.17167
      15 -> 19         0.15894
      16 -> 20         0.17720
      17 -> 22        -0.13298
      18 -> 23         0.14713
      18 -> 24         0.59698

 Excited State  14:      Singlet-A     10.5000 eV  118.08 nm  f=0.0037  <S**2>=0.000
      14 -> 19        -0.42677
      16 -> 20         0.53701

 Excited State  15:      Singlet-A     10.6219 eV  116.72 nm  f=0.0032  <S**2>=0.000
      18 -> 25         0.68725

 The electronic state is 1-A.
 Alpha  occ. eigenvalues --  -19.10700 -10.18062 -10.17402 -10.12942 -10.12465
 Alpha  occ. eigenvalues --   -1.11879  -0.80257  -0.74631  -0.59433  -0.57409
 Alpha  occ. eigenvalues --   -0.53307  -0.45632  -0.44308  -0.41016  -0.40137
 Alpha  occ. eigenvalues --   -0.34936  -0.27787  -0.23055
 Alpha virt. eigenvalues --    0.01915   0.08233   0.12333   0.13017   0.17050
 Alpha virt. eigenvalues --    0.18107   0.20754   0.23910   0.35891   0.41319
 Alpha virt. eigenvalues --    0.48000   0.68126   0.69855   0.71089   0.74971

 Mulliken charges:
               1
     1  C   -0.238428
     2  C    0.048679
     3  O   -0.489350
     4  C    0.133311
     5  C   -0.267649
     6  H    0.178673
     7  H    0.222566
     8  H    0.222970
     9  H    0.189228
 Sum of Mulliken charges =   0.00000

 Dipole moment (field-independent basis, Debye):
    X=             -0.2724    Y=              0.5854    Z=              0.1863  Tot=              0.6721
 Quadrupole moment (field-independent basis, Debye-Ang):
   XX=            -23.2260   YY=            -28.1521   ZZ=            -31.8930
   XY=              0.9869   XZ=             -0.1777   YZ=              0.1797

 Normal termination of Gaussian 09 at Tue Dec 15 16:18:05 2015.
