 Gaussian 09, Revision D.01,
 Gaussian 09:  ES64L-G09RevD.01 24-Apr-2013

 ------------------------------------------------------------
 #P AM1(Input,print) CIS(Singlets,NStates=15) pop(full) force
 ------------------------------------------------------------

 -----------------
 AM1-Reparam Input
 -----------------
 Symbolic Z-matrix:
 Charge =  0 Multiplicity = 1

                         Standard orientation:
 ---------------------------------------------------------------------
 Center     Atomic      Atomic             Coordinates (Angstroms)
 Number     Number       Type             X           Y           Z
 ---------------------------------------------------------------------
      1          6           0       -0.376584    1.124644   -0.024671
      2          6           0       -1.163767    0.018786   -0.011134
      3          8           0       -0.392425   -1.095488    0.009137
      4          6           0        0.940801   -0.648277   -0.018496
      5          6           0        1.003911    0.667765    0.015701
      6          1           0        1.949612    1.267863    0.039996
      7          1           0        1.649509   -1.489261    0.007927
      8          1           0       -2.235078   -0.102056    0.071992
      9          1           0       -0.650812    2.109852    0.038586
 ---------------------------------------------------------------------

 SCF Done:  E(RAM1) =   2.84255595466     A.U. after   14 cycles

 Excitation energies and oscillator strengths:

 Excited State   1:      Singlet-A      5.1351 eV  241.44 nm  f=0.3439  <S**2>=0.000
      13 -> 14         0.69623
 This state for optimization and/or second-order correction.
 Total Energy, E(CIS) =   3.03126913566
 Copying the excited state density for this state as the 1-particle RhoCI density.

 Excited State   2:      Singlet-A      6.2896 eV  197.13 nm  f=0.0001  <S**2>=0.000
      13 -> 15        -0.44746
      13 -> 16         0.47166
      13 -> 18         0.23235

 Excited State   3:      Singlet-A      6.3368 eV  195.66 nm  f=0.0034  <S**2>=0.000
      13 -> 15         0.47859
      13 -> 16         0.44864
      13 -> 17        -0.21660

 Excited State   4:      Singlet-A      6.6381 eV  186.78 nm  f=0.0005  <S**2>=0.000
       9 -> 14         0.10055
      12 -> 14         0.69439

 Excited State   5:      Singlet-A      7.5284 eV  164.69 nm  f=0.0054  <S**2>=0.000
      13 -> 15         0.17219
      13 -> 17         0.26757
      13 -> 18         0.47914
      13 -> 19        -0.14529
      13 -> 20        -0.27215
      13 -> 21         0.21295

 Excited State   6:      Singlet-A      7.7131 eV  160.75 nm  f=0.0162  <S**2>=0.000
      10 -> 14         0.34945
      11 -> 14         0.24678
      13 -> 16         0.14889
      13 -> 17         0.45480
      13 -> 18        -0.18228
      13 -> 20         0.11173
      13 -> 21        -0.14803

 Excited State   7:      Singlet-A      7.8574 eV  157.79 nm  f=0.0017  <S**2>=0.000
      10 -> 14         0.43982
      11 -> 14         0.32483
      13 -> 16        -0.10048
      13 -> 17        -0.40372

 Excited State   8:      Singlet-A      8.3992 eV  147.61 nm  f=0.0010  <S**2>=0.000
      13 -> 16        -0.11854
      13 -> 18         0.29020
      13 -> 19         0.55628
      13 -> 20         0.27281

 Excited State   9:      Singlet-A      8.6383 eV  143.53 nm  f=0.0794  <S**2>=0.000
      10 -> 14        -0.39385
      11 -> 14         0.53517
      12 -> 15         0.15934

 Excited State  10:      Singlet-A      8.9343 eV  138.77 nm  f=0.0115  <S**2>=0.000
      13 -> 18        -0.28474
      13 -> 19         0.36583
      13 -> 20        -0.36522
      13 -> 21         0.36996

 Excited State  11:      Singlet-A      9.1946 eV  134.85 nm  f=0.0920  <S**2>=0.000
       8 -> 15        -0.13732
      10 -> 17         0.15631
      11 -> 17         0.10079
      12 -> 15         0.37463
      12 -> 16        -0.36145
      12 -> 18        -0.27056
      13 -> 21         0.12569

 Excited State  12:      Singlet-A      9.3192 eV  133.04 nm  f=0.0847  <S**2>=0.000
      13 -> 19        -0.13138
      13 -> 20         0.42458
      13 -> 21         0.51139

 Excited State  13:      Singlet-A      9.6518 eV  128.46 nm  f=0.0600  <S**2>=0.000
      10 -> 16        -0.13086
      11 -> 14        -0.11663
      11 -> 15         0.10272
      12 -> 15         0.45070
      12 -> 16         0.41126
      12 -> 17        -0.13793

 Excited State  14:      Singlet-A      9.7845 eV  126.71 nm  f=0.1369  <S**2>=0.000
       9 -> 16        -0.14783
      10 -> 15        -0.18042
      10 -> 16        -0.14341
      10 -> 17         0.23552
      11 -> 15        -0.18732
      11 -> 16        -0.16202
      11 -> 17         0.17481
      12 -> 15        -0.19446
      12 -> 16         0.27978
      12 -> 18        -0.18621
      12 -> 19         0.24332
      12 -> 20         0.14748

 Excited State  15:      Singlet-A     10.0147 eV  123.80 nm  f=0.0037  <S**2>=0.000
       7 -> 16         0.12798
       9 -> 14         0.24246
      10 -> 15        -0.21507
      10 -> 16        -0.22258
      10 -> 17         0.10394
      11 -> 15         0.24730
      11 -> 16         0.44393
      13 -> 16         0.12627

 The electronic state is 1-A.
 Alpha  occ. eigenvalues --   -1.70872  -1.11372  -0.92003  -0.78981  -0.74902
 Alpha  occ. eigenvalues --   -0.66259  -0.62861  -0.53419  -0.49768  -0.43278
 Alpha  occ. eigenvalues --   -0.42848  -0.39286  -0.27254
 Alpha virt. eigenvalues --    0.11855   0.18491   0.18694   0.25362   0.27713
 Alpha virt. eigenvalues --    0.28687   0.30612   0.31356   0.35950   0.45106
 Alpha virt. eigenvalues --    0.48863

 Mulliken charges:
               1
     1  C   -0.193443
     2  C   -1.948893
     3  O    3.208248
     4  C   -1.907306
     5  C   -0.098894
     6  H    0.173775
     7  H    0.280125
     8  H    0.307034
     9  H    0.179355
 Sum of Mulliken charges =   0.00000

 Dipole moment (field-independent basis, Debye):
    X=             -3.4418    Y=            -10.3587    Z=              0.6163  Tot=             10.9329
 N-N= 1.037251317886D+02 E-N=-1.687542546554D+02  KE=-1.474885211729D+01
 Orbital energies and kinetic energies (alpha):
                                 1                 2
   1         O                -1.708722         -1.194727
   2         O                -1.113715         -0.985308
   3         O                -0.920026         -0.850318
   4         O                -0.789811         -0.595484
   5         O                -0.749015         -0.676456
   6         O                -0.662589         -0.565437
   7         O                -0.628613         -0.519986

 Normal termination of Gaussian 09 at Tue Dec 15 17:06:01 2015.
