 Gaussian 09, Revision D.01,
 Gaussian 09:  ES64L-G09RevD.01 24-Apr-2013

 -------------------------------------------------------
 #P B3LYP/3-21G CIS(Singlets,NStates=15) pop(full) force
 -------------------------------------------------------

 --------
 FuranDFT
 --------
 Symbolic Z-matrix:
 Charge =  0 Multiplicity = 1

                         Standard orientation:
 ---------------------------------------------------------------------
 Center     Atomic      Atomic             Coordinates (Angstroms)
 Number     Number       Type             X           Y           Z
 ---------------------------------------------------------------------
      1          6           0        0.793690    0.909031   -0.010062
      2          6           0        1.055359   -0.510029    0.011774
      3          8           0       -0.149891   -1.129275   -0.013064
      4          6           0       -1.121935   -0.230682   -0.006400
      5          6           0       -0.571771    1.008855    0.009104
      6          1           0       -1.136870    2.020088    0.001615
      7          1           0       -2.183792   -0.585309    0.049894
      8          1           0        1.969325   -1.125736    0.039170
      9          1           0        1.618412    1.662100   -0.012663
 ---------------------------------------------------------------------

 SCF Done:  E(RB3LYP) =  -228.732152749     A.U. after   14 cycles

 Excitation energies and oscillator strengths:

 Excited State   1:      Singlet-A      7.0626 eV  175.55 nm  f=0.1972  <S**2>=0.000
      17 -> 19         0.25533
      18 -> 19         0.59842
      18 -> 20         0.21514
 This state for optimization and/or second-order correction.
 Total Energy, E(CIS) =  -228.472606655
 Copying the excited state density for this state as the 1-particle RhoCI density.

 Excited State   2:      Singlet-A      7.2217 eV  171.68 nm  f=0.0634  <S**2>=0.000
      17 -> 19         0.44047
      18 -> 19        -0.32360
      18 -> 20         0.43253

 Excited State   3:      Singlet-A      8.0018 eV  154.95 nm  f=0.0009  <S**2>=0.000
      18 -> 21         0.69473
      18 -> 22        -0.10502

 Excited State   4:      Singlet-A      8.4611 eV  146.53 nm  f=0.0040  <S**2>=0.000
      16 -> 19         0.70121

 Excited State   5:      Singlet-A      8.7740 eV  141.31 nm  f=0.0028  <S**2>=0.000
      18 -> 22         0.68659

 Excited State   6:      Singlet-A      9.2763 eV  133.66 nm  f=0.0485  <S**2>=0.000
      17 -> 19        -0.14656
      17 -> 21        -0.23743
      18 -> 20         0.15798
      18 -> 23         0.57821
      18 -> 24         0.20929

 Excited State   7:      Singlet-A      9.4644 eV  131.00 nm  f=0.4512  <S**2>=0.000
      17 -> 19        -0.40560
      17 -> 20        -0.11728
      18 -> 20         0.43364
      18 -> 23        -0.26335

 Excited State   8:      Singlet-A      9.5340 eV  130.04 nm  f=0.0126  <S**2>=0.000
      15 -> 19        -0.42053
      17 -> 21         0.48305
      18 -> 23         0.19446
      18 -> 24        -0.12958

 Excited State   9:      Singlet-A      9.5717 eV  129.53 nm  f=0.0154  <S**2>=0.000
      15 -> 19         0.53903
      16 -> 20        -0.10149
      17 -> 21         0.39297
      18 -> 23         0.13598

 Excited State  10:      Singlet-A      9.7658 eV  126.96 nm  f=0.0004  <S**2>=0.000
      17 -> 21         0.18183
      18 -> 23        -0.16191
      18 -> 24         0.65756

 Excited State  11:      Singlet-A     10.0803 eV  123.00 nm  f=0.2405  <S**2>=0.000
      17 -> 20         0.64684
      17 -> 22        -0.14670

 Excited State  12:      Singlet-A     10.2832 eV  120.57 nm  f=0.0063  <S**2>=0.000
      14 -> 19         0.67651
      16 -> 20         0.16748

 Excited State  13:      Singlet-A     10.3692 eV  119.57 nm  f=0.0165  <S**2>=0.000
      17 -> 20         0.12640
      17 -> 21         0.10113
      17 -> 22         0.67930

 Excited State  14:      Singlet-A     10.5932 eV  117.04 nm  f=0.0027  <S**2>=0.000
      14 -> 19        -0.12160
      16 -> 20         0.56501
      18 -> 25        -0.36895

 Excited State  15:      Singlet-A     10.6189 eV  116.76 nm  f=0.0013  <S**2>=0.000
      14 -> 19        -0.12539
      16 -> 20         0.34789
      18 -> 25         0.59062

 The electronic state is 1-A.
 Alpha  occ. eigenvalues --  -19.12179 -10.18275 -10.17786 -10.13142 -10.12604
 Alpha  occ. eigenvalues --   -1.14613  -0.80658  -0.75012  -0.59669  -0.56636
 Alpha  occ. eigenvalues --   -0.53637  -0.45884  -0.45084  -0.41623  -0.38971
 Alpha  occ. eigenvalues --   -0.35537  -0.28331  -0.22351
 Alpha virt. eigenvalues --    0.01546   0.08552   0.11455   0.14018   0.16350
 Alpha virt. eigenvalues --    0.17476   0.21826   0.24673   0.33317   0.41691
 Alpha virt. eigenvalues --    0.49506   0.68274   0.69778   0.71711   0.74275

 Mulliken charges:
               1
     1  C   -0.239626
     2  C    0.067219
     3  O   -0.494656
     4  C    0.125475
     5  C   -0.258024
     6  H    0.178333
     7  H    0.216268
     8  H    0.217550
     9  H    0.187462
 Sum of Mulliken charges =   0.00000

 Dipole moment (field-independent basis, Debye):
    X=              0.1229    Y=              0.5244    Z=              0.0814  Tot=              0.5447
 Quadrupole moment (field-independent basis, Debye-Ang):
   XX=            -23.5909   YY=            -28.0673   ZZ=            -32.0236
   XY=             -0.4669   XZ=             -0.0691   YZ=             -0.1172

 Normal termination of Gaussian 09 at Tue Dec 15 16:12:59 2015.
