 Gaussian 09, Revision D.01,
 Gaussian 09:  ES64L-G09RevD.01 24-Apr-2013

 ------------------------------------------------------------
 #P AM1(Input,print) CIS(Singlets,NStates=15) pop(full) force
 ------------------------------------------------------------

 -----------------
 AM1-Reparam Input
 -----------------
 Symbolic Z-matrix:
 Charge =  0 Multiplicity = 1

                         Standard orientation:
 ---------------------------------------------------------------------
 Center     Atomic      Atomic             Coordinates (Angstroms)
 Number     Number       Type             X           Y           Z
 ---------------------------------------------------------------------
      1          6           0       -0.948388    0.813173   -0.020257
      2          6           0       -0.985423   -0.618480   -0.014085
      3          8           0        0.261296   -1.072863    0.015507
      4          6           0        1.185691   -0.120481   -0.012115
      5          6           0        0.485941    1.046557    0.028516
      6          1           0        0.912059    2.022266   -0.028832
      7          1           0        2.133718   -0.338212   -0.046274
      8          1           0       -1.858493   -1.254421    0.018396
      9          1           0       -1.704583    1.428654    0.040298
 ---------------------------------------------------------------------

 SCF Done:  E(RAM1) =   1.80683893777     A.U. after   13 cycles

 Excitation energies and oscillator strengths:

 Excited State   1:      Singlet-A      5.4617 eV  227.00 nm  f=0.3673  <S**2>=0.000
      13 -> 14         0.69200
 This state for optimization and/or second-order correction.
 Total Energy, E(CIS) =   2.00755454808
 Copying the excited state density for this state as the 1-particle RhoCI density.

 Excited State   2:      Singlet-A      6.8252 eV  181.66 nm  f=0.0146  <S**2>=0.000
      13 -> 15         0.67850
      13 -> 17        -0.12620

 Excited State   3:      Singlet-A      7.1913 eV  172.41 nm  f=0.0007  <S**2>=0.000
      12 -> 14         0.69094

 Excited State   4:      Singlet-A      7.2708 eV  170.52 nm  f=0.0017  <S**2>=0.000
      13 -> 16         0.65541
      13 -> 17         0.14076
      13 -> 19         0.14720

 Excited State   5:      Singlet-A      8.1308 eV  152.49 nm  f=0.0000  <S**2>=0.000
      13 -> 16        -0.14810
      13 -> 17         0.58510
      13 -> 18        -0.28736
      13 -> 20         0.11066
      13 -> 21        -0.13125

 Excited State   6:      Singlet-A      8.5329 eV  145.30 nm  f=0.0050  <S**2>=0.000
      10 -> 14         0.69752

 Excited State   7:      Singlet-A      8.8700 eV  139.78 nm  f=0.1345  <S**2>=0.000
      11 -> 14         0.69172

 Excited State   8:      Singlet-A      9.6458 eV  128.54 nm  f=0.0091  <S**2>=0.000
      11 -> 15        -0.12093
      11 -> 16         0.18919
      13 -> 17         0.27293
      13 -> 18         0.56800
      13 -> 20        -0.12422

 Excited State   9:      Singlet-A      9.7748 eV  126.84 nm  f=0.0688  <S**2>=0.000
       9 -> 16        -0.15366
      10 -> 15        -0.20629
      10 -> 16        -0.14875
      10 -> 18         0.16433
      12 -> 15         0.42670
      12 -> 17        -0.35046
      13 -> 18         0.10497

 Excited State  10:      Singlet-A      9.9316 eV  124.84 nm  f=0.0024  <S**2>=0.000
      11 -> 15        -0.30649
      13 -> 19         0.58722
      13 -> 20         0.10085
      13 -> 21        -0.11517

 Excited State  11:      Singlet-A     10.1628 eV  122.00 nm  f=0.0817  <S**2>=0.000
      10 -> 15         0.11950
      12 -> 15         0.22831
      12 -> 16         0.58849
      12 -> 17         0.16501
      12 -> 18        -0.12120

 Excited State  12:      Singlet-A     10.4828 eV  118.27 nm  f=0.0059  <S**2>=0.000
       9 -> 14        -0.11154
      11 -> 15         0.54750
      12 -> 15         0.12602
      13 -> 16        -0.14330
      13 -> 19         0.25740

 Excited State  13:      Singlet-A     10.5847 eV  117.14 nm  f=0.0823  <S**2>=0.000
       9 -> 14         0.13645
      10 -> 15         0.20729
      11 -> 15        -0.15588
      12 -> 15         0.33628
      12 -> 16        -0.24027
      12 -> 17         0.22617
      12 -> 18        -0.12083
      12 -> 19        -0.13445
      13 -> 19        -0.11509
      13 -> 20         0.20841
      13 -> 21        -0.20283

 Excited State  14:      Singlet-A     10.6086 eV  116.87 nm  f=0.0358  <S**2>=0.000
       9 -> 14        -0.21434
      10 -> 15         0.13932
      12 -> 15         0.19595
      12 -> 16        -0.14435
      12 -> 17         0.13459
      13 -> 18        -0.10621
      13 -> 20        -0.36386
      13 -> 21         0.38481

 Excited State  15:      Singlet-A     10.7587 eV  115.24 nm  f=0.0049  <S**2>=0.000
       9 -> 14         0.60922
      11 -> 16        -0.11881
      13 -> 19         0.13420
      13 -> 20        -0.24941

 The electronic state is 1-A.
 Alpha  occ. eigenvalues --   -2.01561  -1.26505  -1.03187  -0.91310  -0.85668
 Alpha  occ. eigenvalues --   -0.78348  -0.75654  -0.67144  -0.62080  -0.55886
 Alpha  occ. eigenvalues --   -0.53690  -0.51226  -0.39334
 Alpha virt. eigenvalues --    0.01520   0.09918   0.11741   0.17617   0.19787
 Alpha virt. eigenvalues --    0.21104   0.24029   0.24885   0.31016   0.37837
 Alpha virt. eigenvalues --    0.45159

 Mulliken charges:
               1
     1  C   -0.072472
     2  C   -1.965796
     3  O    3.191640
     4  C   -1.896098
     5  C   -0.144745
     6  H    0.167011
     7  H    0.274178
     8  H    0.308395
     9  H    0.137888
 Sum of Mulliken charges =   0.00000

 Dipole moment (field-independent basis, Debye):
    X=              1.8587    Y=             -8.8076    Z=              0.3750  Tot=              9.0093
 N-N= 1.060283117077D+02 E-N=-1.708925201735D+02  KE=-1.571861897374D+01
 Orbital energies and kinetic energies (alpha):
                                 1                 2
   1         O                -2.015612         -1.407163
   2         O                -1.265045         -1.030786
   3         O                -1.031867         -0.879674
   4         O                -0.913102         -0.604210
   5         O                -0.856683         -0.712789
   6         O                -0.783475         -0.617645
   7         O                -0.756536         -0.537676

 Normal termination of Gaussian 09 at Tue Dec 15 17:09:00 2015.
