 Gaussian 09, Revision D.01,
 Gaussian 09:  ES64L-G09RevD.01 24-Apr-2013

 ------------------------------------------------------------
 #P AM1(Input,print) CIS(Singlets,NStates=15) pop(full) force
 ------------------------------------------------------------

 -----------------
 AM1-Reparam Input
 -----------------
 Symbolic Z-matrix:
 Charge =  0 Multiplicity = 1

                         Standard orientation:
 ---------------------------------------------------------------------
 Center     Atomic      Atomic             Coordinates (Angstroms)
 Number     Number       Type             X           Y           Z
 ---------------------------------------------------------------------
      1          6           0       -0.520978    1.102256   -0.031309
      2          6           0       -1.158001   -0.172240   -0.009191
      3          8           0       -0.207656   -1.147392    0.007263
      4          6           0        1.042012   -0.528583   -0.022241
      5          6           0        0.868888    0.809823    0.035096
      6          1           0        1.608042    1.564539    0.007360
      7          1           0        1.895582   -1.141840   -0.003126
      8          1           0       -2.203763   -0.517997    0.079096
      9          1           0       -1.030141    2.006900    0.024441
 ---------------------------------------------------------------------

 SCF Done:  E(RAM1) =   2.09292175633     A.U. after   13 cycles

 Excitation energies and oscillator strengths:

 Excited State   1:      Singlet-A      5.6065 eV  221.14 nm  f=0.3574  <S**2>=0.000
      13 -> 14         0.69477
 This state for optimization and/or second-order correction.
 Total Energy, E(CIS) =   2.29895656458
 Copying the excited state density for this state as the 1-particle RhoCI density.

 Excited State   2:      Singlet-A      6.6898 eV  185.33 nm  f=0.0028  <S**2>=0.000
      11 -> 15        -0.11812
      13 -> 15         0.65359
      13 -> 16         0.10069
      13 -> 17        -0.18856

 Excited State   3:      Singlet-A      7.0261 eV  176.46 nm  f=0.0011  <S**2>=0.000
      11 -> 16         0.11970
      13 -> 16         0.65878
      13 -> 18        -0.10760
      13 -> 19         0.12498

 Excited State   4:      Singlet-A      7.2904 eV  170.07 nm  f=0.0012  <S**2>=0.000
      12 -> 14         0.69492

 Excited State   5:      Singlet-A      8.1475 eV  152.17 nm  f=0.0072  <S**2>=0.000
      10 -> 14         0.66601
      13 -> 17        -0.17190

 Excited State   6:      Singlet-A      8.3072 eV  149.25 nm  f=0.0002  <S**2>=0.000
      10 -> 14        -0.20175
      11 -> 15         0.11577
      13 -> 15        -0.10023
      13 -> 17        -0.34849
      13 -> 18         0.44235
      13 -> 22        -0.31512

 Excited State   7:      Singlet-A      8.6497 eV  143.34 nm  f=0.0133  <S**2>=0.000
      11 -> 16         0.11849
      13 -> 15         0.10359
      13 -> 17         0.53466
      13 -> 18         0.35830
      13 -> 22        -0.17995

 Excited State   8:      Singlet-A      8.9203 eV  138.99 nm  f=0.0851  <S**2>=0.000
      11 -> 14         0.67205
      13 -> 21         0.10906

 Excited State   9:      Singlet-A      9.3502 eV  132.60 nm  f=0.0011  <S**2>=0.000
      11 -> 15        -0.11241
      13 -> 18         0.13293
      13 -> 19         0.64529
      13 -> 20         0.12244

 Excited State  10:      Singlet-A      9.7617 eV  127.01 nm  f=0.0021  <S**2>=0.000
      13 -> 18         0.35706
      13 -> 19        -0.16985
      13 -> 20         0.19425
      13 -> 21        -0.14265
      13 -> 22         0.51919

 Excited State  11:      Singlet-A      9.8618 eV  125.72 nm  f=0.0149  <S**2>=0.000
       8 -> 15         0.12589
      10 -> 15        -0.12061
      10 -> 16        -0.15783
      10 -> 17         0.19163
      10 -> 18         0.10313
      11 -> 15         0.10229
      12 -> 15         0.37714
      12 -> 16        -0.20410
      12 -> 17        -0.18489
      12 -> 18         0.23261
      13 -> 20         0.20077

 Excited State  12:      Singlet-A     10.1033 eV  122.72 nm  f=0.0746  <S**2>=0.000
      11 -> 15         0.31006
      12 -> 18        -0.11398
      13 -> 20         0.45842
      13 -> 21        -0.24492
      13 -> 22        -0.18559

 Excited State  13:      Singlet-A     10.1468 eV  122.19 nm  f=0.0217  <S**2>=0.000
      11 -> 15         0.46453
      11 -> 16         0.12596
      12 -> 15         0.21972
      12 -> 16         0.15419
      13 -> 15         0.14047
      13 -> 19         0.13449
      13 -> 20        -0.24566
      13 -> 22         0.18801

 Excited State  14:      Singlet-A     10.3085 eV  120.27 nm  f=0.0937  <S**2>=0.000
      11 -> 14        -0.11057
      11 -> 15        -0.21174
      12 -> 15         0.22652
      12 -> 16         0.51335
      12 -> 17        -0.10132
      13 -> 20         0.16072
      13 -> 21         0.18765

 Excited State  15:      Singlet-A     10.3967 eV  119.25 nm  f=0.2094  <S**2>=0.000
      10 -> 15         0.46595
      10 -> 17        -0.20153
      11 -> 15        -0.14889
      12 -> 15         0.31330
      12 -> 16        -0.20494
      12 -> 18        -0.11650
      12 -> 19        -0.11054

 The electronic state is 1-A.
 Alpha  occ. eigenvalues --   -1.92762  -1.18491  -0.92311  -0.80432  -0.78818
 Alpha  occ. eigenvalues --   -0.69347  -0.64984  -0.55559  -0.54322  -0.45087
 Alpha  occ. eigenvalues --   -0.44274  -0.42284  -0.29865
 Alpha virt. eigenvalues --    0.11428   0.17653   0.19314   0.25583   0.27866
 Alpha virt. eigenvalues --    0.29520   0.30948   0.31284   0.31981   0.39369
 Alpha virt. eigenvalues --    0.43795

 Mulliken charges:
               1
     1  C   -0.166089
     2  C   -1.911295
     3  O    3.219525
     4  C   -1.884010
     5  C   -0.106491
     6  H    0.155967
     7  H    0.265454
     8  H    0.266462
     9  H    0.160478
 Sum of Mulliken charges =   0.00000

 Dipole moment (field-independent basis, Debye):
    X=             -1.8188    Y=            -10.5780    Z=              0.5408  Tot=             10.7469
 N-N= 1.036614259949D+02 E-N=-1.684656725876D+02  KE=-1.530061456309D+01
 Orbital energies and kinetic energies (alpha):
                                 1                 2
   1         O                -1.927623         -1.342862
   2         O                -1.184906         -1.049117
   3         O                -0.923112         -0.876482
   4         O                -0.804323         -0.569329
   5         O                -0.788177         -0.683679
   6         O                -0.693467         -0.605292
   7         O                -0.649837         -0.522425

 Normal termination of Gaussian 09 at Tue Dec 15 17:09:12 2015.
