 Gaussian 09, Revision D.01,
 Gaussian 09:  ES64L-G09RevD.01 24-Apr-2013

 ------------------------------------------------------------
 #P AM1(Input,print) CIS(Singlets,NStates=15) pop(full) force
 ------------------------------------------------------------

 -----------------
 AM1-Reparam Input
 -----------------
 Symbolic Z-matrix:
 Charge =  0 Multiplicity = 1

                         Standard orientation:
 ---------------------------------------------------------------------
 Center     Atomic      Atomic             Coordinates (Angstroms)
 Number     Number       Type             X           Y           Z
 ---------------------------------------------------------------------
      1          6           0        0.559627    1.015389   -0.006607
      2          6           0        1.137285   -0.187972   -0.011430
      3          8           0        0.185658   -1.112927   -0.013445
      4          6           0       -1.030920   -0.500435    0.009945
      5          6           0       -0.857226    0.843068    0.026187
      6          1           0       -1.665486    1.532788   -0.070999
      7          1           0       -1.887181   -1.162659   -0.006423
      8          1           0        2.129413   -0.494770    0.098703
      9          1           0        1.085399    2.007760   -0.022291
 ---------------------------------------------------------------------

 SCF Done:  E(RAM1) =   2.83261309216     A.U. after   13 cycles

 Excitation energies and oscillator strengths:

 Excited State   1:      Singlet-A      5.2796 eV  234.84 nm  f=0.3333  <S**2>=0.000
      13 -> 14         0.69423
 This state for optimization and/or second-order correction.
 Total Energy, E(CIS) =   3.02663551238
 Copying the excited state density for this state as the 1-particle RhoCI density.

 Excited State   2:      Singlet-A      6.5410 eV  189.55 nm  f=0.0087  <S**2>=0.000
      13 -> 15         0.64042
      13 -> 17        -0.25598

 Excited State   3:      Singlet-A      6.6524 eV  186.38 nm  f=0.0003  <S**2>=0.000
      12 -> 14        -0.13164
      13 -> 16         0.62387
      13 -> 18         0.21398
      13 -> 19         0.12699

 Excited State   4:      Singlet-A      6.7245 eV  184.38 nm  f=0.0004  <S**2>=0.000
       9 -> 14         0.12413
      12 -> 14         0.67841
      13 -> 16         0.12579

 Excited State   5:      Singlet-A      7.6756 eV  161.53 nm  f=0.0088  <S**2>=0.000
      10 -> 14         0.31700
      11 -> 14         0.44660
      13 -> 15         0.11933
      13 -> 16         0.10100
      13 -> 17         0.29085
      13 -> 18        -0.17714
      13 -> 21        -0.19866

 Excited State   6:      Singlet-A      7.7617 eV  159.74 nm  f=0.0005  <S**2>=0.000
      10 -> 14         0.23853
      11 -> 14         0.34339
      13 -> 16        -0.12807
      13 -> 17        -0.24269
      13 -> 18         0.29964
      13 -> 19        -0.10276
      13 -> 20        -0.21063
      13 -> 21         0.29679

 Excited State   7:      Singlet-A      8.0320 eV  154.36 nm  f=0.0103  <S**2>=0.000
      11 -> 14        -0.10682
      13 -> 15         0.19287
      13 -> 17         0.52737
      13 -> 18         0.25556
      13 -> 20        -0.16063
      13 -> 21         0.22431

 Excited State   8:      Singlet-A      8.5571 eV  144.89 nm  f=0.0010  <S**2>=0.000
      13 -> 16        -0.16779
      13 -> 18         0.22086
      13 -> 19         0.62855

 Excited State   9:      Singlet-A      8.6708 eV  142.99 nm  f=0.0998  <S**2>=0.000
      10 -> 14         0.55965
      11 -> 14        -0.39164
      12 -> 15         0.10782

 Excited State  10:      Singlet-A      8.9775 eV  138.11 nm  f=0.0107  <S**2>=0.000
      13 -> 18         0.45459
      13 -> 19        -0.24616
      13 -> 20         0.25370
      13 -> 21        -0.39456

 Excited State  11:      Singlet-A      9.3642 eV  132.40 nm  f=0.0179  <S**2>=0.000
       8 -> 15         0.13484
       9 -> 18         0.12147
      10 -> 15        -0.11606
      10 -> 17         0.15939
      11 -> 15        -0.10365
      11 -> 17         0.19434
      12 -> 16         0.41618
      12 -> 17        -0.12529
      12 -> 18         0.27226
      12 -> 20        -0.10271
      12 -> 21         0.13160
      13 -> 20         0.16963

 Excited State  12:      Singlet-A      9.4475 eV  131.24 nm  f=0.0753  <S**2>=0.000
      12 -> 16        -0.12350
      13 -> 20         0.55934
      13 -> 21         0.36720

 Excited State  13:      Singlet-A      9.5331 eV  130.06 nm  f=0.0777  <S**2>=0.000
       9 -> 15        -0.10082
      11 -> 15        -0.15286
      11 -> 16         0.10460
      12 -> 15         0.51906
      12 -> 16        -0.25229
      12 -> 17        -0.19202
      12 -> 20        -0.10565

 Excited State  14:      Singlet-A      9.7636 eV  126.99 nm  f=0.1698  <S**2>=0.000
       9 -> 16        -0.10228
      11 -> 15         0.31755
      11 -> 16         0.22148
      11 -> 17        -0.15021
      12 -> 15         0.29226
      12 -> 16         0.36297
      12 -> 19         0.16662

 Excited State  15:      Singlet-A      9.8241 eV  126.20 nm  f=0.0022  <S**2>=0.000
       9 -> 14         0.67265
      12 -> 14        -0.12261

 The electronic state is 1-A.
 Alpha  occ. eigenvalues --   -1.73447  -1.12082  -0.93738  -0.79908  -0.75344
 Alpha  occ. eigenvalues --   -0.66228  -0.64671  -0.54827  -0.49687  -0.43939
 Alpha  occ. eigenvalues --   -0.43268  -0.40106  -0.28850
 Alpha virt. eigenvalues --    0.11155   0.18490   0.18836   0.24177   0.26936
 Alpha virt. eigenvalues --    0.27652   0.29408   0.29972   0.38252   0.46871
 Alpha virt. eigenvalues --    0.51490

 Mulliken charges:
               1
     1  C   -0.160712
     2  C   -1.959450
     3  O    3.219850
     4  C   -1.957298
     5  C   -0.120838
     6  H    0.182296
     7  H    0.299566
     8  H    0.311677
     9  H    0.184908
 Sum of Mulliken charges =   0.00000

 Dipole moment (field-independent basis, Debye):
    X=              1.6836    Y=             -9.8252    Z=             -0.0707  Tot=              9.9687
 N-N= 1.044029432434D+02 E-N=-1.698107495999D+02  KE=-1.480802438116D+01
 Orbital energies and kinetic energies (alpha):
                                 1                 2
   1         O                -1.734466         -1.238074
   2         O                -1.120824         -0.979319
   3         O                -0.937382         -0.850500
   4         O                -0.799081         -0.600174
   5         O                -0.753438         -0.685409
   6         O                -0.662284         -0.562038
   7         O                -0.646706         -0.526185

 Normal termination of Gaussian 09 at Tue Dec 15 17:05:56 2015.
