 Gaussian 09, Revision D.01,
 Gaussian 09:  ES64L-G09RevD.01 24-Apr-2013

 ------------------------------------------------------------
 #P AM1(Input,print) CIS(Singlets,NStates=15) pop(full) force
 ------------------------------------------------------------

 -----------------
 AM1-Reparam Input
 -----------------
 Symbolic Z-matrix:
 Charge =  0 Multiplicity = 1

                         Standard orientation:
 ---------------------------------------------------------------------
 Center     Atomic      Atomic             Coordinates (Angstroms)
 Number     Number       Type             X           Y           Z
 ---------------------------------------------------------------------
      1          6           0       -0.649419    0.961871   -0.002631
      2          6           0       -1.095568   -0.246318    0.001723
      3          8           0       -0.104229   -1.154401    0.000617
      4          6           0        1.085947   -0.418762   -0.000511
      5          6           0        0.768999    0.916622    0.000003
      6          1           0        1.440928    1.691179    0.031100
      7          1           0        2.021488   -0.928274   -0.019471
      8          1           0       -2.054341   -0.701881    0.012815
      9          1           0       -1.233998    1.893702   -0.020884
 ---------------------------------------------------------------------

 SCF Done:  E(RAM1) =   2.08633753480     A.U. after   13 cycles

 Excitation energies and oscillator strengths:

 Excited State   1:      Singlet-A      5.3500 eV  231.74 nm  f=0.3421  <S**2>=0.000
      13 -> 14         0.69499
 This state for optimization and/or second-order correction.
 Total Energy, E(CIS) =   2.28294824585
 Copying the excited state density for this state as the 1-particle RhoCI density.

 Excited State   2:      Singlet-A      6.6070 eV  187.66 nm  f=0.0045  <S**2>=0.000
      10 -> 15         0.10026
      13 -> 15         0.65233
      13 -> 17         0.16979
      13 -> 18         0.15692

 Excited State   3:      Singlet-A      6.7838 eV  182.76 nm  f=0.0000  <S**2>=0.000
      12 -> 14         0.69237

 Excited State   4:      Singlet-A      6.9520 eV  178.34 nm  f=0.0079  <S**2>=0.000
      13 -> 16         0.63927
      13 -> 17         0.11391
      13 -> 18        -0.23489

 Excited State   5:      Singlet-A      7.7496 eV  159.99 nm  f=0.0062  <S**2>=0.000
      10 -> 14         0.10692
      11 -> 14         0.68952

 Excited State   6:      Singlet-A      7.9352 eV  156.25 nm  f=0.0018  <S**2>=0.000
      13 -> 15        -0.11730
      13 -> 16         0.16891
      13 -> 18         0.43251
      13 -> 19         0.41296
      13 -> 20         0.26698

 Excited State   7:      Singlet-A      8.5337 eV  145.29 nm  f=0.0169  <S**2>=0.000
      13 -> 15        -0.17022
      13 -> 17         0.62910
      13 -> 18         0.10783
      13 -> 19        -0.19745

 Excited State   8:      Singlet-A      8.8300 eV  140.41 nm  f=0.1031  <S**2>=0.000
      10 -> 14         0.67620
      11 -> 14        -0.10602

 Excited State   9:      Singlet-A      9.1050 eV  136.17 nm  f=0.0037  <S**2>=0.000
      10 -> 16         0.15205
      13 -> 16        -0.16742
      13 -> 17         0.19496
      13 -> 18        -0.39973
      13 -> 19         0.47521

 Excited State  10:      Singlet-A      9.4543 eV  131.14 nm  f=0.0446  <S**2>=0.000
       8 -> 15        -0.10527
      11 -> 15        -0.16709
      11 -> 16        -0.12641
      11 -> 17        -0.19958
      12 -> 15         0.31172
      12 -> 16        -0.28715
      12 -> 18         0.34410
      12 -> 19         0.20077

 Excited State  11:      Singlet-A      9.6213 eV  128.86 nm  f=0.0203  <S**2>=0.000
      13 -> 18        -0.20396
      13 -> 19        -0.22651
      13 -> 20         0.60010
      13 -> 21         0.19053

 Excited State  12:      Singlet-A      9.7833 eV  126.73 nm  f=0.1062  <S**2>=0.000
      11 -> 15         0.23660
      11 -> 17         0.13407
      12 -> 15         0.54954
      12 -> 16         0.13248
      12 -> 17         0.20863
      12 -> 19        -0.11608

 Excited State  13:      Singlet-A     10.0504 eV  123.36 nm  f=0.0566  <S**2>=0.000
      13 -> 20        -0.20555
      13 -> 21         0.66008

 Excited State  14:      Singlet-A     10.3400 eV  119.91 nm  f=0.1444  <S**2>=0.000
      10 -> 15         0.19916
      11 -> 15        -0.13475
      11 -> 16        -0.39365
      11 -> 17        -0.13051
      11 -> 18         0.11487
      12 -> 16         0.42401
      12 -> 19         0.18580

 Excited State  15:      Singlet-A     10.3965 eV  119.26 nm  f=0.0228  <S**2>=0.000
       7 -> 15        -0.11988
      10 -> 15         0.54981
      10 -> 16         0.24040
      10 -> 17         0.12797
      11 -> 16         0.13093
      12 -> 16        -0.17621
      13 -> 15        -0.11231

 The electronic state is 1-A.
 Alpha  occ. eigenvalues --   -1.94320  -1.21456  -0.96744  -0.82427  -0.79198
 Alpha  occ. eigenvalues --   -0.69165  -0.65608  -0.54719  -0.53876  -0.44134
 Alpha  occ. eigenvalues --   -0.43618  -0.40739  -0.28936
 Alpha virt. eigenvalues --    0.11507   0.18460   0.21074   0.26332   0.27680
 Alpha virt. eigenvalues --    0.29208   0.30970   0.32077   0.34960   0.44077
 Alpha virt. eigenvalues --    0.48149

 Mulliken charges:
               1
     1  C   -0.238275
     2  C   -1.970051
     3  O    3.183075
     4  C   -2.014338
     5  C   -0.197371
     6  H    0.249320
     7  H    0.367222
     8  H    0.360244
     9  H    0.260174
 Sum of Mulliken charges =   0.00000

 Dipole moment (field-independent basis, Debye):
    X=             -1.4655    Y=            -10.4270    Z=             -0.0043  Tot=             10.5295
 N-N= 1.047885205017D+02 E-N=-1.703619710853D+02  KE=-1.554360744471D+01
 Orbital energies and kinetic energies (alpha):
                                 1                 2
   1         O                -1.943203         -1.387769
   2         O                -1.214560         -1.079286
   3         O                -0.967438         -0.886787
   4         O                -0.824270         -0.600620
   5         O                -0.791977         -0.678597
   6         O                -0.691651         -0.572310
   7         O                -0.656085         -0.527235

 Normal termination of Gaussian 09 at Tue Dec 15 17:07:13 2015.
