 Gaussian 09, Revision D.01,
 Gaussian 09:  ES64L-G09RevD.01 24-Apr-2013

 -------------------------------------------------------
 #P B3LYP/3-21G CIS(Singlets,NStates=15) pop(full) force
 -------------------------------------------------------

 --------
 FuranDFT
 --------
 Symbolic Z-matrix:
 Charge =  0 Multiplicity = 1

                         Standard orientation:
 ---------------------------------------------------------------------
 Center     Atomic      Atomic             Coordinates (Angstroms)
 Number     Number       Type             X           Y           Z
 ---------------------------------------------------------------------
      1          6           0        0.811789    0.906537    0.025962
      2          6           0        1.075719   -0.432537   -0.019495
      3          8           0       -0.075229   -1.151355    0.012376
      4          6           0       -1.172783   -0.259584   -0.018905
      5          6           0       -0.628214    1.018835    0.000406
      6          1           0       -1.201693    1.945600   -0.018772
      7          1           0       -2.175478   -0.712502    0.035409
      8          1           0        1.920125   -1.066049   -0.008658
      9          1           0        1.539818    1.644287   -0.034797
 ---------------------------------------------------------------------

 SCF Done:  E(RB3LYP) =  -228.746523861     A.U. after   14 cycles

 Excitation energies and oscillator strengths:

 Excited State   1:      Singlet-A      6.9982 eV  177.17 nm  f=0.0463  <S**2>=0.000
      17 -> 19         0.47203
      18 -> 19         0.31334
      18 -> 20         0.40308
 This state for optimization and/or second-order correction.
 Total Energy, E(CIS) =  -228.489345121
 Copying the excited state density for this state as the 1-particle RhoCI density.

 Excited State   2:      Singlet-A      7.1454 eV  173.52 nm  f=0.1766  <S**2>=0.000
      17 -> 19        -0.23044
      18 -> 19         0.60440
      18 -> 20        -0.22721

 Excited State   3:      Singlet-A      8.4115 eV  147.40 nm  f=0.0041  <S**2>=0.000
      16 -> 19         0.70145

 Excited State   4:      Singlet-A      8.5912 eV  144.32 nm  f=0.0005  <S**2>=0.000
      18 -> 21         0.65787
      18 -> 22        -0.23311

 Excited State   5:      Singlet-A      9.0777 eV  136.58 nm  f=0.0025  <S**2>=0.000
      18 -> 21         0.23154
      18 -> 22         0.65487

 Excited State   6:      Singlet-A      9.2999 eV  133.32 nm  f=0.2024  <S**2>=0.000
      17 -> 19         0.19058
      17 -> 20         0.61434
      18 -> 20        -0.19599

 Excited State   7:      Singlet-A      9.4138 eV  131.70 nm  f=0.0941  <S**2>=0.000
      17 -> 19         0.16019
      17 -> 20        -0.19466
      17 -> 21         0.18420
      18 -> 20        -0.19823
      18 -> 23         0.57512

 Excited State   8:      Singlet-A      9.5265 eV  130.15 nm  f=0.3657  <S**2>=0.000
      15 -> 19        -0.14210
      17 -> 19        -0.33079
      17 -> 20         0.20632
      18 -> 20         0.39443
      18 -> 23         0.34130

 Excited State   9:      Singlet-A      9.7895 eV  126.65 nm  f=0.0289  <S**2>=0.000
      17 -> 21         0.63373
      17 -> 22        -0.22058
      18 -> 23        -0.13065

 Excited State  10:      Singlet-A      9.9712 eV  124.34 nm  f=0.0102  <S**2>=0.000
      14 -> 19        -0.11673
      15 -> 19         0.63344
      16 -> 20        -0.24192

 Excited State  11:      Singlet-A     10.1177 eV  122.54 nm  f=0.0038  <S**2>=0.000
      14 -> 19         0.41035
      15 -> 19         0.24958
      16 -> 20         0.50040

 Excited State  12:      Singlet-A     10.1556 eV  122.08 nm  f=0.0077  <S**2>=0.000
      17 -> 21         0.20752
      17 -> 22         0.65794

 Excited State  13:      Singlet-A     10.4157 eV  119.04 nm  f=0.0001  <S**2>=0.000
      16 -> 20        -0.10426
      18 -> 24         0.66437

 Excited State  14:      Singlet-A     10.5025 eV  118.05 nm  f=0.0005  <S**2>=0.000
      12 -> 19        -0.10172
      14 -> 19         0.51793
      16 -> 20        -0.40177
      17 -> 23         0.16906
      18 -> 24        -0.14749

 Excited State  15:      Singlet-A     10.7215 eV  115.64 nm  f=0.0006  <S**2>=0.000
      12 -> 19         0.11507
      14 -> 19        -0.13364
      17 -> 23         0.65532

 The electronic state is 1-A.
 Alpha  occ. eigenvalues --  -19.10617 -10.18214 -10.17531 -10.13402 -10.12399
 Alpha  occ. eigenvalues --   -1.10851  -0.79658  -0.74570  -0.59943  -0.57038
 Alpha  occ. eigenvalues --   -0.53855  -0.44620  -0.43730  -0.42026  -0.40505
 Alpha  occ. eigenvalues --   -0.35380  -0.27353  -0.23144
 Alpha virt. eigenvalues --    0.01480   0.07472   0.13316   0.14328   0.16383
 Alpha virt. eigenvalues --    0.19253   0.21019   0.22366   0.34458   0.40731
 Alpha virt. eigenvalues --    0.46638   0.68226   0.70012   0.70154   0.74356

 Mulliken charges:
               1
     1  C   -0.252909
     2  C    0.099818
     3  O   -0.478066
     4  C    0.063693
     5  C   -0.253312
     6  H    0.188000
     7  H    0.220384
     8  H    0.222635
     9  H    0.189756
 Sum of Mulliken charges =   0.00000

 Dipole moment (field-independent basis, Debye):
    X=              0.0308    Y=              0.6381    Z=             -0.0362  Tot=              0.6399
 Quadrupole moment (field-independent basis, Debye-Ang):
   XX=            -23.2650   YY=            -28.0648   ZZ=            -31.9487
   XY=             -0.2724   XZ=             -0.1804   YZ=             -0.1403

 Normal termination of Gaussian 09 at Tue Dec 15 16:26:26 2015.
