 Gaussian 09, Revision D.01,
 Gaussian 09:  ES64L-G09RevD.01 24-Apr-2013

 ------------------------------------------------------------
 #P AM1(Input,print) CIS(Singlets,NStates=15) pop(full) force
 ------------------------------------------------------------

 -----------------
 AM1-Reparam Input
 -----------------
 Symbolic Z-matrix:
 Charge =  0 Multiplicity = 1

                         Standard orientation:
 ---------------------------------------------------------------------
 Center     Atomic      Atomic             Coordinates (Angstroms)
 Number     Number       Type             X           Y           Z
 ---------------------------------------------------------------------
      1          6           0       -1.130919    0.287243   -0.029313
      2          6           0       -0.637332   -0.884118    0.006210
      3          8           0        0.735099   -0.927321   -0.005206
      4          6           0        1.033423    0.377811   -0.009964
      5          6           0       -0.047682    1.198774    0.038390
      6          1           0        0.041450    2.270713   -0.035986
      7          1           0        2.146735    0.537052   -0.008008
      8          1           0       -1.150029   -1.903191    0.061767
      9          1           0       -2.223890    0.635741   -0.008065
 ---------------------------------------------------------------------

 SCF Done:  E(RAM1) =   2.17120780231     A.U. after   13 cycles

 Excitation energies and oscillator strengths:

 Excited State   1:      Singlet-A      5.5131 eV  224.89 nm  f=0.3345  <S**2>=0.000
      13 -> 14         0.69351
 This state for optimization and/or second-order correction.
 Total Energy, E(CIS) =   2.37381133658
 Copying the excited state density for this state as the 1-particle RhoCI density.

 Excited State   2:      Singlet-A      5.9218 eV  209.37 nm  f=0.0000  <S**2>=0.000
      13 -> 15         0.67980
      13 -> 19        -0.11350

 Excited State   3:      Singlet-A      6.0513 eV  204.89 nm  f=0.0050  <S**2>=0.000
      13 -> 16         0.68092

 Excited State   4:      Singlet-A      7.2044 eV  172.10 nm  f=0.0011  <S**2>=0.000
      12 -> 14         0.70005

 Excited State   5:      Singlet-A      7.8556 eV  157.83 nm  f=0.0049  <S**2>=0.000
      11 -> 14        -0.15779
      13 -> 17         0.62920
      13 -> 19         0.15184
      13 -> 22         0.16588

 Excited State   6:      Singlet-A      8.1859 eV  151.46 nm  f=0.0074  <S**2>=0.000
      11 -> 14         0.57709
      13 -> 18        -0.31968
      13 -> 19         0.17130
      13 -> 22         0.15346

 Excited State   7:      Singlet-A      8.2972 eV  149.43 nm  f=0.0022  <S**2>=0.000
      11 -> 14         0.36063
      13 -> 17         0.23116
      13 -> 18         0.46457
      13 -> 19        -0.17541
      13 -> 22        -0.21014

 Excited State   8:      Singlet-A      8.8008 eV  140.88 nm  f=0.0020  <S**2>=0.000
      13 -> 17        -0.14119
      13 -> 18         0.34549
      13 -> 19         0.56826
      13 -> 21        -0.11088

 Excited State   9:      Singlet-A      8.9511 eV  138.51 nm  f=0.0417  <S**2>=0.000
       9 -> 16         0.14220
      10 -> 14         0.46648
      12 -> 15         0.21778
      12 -> 16        -0.35982
      12 -> 17        -0.14624
      13 -> 20         0.13761

 Excited State  10:      Singlet-A      9.2001 eV  134.76 nm  f=0.1193  <S**2>=0.000
       9 -> 15         0.14713
       9 -> 16         0.13673
      10 -> 14        -0.36293
      12 -> 15         0.49263
      12 -> 16        -0.13570
      13 -> 20        -0.14497

 Excited State  11:      Singlet-A      9.6019 eV  129.13 nm  f=0.0575  <S**2>=0.000
      10 -> 14         0.20639
      10 -> 15         0.19798
      11 -> 16         0.13280
      12 -> 15         0.17841
      12 -> 16         0.50240
      12 -> 17        -0.13251
      13 -> 21        -0.14109

 Excited State  12:      Singlet-A      9.6182 eV  128.91 nm  f=0.0027  <S**2>=0.000
      10 -> 15        -0.10514
      13 -> 18         0.20509
      13 -> 19        -0.25924
      13 -> 21        -0.18216
      13 -> 22         0.55678

 Excited State  13:      Singlet-A      9.7276 eV  127.46 nm  f=0.0380  <S**2>=0.000
      10 -> 15         0.52284
      10 -> 16         0.13732
      11 -> 15         0.20049
      12 -> 15        -0.10785
      12 -> 16        -0.18902
      13 -> 21        -0.25995

 Excited State  14:      Singlet-A      9.8560 eV  125.80 nm  f=0.0775  <S**2>=0.000
      10 -> 15         0.18571
      10 -> 16         0.24973
      13 -> 21         0.50363
      13 -> 22         0.26353

 Excited State  15:      Singlet-A      9.9192 eV  124.99 nm  f=0.1269  <S**2>=0.000
       8 -> 15        -0.13842
      11 -> 15         0.37357
      11 -> 16         0.28309
      11 -> 17        -0.21060
      11 -> 18        -0.10379
      12 -> 15        -0.14598
      12 -> 17        -0.17878
      12 -> 18         0.16669
      13 -> 20        -0.19530
      13 -> 21         0.21063

 The electronic state is 1-A.
 Alpha  occ. eigenvalues --   -1.94310  -1.21115  -0.92601  -0.80190  -0.77512
 Alpha  occ. eigenvalues --   -0.68599  -0.66736  -0.53058  -0.51993  -0.43614
 Alpha  occ. eigenvalues --   -0.42905  -0.39721  -0.27386
 Alpha virt. eigenvalues --    0.13757   0.16716   0.17148   0.26290   0.28703
 Alpha virt. eigenvalues --    0.31005   0.32468   0.32860   0.34838   0.41549
 Alpha virt. eigenvalues --    0.44315

 Mulliken charges:
               1
     1  C   -0.103357
     2  C   -1.835714
     3  O    3.180122
     4  C   -1.858987
     5  C   -0.195599
     6  H    0.154171
     7  H    0.250786
     8  H    0.263829
     9  H    0.144750
 Sum of Mulliken charges =   0.00000

 Dipole moment (field-independent basis, Debye):
    X=              6.9499    Y=             -9.3708    Z=             -0.0137  Tot=             11.6668
 N-N= 1.045193128883D+02 E-N=-1.701562884182D+02  KE=-1.534515905084D+01
 Orbital energies and kinetic energies (alpha):
                                 1                 2
   1         O                -1.943095         -1.374246
   2         O                -1.211147         -1.075609
   3         O                -0.926012         -0.889447
   4         O                -0.801895         -0.556487
   5         O                -0.775123         -0.666487
   6         O                -0.685992         -0.581736
   7         O                -0.667356         -0.542951

 Normal termination of Gaussian 09 at Tue Dec 15 17:08:33 2015.
