 Gaussian 09, Revision D.01,
 Gaussian 09:  ES64L-G09RevD.01 24-Apr-2013

 ------------------------------------------------------------
 #P AM1(Input,print) CIS(Singlets,NStates=15) pop(full) force
 ------------------------------------------------------------

 -----------------
 AM1-Reparam Input
 -----------------
 Symbolic Z-matrix:
 Charge =  0 Multiplicity = 1

                         Standard orientation:
 ---------------------------------------------------------------------
 Center     Atomic      Atomic             Coordinates (Angstroms)
 Number     Number       Type             X           Y           Z
 ---------------------------------------------------------------------
      1          6           0        1.041420    0.649805   -0.038434
      2          6           0        0.885524   -0.662698    0.043344
      3          8           0       -0.430291   -1.099748   -0.015550
      4          6           0       -1.099306    0.047668   -0.016891
      5          6           0       -0.381449    1.131555    0.027832
      6          1           0       -0.679998    2.150430    0.006740
      7          1           0       -2.171500   -0.081625    0.031763
      8          1           0        1.677080   -1.468754   -0.000150
      9          1           0        1.939605    1.199960   -0.009059
 ---------------------------------------------------------------------

 SCF Done:  E(RAM1) =   2.88786899587     A.U. after   14 cycles

 Excitation energies and oscillator strengths:

 Excited State   1:      Singlet-A      4.9180 eV  252.10 nm  f=0.3379  <S**2>=0.000
      13 -> 14         0.69650
 This state for optimization and/or second-order correction.
 Total Energy, E(CIS) =   3.06860294723
 Copying the excited state density for this state as the 1-particle RhoCI density.

 Excited State   2:      Singlet-A      5.6700 eV  218.67 nm  f=0.0005  <S**2>=0.000
      13 -> 15         0.65714
      13 -> 16        -0.14207
      13 -> 18         0.17941

 Excited State   3:      Singlet-A      5.9646 eV  207.87 nm  f=0.0010  <S**2>=0.000
      11 -> 16        -0.10171
      13 -> 15         0.15902
      13 -> 16         0.64961
      13 -> 17         0.15110
      13 -> 18        -0.11365

 Excited State   4:      Singlet-A      6.3947 eV  193.88 nm  f=0.0008  <S**2>=0.000
      12 -> 14         0.69937

 Excited State   5:      Singlet-A      7.2211 eV  171.70 nm  f=0.0002  <S**2>=0.000
      13 -> 15        -0.10741
      13 -> 16         0.15253
      13 -> 17        -0.13989
      13 -> 18         0.57456
      13 -> 21        -0.30965

 Excited State   6:      Singlet-A      7.5846 eV  163.47 nm  f=0.0233  <S**2>=0.000
      10 -> 14        -0.13216
      13 -> 15        -0.11382
      13 -> 17         0.65367
      13 -> 18         0.15890

 Excited State   7:      Singlet-A      8.0019 eV  154.94 nm  f=0.0021  <S**2>=0.000
      10 -> 14         0.68319
      13 -> 17         0.12300

 Excited State   8:      Singlet-A      8.2662 eV  149.99 nm  f=0.0006  <S**2>=0.000
      13 -> 18         0.21058
      13 -> 19         0.55192
      13 -> 21         0.35567

 Excited State   9:      Singlet-A      8.5263 eV  145.41 nm  f=0.0707  <S**2>=0.000
      11 -> 14         0.64824
      12 -> 15        -0.16622
      12 -> 16        -0.11440

 Excited State  10:      Singlet-A      8.7759 eV  141.28 nm  f=0.0051  <S**2>=0.000
      13 -> 18         0.21634
      13 -> 19        -0.41451
      13 -> 20        -0.14640
      13 -> 21         0.49845

 Excited State  11:      Singlet-A      8.8296 eV  140.42 nm  f=0.2145  <S**2>=0.000
       8 -> 15         0.12609
       8 -> 16         0.12726
      10 -> 17         0.12213
      12 -> 15         0.48345
      12 -> 16        -0.33740
      12 -> 18         0.21871
      13 -> 20         0.13014

 Excited State  12:      Singlet-A      9.1077 eV  136.13 nm  f=0.0970  <S**2>=0.000
      12 -> 15        -0.14873
      13 -> 20         0.65964
      13 -> 21         0.11997

 Excited State  13:      Singlet-A      9.3507 eV  132.59 nm  f=0.0993  <S**2>=0.000
       8 -> 16        -0.12832
      10 -> 15        -0.11009
      11 -> 14         0.20733
      12 -> 15         0.37813
      12 -> 16         0.47694

 Excited State  14:      Singlet-A      9.7036 eV  127.77 nm  f=0.0034  <S**2>=0.000
       7 -> 15        -0.15217
      11 -> 15         0.64988
      11 -> 16         0.12617
      13 -> 15        -0.11247

 Excited State  15:      Singlet-A      9.7674 eV  126.94 nm  f=0.0579  <S**2>=0.000
       8 -> 16        -0.12499
       9 -> 14         0.10130
       9 -> 15         0.16894
       9 -> 18         0.10168
      10 -> 15         0.19262
      10 -> 17         0.22346
      11 -> 16         0.10728
      12 -> 15        -0.11362
      12 -> 16         0.22355
      12 -> 17        -0.18815
      12 -> 18         0.32254
      12 -> 19        -0.21375
      12 -> 21        -0.20576

 The electronic state is 1-A.
 Alpha  occ. eigenvalues --   -1.71985  -1.11615  -0.92385  -0.79254  -0.73923
 Alpha  occ. eigenvalues --   -0.66151  -0.63576  -0.51164  -0.48633  -0.43579
 Alpha  occ. eigenvalues --   -0.42499  -0.38162  -0.25693
 Alpha virt. eigenvalues --    0.12175   0.17382   0.18475   0.27098   0.27884
 Alpha virt. eigenvalues --    0.30096   0.31447   0.32058   0.37362   0.47180
 Alpha virt. eigenvalues --    0.49688

 Mulliken charges:
               1
     1  C   -0.118809
     2  C   -1.909537
     3  O    3.184955
     4  C   -1.901601
     5  C   -0.180121
     6  H    0.171202
     7  H    0.293753
     8  H    0.293337
     9  H    0.166822
 Sum of Mulliken charges =   0.00000

 Dipole moment (field-independent basis, Debye):
    X=             -4.1431    Y=            -10.5565    Z=             -0.3845  Tot=             11.3469
 N-N= 1.041324343190D+02 E-N=-1.695380978856D+02  KE=-1.477866160684D+01
 Orbital energies and kinetic energies (alpha):
                                 1                 2
   1         O                -1.719848         -1.215476
   2         O                -1.116146         -0.996152
   3         O                -0.923848         -0.861456
   4         O                -0.792545         -0.590570
   5         O                -0.739231         -0.673894
   6         O                -0.661513         -0.548450
   7         O                -0.635757         -0.524092

 Normal termination of Gaussian 09 at Tue Dec 15 17:05:59 2015.
