 Gaussian 09, Revision D.01,
 Gaussian 09:  ES64L-G09RevD.01 24-Apr-2013

 ------------------------------------------------------------
 #P AM1(Input,print) CIS(Singlets,NStates=15) pop(full) force
 ------------------------------------------------------------

 -----------------
 AM1-Reparam Input
 -----------------
 Symbolic Z-matrix:
 Charge =  0 Multiplicity = 1

                         Standard orientation:
 ---------------------------------------------------------------------
 Center     Atomic      Atomic             Coordinates (Angstroms)
 Number     Number       Type             X           Y           Z
 ---------------------------------------------------------------------
      1          6           0        0.701226    0.967271    0.040553
      2          6           0        1.125392   -0.316932   -0.018002
      3          8           0        0.007052   -1.142557   -0.010788
      4          6           0       -1.064523   -0.340344    0.037152
      5          6           0       -0.742517    0.901630   -0.041313
      6          1           0       -1.448645    1.775495   -0.029997
      7          1           0       -2.014939   -0.928212    0.013211
      8          1           0        2.024224   -0.811181   -0.003780
      9          1           0        1.265480    1.834602   -0.003475
 ---------------------------------------------------------------------

 SCF Done:  E(RAM1) =   1.89124794852     A.U. after   14 cycles

 Excitation energies and oscillator strengths:

 Excited State   1:      Singlet-A      5.4753 eV  226.44 nm  f=0.3313  <S**2>=0.000
      13 -> 14         0.69109
 This state for optimization and/or second-order correction.
 Total Energy, E(CIS) =   2.09246065584
 Copying the excited state density for this state as the 1-particle RhoCI density.

 Excited State   2:      Singlet-A      5.8226 eV  212.94 nm  f=0.0014  <S**2>=0.000
      10 -> 15         0.10965
      13 -> 15         0.68240

 Excited State   3:      Singlet-A      6.5607 eV  188.98 nm  f=0.0001  <S**2>=0.000
      12 -> 14         0.70037

 Excited State   4:      Singlet-A      6.6616 eV  186.12 nm  f=0.0022  <S**2>=0.000
      10 -> 16        -0.10697
      13 -> 16         0.65883
      13 -> 17        -0.16192
      13 -> 19         0.13102

 Excited State   5:      Singlet-A      7.7161 eV  160.68 nm  f=0.0104  <S**2>=0.000
      11 -> 14         0.65087
      13 -> 17         0.23175

 Excited State   6:      Singlet-A      7.8937 eV  157.07 nm  f=0.0014  <S**2>=0.000
      13 -> 18         0.62398
      13 -> 21        -0.26735

 Excited State   7:      Singlet-A      7.9801 eV  155.37 nm  f=0.0077  <S**2>=0.000
      11 -> 14        -0.24903
      13 -> 16         0.11550
      13 -> 17         0.62932

 Excited State   8:      Singlet-A      8.5000 eV  145.86 nm  f=0.0712  <S**2>=0.000
       8 -> 15        -0.14427
      10 -> 14         0.14969
      11 -> 17         0.11657
      12 -> 15         0.60489
      12 -> 16        -0.11328
      12 -> 18         0.17095

 Excited State   9:      Singlet-A      8.8684 eV  139.80 nm  f=0.0023  <S**2>=0.000
      13 -> 16        -0.11475
      13 -> 18         0.11277
      13 -> 19         0.66903

 Excited State  10:      Singlet-A      8.9997 eV  137.77 nm  f=0.0383  <S**2>=0.000
       8 -> 16         0.10656
      10 -> 14         0.52194
      11 -> 15         0.11922
      11 -> 17        -0.11900
      11 -> 18         0.13226
      12 -> 16         0.27144
      12 -> 18        -0.21394
      13 -> 22        -0.10049

 Excited State  11:      Singlet-A      9.1475 eV  135.54 nm  f=0.0422  <S**2>=0.000
       9 -> 15         0.18381
      10 -> 14        -0.31321
      11 -> 15         0.36315
      11 -> 17        -0.19867
      12 -> 15         0.24504
      12 -> 16         0.12464
      12 -> 17        -0.22298
      12 -> 18        -0.16076

 Excited State  12:      Singlet-A      9.5166 eV  130.28 nm  f=0.0227  <S**2>=0.000
      13 -> 18         0.24957
      13 -> 20        -0.36018
      13 -> 21         0.52204

 Excited State  13:      Singlet-A      9.7040 eV  127.77 nm  f=0.1038  <S**2>=0.000
      10 -> 15         0.28284
      11 -> 16        -0.16162
      12 -> 16         0.28129
      12 -> 18         0.15038
      13 -> 20         0.42544
      13 -> 21         0.22435

 Excited State  14:      Singlet-A      9.7566 eV  127.08 nm  f=0.1081  <S**2>=0.000
      10 -> 15         0.35330
      11 -> 15        -0.16414
      11 -> 16         0.23331
      11 -> 17        -0.14075
      11 -> 19         0.11432
      12 -> 16        -0.23722
      12 -> 18        -0.30789
      13 -> 20         0.20473

 Excited State  15:      Singlet-A      9.7618 eV  127.01 nm  f=0.0818  <S**2>=0.000
       8 -> 15        -0.10286
       9 -> 15        -0.16124
      10 -> 14        -0.23550
      10 -> 15         0.11814
      11 -> 15        -0.28876
      12 -> 15         0.12154
      12 -> 16         0.38969
      12 -> 18        -0.10660
      12 -> 19         0.10333
      13 -> 20        -0.18880
      13 -> 21        -0.16681

 The electronic state is 1-A.
 Alpha  occ. eigenvalues --   -1.95384  -1.22340  -0.99461  -0.81565  -0.80766
 Alpha  occ. eigenvalues --   -0.69639  -0.67042  -0.52117  -0.49479  -0.42737
 Alpha  occ. eigenvalues --   -0.40887  -0.37118  -0.26691
 Alpha virt. eigenvalues --    0.14041   0.16818   0.21154   0.26854   0.28801
 Alpha virt. eigenvalues --    0.31105   0.32994   0.35236   0.35558   0.44568
 Alpha virt. eigenvalues --    0.48950

 Mulliken charges:
               1
     1  C   -0.107228
     2  C   -1.904466
     3  O    3.124101
     4  C   -1.878670
     5  C   -0.125496
     6  H    0.151947
     7  H    0.293326
     8  H    0.292189
     9  H    0.154298
 Sum of Mulliken charges =   0.00000

 Dipole moment (field-independent basis, Debye):
    X=             -0.6579    Y=            -10.6896    Z=             -0.2969  Tot=             10.7140
 N-N= 1.045992585553D+02 E-N=-1.704103886218D+02  KE=-1.570114133271D+01
 Orbital energies and kinetic energies (alpha):
                                 1                 2
   1         O                -1.953840         -1.423856
   2         O                -1.223404         -1.083539
   3         O                -0.994612         -0.915061
   4         O                -0.815647         -0.620098
   5         O                -0.807656         -0.701137
   6         O                -0.696386         -0.578258
   7         O                -0.670416         -0.578008

 Normal termination of Gaussian 09 at Tue Dec 15 17:09:54 2015.
