 Gaussian 09, Revision D.01,
 Gaussian 09:  ES64L-G09RevD.01 24-Apr-2013

 ------------------------------------------------------------
 #P AM1(Input,print) CIS(Singlets,NStates=15) pop(full) force
 ------------------------------------------------------------

 -----------------
 AM1-Reparam Input
 -----------------
 Symbolic Z-matrix:
 Charge =  0 Multiplicity = 1

                         Standard orientation:
 ---------------------------------------------------------------------
 Center     Atomic      Atomic             Coordinates (Angstroms)
 Number     Number       Type             X           Y           Z
 ---------------------------------------------------------------------
      1          6           0       -0.641123    1.005779   -0.031384
      2          6           0       -1.129898   -0.283423    0.038843
      3          8           0       -0.049575   -1.188788   -0.025569
      4          6           0        1.067270   -0.347998    0.002481
      5          6           0        0.740796    0.891495    0.010900
      6          1           0        1.483228    1.728144    0.013694
      7          1           0        2.054875   -0.910209    0.044960
      8          1           0       -2.029750   -0.737221    0.024056
      9          1           0       -1.334025    1.834473   -0.003191
 ---------------------------------------------------------------------

 SCF Done:  E(RAM1) =   1.78689137752     A.U. after   14 cycles

 Excitation energies and oscillator strengths:

 Excited State   1:      Singlet-A      5.5285 eV  224.26 nm  f=0.3248  <S**2>=0.000
      13 -> 14         0.69000
 This state for optimization and/or second-order correction.
 Total Energy, E(CIS) =   1.99006177467
 Copying the excited state density for this state as the 1-particle RhoCI density.

 Excited State   2:      Singlet-A      6.7264 eV  184.32 nm  f=0.0003  <S**2>=0.000
      10 -> 15         0.11793
      13 -> 15         0.68345

 Excited State   3:      Singlet-A      7.2767 eV  170.39 nm  f=0.0026  <S**2>=0.000
      12 -> 14         0.67751
      13 -> 16        -0.17265

 Excited State   4:      Singlet-A      7.3299 eV  169.15 nm  f=0.0023  <S**2>=0.000
      10 -> 16        -0.10088
      12 -> 14         0.17863
      13 -> 16         0.64360
      13 -> 17        -0.13148
      13 -> 20        -0.12166

 Excited State   5:      Singlet-A      7.8479 eV  157.98 nm  f=0.0063  <S**2>=0.000
      11 -> 14         0.69666

 Excited State   6:      Singlet-A      8.9684 eV  138.25 nm  f=0.0025  <S**2>=0.000
      10 -> 16        -0.10896
      13 -> 16         0.11309
      13 -> 17         0.56182
      13 -> 18        -0.33843
      13 -> 22         0.17735

 Excited State   7:      Singlet-A      9.0426 eV  137.11 nm  f=0.0093  <S**2>=0.000
      13 -> 17         0.37104
      13 -> 18         0.48892
      13 -> 20        -0.25974
      13 -> 22        -0.18242

 Excited State   8:      Singlet-A      9.4291 eV  131.49 nm  f=0.0173  <S**2>=0.000
       9 -> 15        -0.12477
      10 -> 14         0.52608
      12 -> 15         0.34155
      12 -> 17         0.11093
      13 -> 19         0.19168

 Excited State   9:      Singlet-A      9.6890 eV  127.96 nm  f=0.0015  <S**2>=0.000
      10 -> 16        -0.10316
      13 -> 16         0.10363
      13 -> 18         0.30955
      13 -> 20         0.59520

 Excited State  10:      Singlet-A      9.7617 eV  127.01 nm  f=0.0994  <S**2>=0.000
      10 -> 14        -0.34274
      12 -> 15         0.50339
      12 -> 16        -0.16319
      12 -> 18        -0.10332
      13 -> 19        -0.19207

 Excited State  11:      Singlet-A      9.9387 eV  124.75 nm  f=0.1305  <S**2>=0.000
       9 -> 15        -0.10781
      11 -> 15         0.31993
      11 -> 16         0.14635
      11 -> 17        -0.21377
      11 -> 18        -0.14081
      12 -> 15        -0.29311
      12 -> 16        -0.24797
      12 -> 17         0.23184
      12 -> 18        -0.19265
      13 -> 14         0.10561

 Excited State  12:      Singlet-A     10.3000 eV  120.37 nm  f=0.1144  <S**2>=0.000
      10 -> 14        -0.27409
      11 -> 15         0.11483
      13 -> 19         0.61758

 Excited State  13:      Singlet-A     10.6065 eV  116.89 nm  f=0.1593  <S**2>=0.000
       9 -> 15         0.12507
      11 -> 15        -0.19249
      11 -> 16         0.51617
      11 -> 17        -0.12974
      11 -> 18        -0.13344
      11 -> 20        -0.17557
      12 -> 16         0.18975
      12 -> 17        -0.11020
      12 -> 18        -0.10800
      13 -> 21         0.11335

 Excited State  14:      Singlet-A     10.6971 eV  115.90 nm  f=0.0901  <S**2>=0.000
      10 -> 15         0.12237
      11 -> 16        -0.14227
      12 -> 16        -0.13040
      13 -> 21         0.63797

 Excited State  15:      Singlet-A     10.8100 eV  114.69 nm  f=0.0410  <S**2>=0.000
       8 -> 16         0.11369
       9 -> 15        -0.11804
      11 -> 15         0.16672
      11 -> 16         0.10665
      11 -> 18         0.15657
      12 -> 16         0.33144
      12 -> 17         0.12235
      12 -> 20        -0.13526
      13 -> 18         0.12929
      13 -> 21         0.16926
      13 -> 22         0.40162

 The electronic state is 1-A.
 Alpha  occ. eigenvalues --   -1.89686  -1.18814  -0.92272  -0.80852  -0.78594
 Alpha  occ. eigenvalues --   -0.69537  -0.67109  -0.55143  -0.54530  -0.45795
 Alpha  occ. eigenvalues --   -0.42207  -0.40531  -0.28943
 Alpha virt. eigenvalues --    0.12978   0.17887   0.21607   0.27970   0.30092
 Alpha virt. eigenvalues --    0.31264   0.31835   0.34385   0.37786   0.40836
 Alpha virt. eigenvalues --    0.43036

 Mulliken charges:
               1
     1  C   -0.196628
     2  C   -2.006320
     3  O    3.288828
     4  C   -1.978111
     5  C   -0.147183
     6  H    0.200558
     7  H    0.325457
     8  H    0.306383
     9  H    0.207015
 Sum of Mulliken charges =   0.00000

 Dipole moment (field-independent basis, Debye):
    X=              0.3784    Y=            -11.9242    Z=             -0.5633  Tot=             11.9435
 N-N= 1.037557958032D+02 E-N=-1.691575806045D+02  KE=-1.549997133317D+01
 Orbital energies and kinetic energies (alpha):
                                 1                 2
   1         O                -1.896863         -1.337956
   2         O                -1.188135         -1.071948
   3         O                -0.922723         -0.905355
   4         O                -0.808523         -0.568493
   5         O                -0.785936         -0.682379
   6         O                -0.695367         -0.589150
   7         O                -0.671088         -0.546116

 Normal termination of Gaussian 09 at Tue Dec 15 17:09:47 2015.
