 Gaussian 09, Revision D.01,
 Gaussian 09:  ES64L-G09RevD.01 24-Apr-2013

 ------------------------------------------------------------
 #P AM1(Input,print) CIS(Singlets,NStates=15) pop(full) force
 ------------------------------------------------------------

 -----------------
 AM1-Reparam Input
 -----------------
 Symbolic Z-matrix:
 Charge =  0 Multiplicity = 1

                         Standard orientation:
 ---------------------------------------------------------------------
 Center     Atomic      Atomic             Coordinates (Angstroms)
 Number     Number       Type             X           Y           Z
 ---------------------------------------------------------------------
      1          6           0        0.959612    0.811778    0.014553
      2          6           0        0.988970   -0.599361   -0.004518
      3          8           0       -0.284980   -1.155866    0.008552
      4          6           0       -1.119805   -0.053989   -0.024754
      5          6           0       -0.525720    1.073199    0.000333
      6          1           0       -0.919785    2.022008   -0.017033
      7          1           0       -2.191863   -0.412602    0.069901
      8          1           0        1.864087   -1.278295   -0.035103
      9          1           0        1.709057    1.526061    0.000133
 ---------------------------------------------------------------------

 SCF Done:  E(RAM1) =   1.14860789113     A.U. after   14 cycles

 Excitation energies and oscillator strengths:

 Excited State   1:      Singlet-A      5.2272 eV  237.19 nm  f=0.2262  <S**2>=0.000
      12 -> 15         0.13415
      13 -> 14         0.68333
 This state for optimization and/or second-order correction.
 Total Energy, E(CIS) =   1.34070395587
 Copying the excited state density for this state as the 1-particle RhoCI density.

 Excited State   2:      Singlet-A      6.2393 eV  198.71 nm  f=0.0014  <S**2>=0.000
      13 -> 15        -0.24840
      13 -> 16         0.60977
      13 -> 17        -0.12376
      13 -> 18         0.15856

 Excited State   3:      Singlet-A      6.3030 eV  196.71 nm  f=0.0047  <S**2>=0.000
      13 -> 15         0.15741
      13 -> 16         0.20013
      13 -> 17         0.61935
      13 -> 19         0.17025

 Excited State   4:      Singlet-A      6.5337 eV  189.76 nm  f=0.0362  <S**2>=0.000
      12 -> 14        -0.31910
      13 -> 15         0.54310
      13 -> 16         0.18795
      13 -> 17        -0.21672

 Excited State   5:      Singlet-A      7.0093 eV  176.89 nm  f=0.0020  <S**2>=0.000
      11 -> 14         0.68912

 Excited State   6:      Singlet-A      7.7910 eV  159.14 nm  f=0.0052  <S**2>=0.000
      13 -> 16        -0.13474
      13 -> 18         0.61806
      13 -> 19         0.17796
      13 -> 24         0.12917

 Excited State   7:      Singlet-A      7.8649 eV  157.64 nm  f=0.2653  <S**2>=0.000
      11 -> 19         0.10445
      12 -> 14         0.59442
      13 -> 15         0.28317

 Excited State   8:      Singlet-A      8.1866 eV  151.45 nm  f=0.0006  <S**2>=0.000
       9 -> 15        -0.14602
      10 -> 14         0.58708
      11 -> 15         0.23578
      13 -> 19         0.10794
      13 -> 20         0.21272

 Excited State   9:      Singlet-A      8.2785 eV  149.77 nm  f=0.0003  <S**2>=0.000
      10 -> 14        -0.22251
      13 -> 17        -0.13169
      13 -> 18        -0.12760
      13 -> 19         0.41905
      13 -> 20         0.40400
      13 -> 21        -0.15373
      13 -> 23         0.11462

 Excited State  10:      Singlet-A      8.4671 eV  146.43 nm  f=0.0792  <S**2>=0.000
      11 -> 16         0.15127
      11 -> 17        -0.11254
      11 -> 18         0.14806
      12 -> 15         0.58886
      12 -> 17         0.12626
      13 -> 14        -0.10989

 Excited State  11:      Singlet-A      8.6653 eV  143.08 nm  f=0.0184  <S**2>=0.000
       9 -> 15        -0.22795
      10 -> 14        -0.28192
      11 -> 15         0.54553
      11 -> 16         0.10104
      12 -> 17         0.12973

 Excited State  12:      Singlet-A      8.7023 eV  142.47 nm  f=0.0073  <S**2>=0.000
      12 -> 15        -0.11837
      12 -> 16         0.10208
      12 -> 17         0.60066
      13 -> 19         0.15458
      13 -> 20        -0.13822

 Excited State  13:      Singlet-A      8.7913 eV  141.03 nm  f=0.0051  <S**2>=0.000
       7 -> 16        -0.10406
      12 -> 16         0.52653
      13 -> 19        -0.21399
      13 -> 20         0.35099

 Excited State  14:      Singlet-A      9.0915 eV  136.37 nm  f=0.0014  <S**2>=0.000
      12 -> 16        -0.29677
      12 -> 17         0.12685
      13 -> 16         0.10449
      13 -> 19        -0.20689
      13 -> 20         0.28483
      13 -> 21         0.46917
      13 -> 22         0.12131

 Excited State  15:      Singlet-A      9.2781 eV  133.63 nm  f=0.0088  <S**2>=0.000
      12 -> 16         0.26010
      12 -> 17        -0.20032
      13 -> 17        -0.12246
      13 -> 19         0.33610
      13 -> 20        -0.17234
      13 -> 21         0.42716
      13 -> 22         0.16179

 The electronic state is 1-A.
 Alpha  occ. eigenvalues --   -1.79698  -1.18181  -0.97102  -0.86972  -0.79744
 Alpha  occ. eigenvalues --   -0.73627  -0.70234  -0.58786  -0.55486  -0.53210
 Alpha  occ. eigenvalues --   -0.48799  -0.46883  -0.36297
 Alpha virt. eigenvalues --    0.03511   0.08956   0.09888   0.11141   0.18613
 Alpha virt. eigenvalues --    0.19201   0.21373   0.22316   0.26228   0.27171
 Alpha virt. eigenvalues --    0.28549

 Mulliken charges:
               1
     1  C   -0.127230
     2  C   -1.231030
     3  O    2.082735
     4  C   -1.180618
     5  C   -0.128058
     6  H    0.098481
     7  H    0.190438
     8  H    0.201554
     9  H    0.093728
 Sum of Mulliken charges =   0.00000

 Dipole moment (field-independent basis, Debye):
    X=             -2.1647    Y=             -7.5276    Z=              0.2456  Tot=              7.8365
 N-N= 1.037146918708D+02 E-N=-1.701363640118D+02  KE=-1.489542828855D+01
 Orbital energies and kinetic energies (alpha):
                                 1                 2
   1         O                -1.796980         -1.212006
   2         O                -1.181813         -0.973788
   3         O                -0.971015         -0.819282
   4         O                -0.869718         -0.618753
   5         O                -0.797438         -0.664462
   6         O                -0.736273         -0.599089
   7         O                -0.702335         -0.505914

 Normal termination of Gaussian 09 at Tue Dec 15 17:05:44 2015.
