 Gaussian 09, Revision D.01,
 Gaussian 09:  ES64L-G09RevD.01 24-Apr-2013

 ------------------------------------------------------------
 #P AM1(Input,print) CIS(Singlets,NStates=15) pop(full) force
 ------------------------------------------------------------

 -----------------
 AM1-Reparam Input
 -----------------
 Symbolic Z-matrix:
 Charge =  0 Multiplicity = 1

                         Standard orientation:
 ---------------------------------------------------------------------
 Center     Atomic      Atomic             Coordinates (Angstroms)
 Number     Number       Type             X           Y           Z
 ---------------------------------------------------------------------
      1          6           0       -0.376584    1.124644   -0.024671
      2          6           0       -1.163767    0.018786   -0.011134
      3          8           0       -0.392425   -1.095488    0.009137
      4          6           0        0.940801   -0.648277   -0.018496
      5          6           0        1.003911    0.667765    0.015701
      6          1           0        1.949612    1.267863    0.039996
      7          1           0        1.649509   -1.489261    0.007927
      8          1           0       -2.235078   -0.102056    0.071992
      9          1           0       -0.650812    2.109852    0.038586
 ---------------------------------------------------------------------

 SCF Done:  E(RAM1) =   1.75016834962     A.U. after   13 cycles

 Excitation energies and oscillator strengths:

 Excited State   1:      Singlet-A      5.2835 eV  234.66 nm  f=0.3682  <S**2>=0.000
      13 -> 14         0.69547
 This state for optimization and/or second-order correction.
 Total Energy, E(CIS) =   1.94433484167
 Copying the excited state density for this state as the 1-particle RhoCI density.

 Excited State   2:      Singlet-A      6.9034 eV  179.60 nm  f=0.0001  <S**2>=0.000
      12 -> 14         0.14959
      13 -> 15         0.63133
      13 -> 16        -0.18027
      13 -> 18        -0.14190
      13 -> 19        -0.10962

 Excited State   3:      Singlet-A      6.9170 eV  179.25 nm  f=0.0005  <S**2>=0.000
      12 -> 14         0.68532
      13 -> 15        -0.13258

 Excited State   4:      Singlet-A      7.0046 eV  177.00 nm  f=0.0027  <S**2>=0.000
      13 -> 15         0.18959
      13 -> 16         0.64914
      13 -> 17        -0.14135

 Excited State   5:      Singlet-A      7.9558 eV  155.84 nm  f=0.0074  <S**2>=0.000
      11 -> 14         0.69910

 Excited State   6:      Singlet-A      8.5821 eV  144.47 nm  f=0.0004  <S**2>=0.000
      13 -> 15         0.13433
      13 -> 17        -0.11273
      13 -> 18         0.63421
      13 -> 22         0.23028

 Excited State   7:      Singlet-A      8.9683 eV  138.25 nm  f=0.0102  <S**2>=0.000
      13 -> 16         0.12732
      13 -> 17         0.66977
      13 -> 18         0.12503

 Excited State   8:      Singlet-A      9.3858 eV  132.10 nm  f=0.0605  <S**2>=0.000
      10 -> 14         0.63093
      12 -> 15         0.17493
      13 -> 20         0.14160

 Excited State   9:      Singlet-A      9.5835 eV  129.37 nm  f=0.0038  <S**2>=0.000
      13 -> 19         0.68053
      13 -> 21        -0.10417

 Excited State  10:      Singlet-A      9.7654 eV  126.96 nm  f=0.0709  <S**2>=0.000
       8 -> 16        -0.11297
      10 -> 14        -0.18460
      11 -> 17        -0.16972
      12 -> 15         0.50587
      12 -> 16        -0.12489
      12 -> 18        -0.29402

 Excited State  11:      Singlet-A     10.3357 eV  119.96 nm  f=0.0439  <S**2>=0.000
      10 -> 14        -0.14206
      11 -> 15        -0.23321
      12 -> 15         0.19851
      12 -> 16         0.57487
      12 -> 17        -0.13514

 Excited State  12:      Singlet-A     10.4367 eV  118.80 nm  f=0.2241  <S**2>=0.000
       9 -> 15         0.10736
      11 -> 16         0.36886
      11 -> 17        -0.24666
      12 -> 15        -0.31663
      12 -> 16         0.20402
      12 -> 18        -0.26239
      12 -> 19         0.14409

 Excited State  13:      Singlet-A     10.5489 eV  117.53 nm  f=0.0795  <S**2>=0.000
      13 -> 18        -0.12001
      13 -> 20         0.22959
      13 -> 21         0.57497
      13 -> 22         0.25613

 Excited State  14:      Singlet-A     10.6327 eV  116.61 nm  f=0.0188  <S**2>=0.000
      13 -> 18        -0.19000
      13 -> 20        -0.16084
      13 -> 21        -0.22851
      13 -> 22         0.60313

 Excited State  15:      Singlet-A     10.6646 eV  116.26 nm  f=0.0658  <S**2>=0.000
      10 -> 14        -0.14230
      11 -> 15         0.12515
      13 -> 20         0.60128
      13 -> 21        -0.27750

 The electronic state is 1-A.
 Alpha  occ. eigenvalues --   -1.90344  -1.17110  -0.92237  -0.81640  -0.78205
 Alpha  occ. eigenvalues --   -0.70047  -0.67014  -0.56331  -0.55037  -0.46980
 Alpha  occ. eigenvalues --   -0.44306  -0.41013  -0.29059
 Alpha virt. eigenvalues --    0.11061   0.18839   0.19208   0.27680   0.29142
 Alpha virt. eigenvalues --    0.30821   0.32737   0.33727   0.36113   0.41657
 Alpha virt. eigenvalues --    0.44984

 Mulliken charges:
               1
     1  C   -0.233663
     2  C   -2.019280
     3  O    3.294090
     4  C   -1.979004
     5  C   -0.127938
     6  H    0.202276
     7  H    0.315471
     8  H    0.338143
     9  H    0.209906
 Sum of Mulliken charges =   0.00000

 Dipole moment (field-independent basis, Debye):
    X=             -3.5091    Y=            -10.7272    Z=              0.6494  Tot=             11.3052
 N-N= 1.036316028815D+02 E-N=-1.688995396520D+02  KE=-1.547686751785D+01
 Orbital energies and kinetic energies (alpha):
                                 1                 2
   1         O                -1.903440         -1.354323
   2         O                -1.171104         -1.051640
   3         O                -0.922371         -0.893187
   4         O                -0.816398         -0.568205
   5         O                -0.782049         -0.691032
   6         O                -0.700471         -0.585982
   7         O                -0.670141         -0.536900

 Normal termination of Gaussian 09 at Tue Dec 15 17:09:43 2015.
