 Gaussian 09, Revision D.01,
 Gaussian 09:  ES64L-G09RevD.01 24-Apr-2013

 ------------------------------------------------------------
 #P AM1(Input,print) CIS(Singlets,NStates=15) pop(full) force
 ------------------------------------------------------------

 -----------------
 AM1-Reparam Input
 -----------------
 Symbolic Z-matrix:
 Charge =  0 Multiplicity = 1

                         Standard orientation:
 ---------------------------------------------------------------------
 Center     Atomic      Atomic             Coordinates (Angstroms)
 Number     Number       Type             X           Y           Z
 ---------------------------------------------------------------------
      1          6           0       -0.197900    1.156390    0.043568
      2          6           0       -1.108520    0.162563   -0.029677
      3          8           0       -0.565897   -1.014703   -0.009038
      4          6           0        0.806026   -0.773399    0.040957
      5          6           0        1.094403    0.493035   -0.035791
      6          1           0        2.056486    1.014981   -0.046533
      7          1           0        1.469283   -1.654014   -0.007324
      8          1           0       -2.224715    0.233390    0.020765
      9          1           0       -0.337938    2.291729   -0.008945
 ---------------------------------------------------------------------

 SCF Done:  E(RAM1) =   1.40558040722     A.U. after   13 cycles

 Excitation energies and oscillator strengths:

 Excited State   1:      Singlet-A      5.7024 eV  217.43 nm  f=0.0419  <S**2>=0.000
      13 -> 14         0.29590
      13 -> 15         0.61330
      13 -> 17         0.10366
 This state for optimization and/or second-order correction.
 Total Energy, E(CIS) =   1.61513891331
 Copying the excited state density for this state as the 1-particle RhoCI density.

 Excited State   2:      Singlet-A      5.7856 eV  214.30 nm  f=0.2668  <S**2>=0.000
      13 -> 14         0.62670
      13 -> 15        -0.29355

 Excited State   3:      Singlet-A      6.2144 eV  199.51 nm  f=0.0001  <S**2>=0.000
      11 -> 16         0.11074
      13 -> 16         0.66975
      13 -> 21         0.13886

 Excited State   4:      Singlet-A      7.1323 eV  173.83 nm  f=0.0007  <S**2>=0.000
      11 -> 14         0.18596
      12 -> 14         0.66790

 Excited State   5:      Singlet-A      7.4284 eV  166.91 nm  f=0.0059  <S**2>=0.000
      13 -> 17         0.65759
      13 -> 18        -0.11514
      13 -> 20         0.10694

 Excited State   6:      Singlet-A      7.6877 eV  161.28 nm  f=0.0011  <S**2>=0.000
      13 -> 17         0.15302
      13 -> 18         0.48963
      13 -> 21        -0.26972
      13 -> 22        -0.35987

 Excited State   7:      Singlet-A      8.3504 eV  148.48 nm  f=0.0052  <S**2>=0.000
      11 -> 14        -0.15410
      12 -> 14         0.10128
      13 -> 18         0.43203
      13 -> 19        -0.20560
      13 -> 21         0.37257
      13 -> 22         0.26546

 Excited State   8:      Singlet-A      8.4097 eV  147.43 nm  f=0.0037  <S**2>=0.000
      10 -> 14        -0.34532
      11 -> 14         0.43555
      12 -> 15         0.10937
      13 -> 18         0.17598
      13 -> 19         0.27839
      13 -> 20        -0.10158
      13 -> 21         0.16993

 Excited State   9:      Singlet-A      8.4834 eV  146.15 nm  f=0.0044  <S**2>=0.000
      10 -> 14         0.41156
      11 -> 14         0.19741
      13 -> 19         0.25680
      13 -> 20         0.39076
      13 -> 22         0.18848

 Excited State  10:      Singlet-A      8.6196 eV  143.84 nm  f=0.0180  <S**2>=0.000
      10 -> 14        -0.42185
      13 -> 17        -0.12196
      13 -> 19        -0.13819
      13 -> 20         0.42517
      13 -> 21        -0.17453
      13 -> 22         0.20647

 Excited State  11:      Singlet-A      8.8145 eV  140.66 nm  f=0.0176  <S**2>=0.000
       7 -> 15         0.10775
      11 -> 14         0.10539
      11 -> 15         0.52636
      12 -> 15        -0.30659
      13 -> 15         0.11341
      13 -> 21         0.22419

 Excited State  12:      Singlet-A      9.0868 eV  136.44 nm  f=0.0491  <S**2>=0.000
      11 -> 15         0.19715
      11 -> 16         0.10468
      12 -> 16        -0.16279
      13 -> 20        -0.32979
      13 -> 21        -0.31395
      13 -> 22         0.42075

 Excited State  13:      Singlet-A      9.2602 eV  133.89 nm  f=0.1544  <S**2>=0.000
       8 -> 15         0.18134
      10 -> 17         0.10295
      11 -> 15         0.23165
      12 -> 15         0.43780
      12 -> 16        -0.33511
      12 -> 18         0.13131
      13 -> 20         0.10123

 Excited State  14:      Singlet-A      9.3511 eV  132.59 nm  f=0.1941  <S**2>=0.000
      11 -> 14        -0.37956
      12 -> 14         0.10785
      13 -> 19         0.50953
      13 -> 21         0.11610

 Excited State  15:      Singlet-A      9.4845 eV  130.72 nm  f=0.1230  <S**2>=0.000
       8 -> 16        -0.13924
      11 -> 14        -0.14977
      11 -> 15         0.21720
      11 -> 16        -0.21825
      12 -> 15         0.28378
      12 -> 16         0.46007
      13 -> 21        -0.10127

 The electronic state is 1-A.
 Alpha  occ. eigenvalues --   -1.90484  -1.19416  -0.95653  -0.78586  -0.76663
 Alpha  occ. eigenvalues --   -0.67270  -0.62946  -0.49124  -0.47299  -0.40563
 Alpha  occ. eigenvalues --   -0.37584  -0.36236  -0.23564
 Alpha virt. eigenvalues --    0.17835   0.19747   0.22401   0.29115   0.30279
 Alpha virt. eigenvalues --    0.31439   0.33298   0.34656   0.36043   0.41761
 Alpha virt. eigenvalues --    0.46746

 Mulliken charges:
               1
     1  C   -0.133756
     2  C   -1.554274
     3  O    2.771081
     4  C   -1.518550
     5  C   -0.005745
     6  H    0.054624
     7  H    0.149649
     8  H    0.177250
     9  H    0.059722
 Sum of Mulliken charges =   0.00000

 Dipole moment (field-independent basis, Debye):
    X=             -4.7629    Y=             -8.5002    Z=             -0.2433  Tot=              9.7467
 N-N= 1.038458615560D+02 E-N=-1.704991035263D+02  KE=-1.587369587834D+01
 Orbital energies and kinetic energies (alpha):
                                 1                 2
   1         O                -1.904844         -1.403449
   2         O                -1.194163         -1.078374
   3         O                -0.956528         -0.878156
   4         O                -0.785862         -0.616432
   5         O                -0.766634         -0.703693
   6         O                -0.672699         -0.610293
   7         O                -0.629459         -0.549655

 Normal termination of Gaussian 09 at Tue Dec 15 17:08:04 2015.
