 Gaussian 09, Revision D.01,
 Gaussian 09:  ES64L-G09RevD.01 24-Apr-2013

 ------------------------------------------------------------
 #P AM1(Input,print) CIS(Singlets,NStates=15) pop(full) force
 ------------------------------------------------------------

 -----------------
 AM1-Reparam Input
 -----------------
 Symbolic Z-matrix:
 Charge =  0 Multiplicity = 1

                         Standard orientation:
 ---------------------------------------------------------------------
 Center     Atomic      Atomic             Coordinates (Angstroms)
 Number     Number       Type             X           Y           Z
 ---------------------------------------------------------------------
      1          6           0       -0.649209    0.952741   -0.010527
      2          6           0       -1.125689   -0.286260   -0.018166
      3          8           0       -0.016815   -1.185070    0.020537
      4          6           0        1.071734   -0.378041   -0.018015
      5          6           0        0.715134    0.952553    0.003449
      6          1           0        1.405952    1.806359    0.024339
      7          1           0        1.996069   -0.867944    0.000200
      8          1           0       -2.049384   -0.749091    0.004314
      9          1           0       -1.289940    1.845278    0.066410
 ---------------------------------------------------------------------

 SCF Done:  E(RAM1) =   1.75733096621     A.U. after   13 cycles

 Excitation energies and oscillator strengths:

 Excited State   1:      Singlet-A      5.7206 eV  216.73 nm  f=0.3289  <S**2>=0.000
      13 -> 14         0.68900
 This state for optimization and/or second-order correction.
 Total Energy, E(CIS) =   1.96756078372
 Copying the excited state density for this state as the 1-particle RhoCI density.

 Excited State   2:      Singlet-A      7.2031 eV  172.13 nm  f=0.0033  <S**2>=0.000
      12 -> 14         0.57484
      13 -> 15         0.38127

 Excited State   3:      Singlet-A      7.2458 eV  171.11 nm  f=0.0013  <S**2>=0.000
      12 -> 14        -0.39930
      13 -> 15         0.54993
      13 -> 17        -0.11097

 Excited State   4:      Singlet-A      7.7205 eV  160.59 nm  f=0.0018  <S**2>=0.000
      10 -> 16         0.12193
      11 -> 14         0.10351
      13 -> 16         0.66084
      13 -> 19         0.10934

 Excited State   5:      Singlet-A      7.9787 eV  155.39 nm  f=0.0047  <S**2>=0.000
      11 -> 14         0.69110
      13 -> 16        -0.10491

 Excited State   6:      Singlet-A      9.1103 eV  136.09 nm  f=0.0029  <S**2>=0.000
      10 -> 15        -0.10538
      13 -> 15         0.10948
      13 -> 17         0.45541
      13 -> 18        -0.45398
      13 -> 22         0.21477

 Excited State   7:      Singlet-A      9.3438 eV  132.69 nm  f=0.0067  <S**2>=0.000
      10 -> 16         0.10849
      13 -> 17         0.48983
      13 -> 18         0.45485
      13 -> 22        -0.12757

 Excited State   8:      Singlet-A      9.5451 eV  129.89 nm  f=0.0469  <S**2>=0.000
      10 -> 14         0.62670
      12 -> 17        -0.16221
      12 -> 18         0.11326
      13 -> 20         0.12608

 Excited State   9:      Singlet-A      9.8829 eV  125.45 nm  f=0.0436  <S**2>=0.000
       9 -> 15         0.16197
      10 -> 14        -0.19804
      11 -> 16         0.19684
      11 -> 17        -0.17292
      11 -> 18        -0.18301
      12 -> 15         0.42905
      12 -> 17        -0.20011
      12 -> 18         0.19944

 Excited State  10:      Singlet-A      9.9689 eV  124.37 nm  f=0.0010  <S**2>=0.000
      13 -> 18         0.13833
      13 -> 19         0.65113

 Excited State  11:      Singlet-A     10.4742 eV  118.37 nm  f=0.2741  <S**2>=0.000
      11 -> 15         0.16553
      11 -> 16         0.11310
      12 -> 15        -0.13547
      12 -> 16         0.59154
      12 -> 17        -0.14210
      12 -> 19         0.16908

 Excited State  12:      Singlet-A     10.5384 eV  117.65 nm  f=0.0726  <S**2>=0.000
      10 -> 14        -0.11246
      11 -> 15         0.50818
      11 -> 17        -0.17081
      12 -> 15        -0.29196
      12 -> 16        -0.25149
      12 -> 18         0.13610

 Excited State  13:      Singlet-A     10.7415 eV  115.43 nm  f=0.1008  <S**2>=0.000
       9 -> 15        -0.13275
      10 -> 14        -0.19003
      11 -> 15        -0.22274
      11 -> 16         0.14467
      11 -> 19         0.13916
      12 -> 15        -0.15308
      12 -> 16        -0.11464
      12 -> 17        -0.14351
      12 -> 18         0.15992
      12 -> 19         0.10598
      13 -> 20         0.43208
      13 -> 21        -0.17015

 Excited State  14:      Singlet-A     10.7840 eV  114.97 nm  f=0.0712  <S**2>=0.000
      11 -> 15        -0.13714
      12 -> 17        -0.13830
      12 -> 18         0.10388
      13 -> 18        -0.14132
      13 -> 19         0.13682
      13 -> 21         0.49585
      13 -> 22        -0.28496

 Excited State  15:      Singlet-A     10.8737 eV  114.02 nm  f=0.0041  <S**2>=0.000
       9 -> 15         0.11399
      11 -> 15         0.12031
      11 -> 18        -0.11775
      11 -> 19        -0.10562
      12 -> 15         0.13974
      12 -> 17         0.20781
      12 -> 18        -0.13995
      12 -> 19        -0.12947
      13 -> 20         0.49970
      13 -> 21         0.21145
      13 -> 22        -0.12684

 The electronic state is 1-A.
 Alpha  occ. eigenvalues --   -1.90191  -1.19110  -0.92308  -0.81180  -0.79490
 Alpha  occ. eigenvalues --   -0.70060  -0.67327  -0.56437  -0.54859  -0.46218
 Alpha  occ. eigenvalues --   -0.43248  -0.40878  -0.30333
 Alpha virt. eigenvalues --    0.12578   0.19353   0.21525   0.27523   0.29173
 Alpha virt. eigenvalues --    0.31223   0.32138   0.33639   0.37202   0.41250
 Alpha virt. eigenvalues --    0.44120

 Mulliken charges:
               1
     1  C   -0.110895
     2  C   -1.995645
     3  O    3.295221
     4  C   -2.031108
     5  C   -0.207962
     6  H    0.208163
     7  H    0.328308
     8  H    0.312951
     9  H    0.200965
 Sum of Mulliken charges =   0.00000

 Dipole moment (field-independent basis, Debye):
    X=              0.0292    Y=            -11.2744    Z=              0.7038  Tot=             11.2964
 N-N= 1.039292769341D+02 E-N=-1.693804804256D+02  KE=-1.553064722349D+01
 Orbital energies and kinetic energies (alpha):
                                 1                 2
   1         O                -1.901913         -1.349642
   2         O                -1.191098         -1.072059
   3         O                -0.923079         -0.895752
   4         O                -0.811804         -0.574208
   5         O                -0.794905         -0.692482
   6         O                -0.700600         -0.598250
   7         O                -0.673265         -0.544437

 Normal termination of Gaussian 09 at Tue Dec 15 17:09:43 2015.
