 Gaussian 09, Revision D.01,
 Gaussian 09:  ES64L-G09RevD.01 24-Apr-2013

 ------------------------------------------------------------
 #P AM1(Input,print) CIS(Singlets,NStates=15) pop(full) force
 ------------------------------------------------------------

 -----------------
 AM1-Reparam Input
 -----------------
 Symbolic Z-matrix:
 Charge =  0 Multiplicity = 1

                         Standard orientation:
 ---------------------------------------------------------------------
 Center     Atomic      Atomic             Coordinates (Angstroms)
 Number     Number       Type             X           Y           Z
 ---------------------------------------------------------------------
      1          6           0        0.210344    1.215219    0.000537
      2          6           0        1.154654    0.153317    0.005513
      3          8           0        0.507579   -1.068729   -0.020091
      4          6           0       -0.798119   -0.745271    0.028571
      5          6           0       -1.090367    0.497913   -0.007144
      6          1           0       -2.018436    1.049665   -0.014923
      7          1           0       -1.467395   -1.591341   -0.012691
      8          1           0        2.158500    0.144025    0.042539
      9          1           0        0.407627    2.220422   -0.019058
 ---------------------------------------------------------------------

 SCF Done:  E(RAM1) =   1.84160810485     A.U. after   13 cycles

 Excitation energies and oscillator strengths:

 Excited State   1:      Singlet-A      5.2699 eV  235.27 nm  f=0.3729  <S**2>=0.000
      13 -> 14         0.69595
 This state for optimization and/or second-order correction.
 Total Energy, E(CIS) =   2.03527460580
 Copying the excited state density for this state as the 1-particle RhoCI density.

 Excited State   2:      Singlet-A      6.2277 eV  199.08 nm  f=0.0019  <S**2>=0.000
      13 -> 15         0.68170
      13 -> 18         0.12339

 Excited State   3:      Singlet-A      6.7760 eV  182.98 nm  f=0.0046  <S**2>=0.000
      13 -> 16         0.66835
      13 -> 17        -0.16926

 Excited State   4:      Singlet-A      7.2265 eV  171.57 nm  f=0.0002  <S**2>=0.000
      12 -> 14         0.70243

 Excited State   5:      Singlet-A      7.9426 eV  156.10 nm  f=0.0021  <S**2>=0.000
      13 -> 16         0.13408
      13 -> 17         0.59834
      13 -> 18         0.23687
      13 -> 21         0.20485

 Excited State   6:      Singlet-A      8.5032 eV  145.81 nm  f=0.0069  <S**2>=0.000
      10 -> 14         0.68028
      11 -> 14         0.10761
      13 -> 18         0.11864

 Excited State   7:      Singlet-A      8.9142 eV  139.09 nm  f=0.0061  <S**2>=0.000
      10 -> 14        -0.13688
      13 -> 17        -0.21308
      13 -> 18         0.60878
      13 -> 19        -0.18580

 Excited State   8:      Singlet-A      8.9622 eV  138.34 nm  f=0.0916  <S**2>=0.000
      11 -> 14         0.65056
      12 -> 15        -0.15500

 Excited State   9:      Singlet-A      9.5283 eV  130.12 nm  f=0.0125  <S**2>=0.000
      11 -> 16         0.17279
      12 -> 15         0.14312
      13 -> 18         0.12668
      13 -> 19         0.61313

 Excited State  10:      Singlet-A      9.5446 eV  129.90 nm  f=0.1340  <S**2>=0.000
       9 -> 15        -0.10438
      10 -> 18        -0.12979
      11 -> 14         0.18149
      12 -> 15         0.47251
      12 -> 16        -0.22345
      12 -> 17         0.25605
      13 -> 19        -0.19108

 Excited State  11:      Singlet-A     10.0386 eV  123.51 nm  f=0.0578  <S**2>=0.000
      10 -> 15         0.22054
      10 -> 18         0.18002
      12 -> 15         0.42639
      12 -> 16         0.27540
      12 -> 17        -0.31709

 Excited State  12:      Singlet-A     10.2238 eV  121.27 nm  f=0.0131  <S**2>=0.000
      13 -> 17        -0.20564
      13 -> 20        -0.21895
      13 -> 21         0.62857

 Excited State  13:      Singlet-A     10.3919 eV  119.31 nm  f=0.0557  <S**2>=0.000
      11 -> 15        -0.47103
      13 -> 20         0.47274
      13 -> 21         0.13127

 Excited State  14:      Singlet-A     10.4413 eV  118.74 nm  f=0.0277  <S**2>=0.000
      11 -> 15         0.43091
      11 -> 16         0.27399
      13 -> 20         0.40886
      13 -> 21         0.19253

 Excited State  15:      Singlet-A     10.7286 eV  115.56 nm  f=0.1165  <S**2>=0.000
      10 -> 16        -0.29700
      11 -> 15         0.10463
      11 -> 16        -0.29936
      12 -> 16         0.42618
      12 -> 17         0.17601
      12 -> 18         0.11258
      12 -> 19         0.13212
      13 -> 20         0.10890

 The electronic state is 1-A.
 Alpha  occ. eigenvalues --   -1.99301  -1.26693  -1.01105  -0.89712  -0.85200
 Alpha  occ. eigenvalues --   -0.77559  -0.74359  -0.62485  -0.61362  -0.53106
 Alpha  occ. eigenvalues --   -0.51799  -0.48931  -0.35501
 Alpha virt. eigenvalues --    0.04269   0.10142   0.13453   0.20462   0.21243
 Alpha virt. eigenvalues --    0.23672   0.26395   0.27473   0.28888   0.37432
 Alpha virt. eigenvalues --    0.41721

 Mulliken charges:
               1
     1  C   -0.110273
     2  C   -1.886690
     3  O    3.157419
     4  C   -1.862291
     5  C   -0.128690
     6  H    0.147129
     7  H    0.290032
     8  H    0.258836
     9  H    0.134529
 Sum of Mulliken charges =   0.00000

 Dipole moment (field-independent basis, Debye):
    X=              3.8315    Y=            -10.4228    Z=             -0.5139  Tot=             11.1166
 N-N= 1.056193643294D+02 E-N=-1.705382778736D+02  KE=-1.567500835121D+01
 Orbital energies and kinetic energies (alpha):
                                 1                 2
   1         O                -1.993013         -1.370133
   2         O                -1.266928         -1.054547
   3         O                -1.011051         -0.890071
   4         O                -0.897121         -0.588557
   5         O                -0.852000         -0.708616
   6         O                -0.775587         -0.605118
   7         O                -0.743590         -0.540351

 Normal termination of Gaussian 09 at Tue Dec 15 17:08:57 2015.
