 Gaussian 09, Revision D.01,
 Gaussian 09:  ES64L-G09RevD.01 24-Apr-2013

 ------------------------------------------------------------
 #P AM1(Input,print) CIS(Singlets,NStates=15) pop(full) force
 ------------------------------------------------------------

 -----------------
 AM1-Reparam Input
 -----------------
 Symbolic Z-matrix:
 Charge =  0 Multiplicity = 1

                         Standard orientation:
 ---------------------------------------------------------------------
 Center     Atomic      Atomic             Coordinates (Angstroms)
 Number     Number       Type             X           Y           Z
 ---------------------------------------------------------------------
      1          6           0       -1.019760    0.708164   -0.025687
      2          6           0       -0.988633   -0.636175    0.046698
      3          8           0        0.370198   -1.136602   -0.036632
      4          6           0        1.185691    0.017817    0.028300
      5          6           0        0.420975    1.089536   -0.014464
      6          1           0        0.751393    2.181483    0.045415
      7          1           0        2.241335   -0.147917    0.023371
      8          1           0       -1.664749   -1.364004    0.025908
      9          1           0       -1.879206    1.347208   -0.010723
 ---------------------------------------------------------------------

 SCF Done:  E(RAM1) =   2.58983106726     A.U. after   13 cycles

 Excitation energies and oscillator strengths:

 Excited State   1:      Singlet-A      4.9490 eV  250.53 nm  f=0.3518  <S**2>=0.000
      13 -> 14         0.69653
 This state for optimization and/or second-order correction.
 Total Energy, E(CIS) =   2.77170180677
 Copying the excited state density for this state as the 1-particle RhoCI density.

 Excited State   2:      Singlet-A      6.1008 eV  203.22 nm  f=0.0010  <S**2>=0.000
      13 -> 15         0.65079
      13 -> 16        -0.14204
      13 -> 18        -0.14955
      13 -> 19        -0.13615

 Excited State   3:      Singlet-A      6.3209 eV  196.15 nm  f=0.0023  <S**2>=0.000
      13 -> 15         0.15309
      13 -> 16         0.63311
      13 -> 17        -0.20180
      13 -> 19         0.10994

 Excited State   4:      Singlet-A      6.5144 eV  190.32 nm  f=0.0029  <S**2>=0.000
      12 -> 14         0.69518

 Excited State   5:      Singlet-A      7.4073 eV  167.38 nm  f=0.0002  <S**2>=0.000
      13 -> 16         0.18073
      13 -> 17         0.43365
      13 -> 18        -0.42193
      13 -> 20         0.13063
      13 -> 21        -0.24560

 Excited State   6:      Singlet-A      7.8335 eV  158.27 nm  f=0.0078  <S**2>=0.000
      10 -> 14         0.41026
      11 -> 14         0.10810
      13 -> 15         0.12552
      13 -> 17         0.38424
      13 -> 18         0.34856
      13 -> 19         0.10600

 Excited State   7:      Singlet-A      8.0122 eV  154.74 nm  f=0.0012  <S**2>=0.000
      10 -> 14         0.54320
      11 -> 14         0.12508
      13 -> 17        -0.32121
      13 -> 18        -0.22601
      13 -> 19        -0.10831

 Excited State   8:      Singlet-A      8.5690 eV  144.69 nm  f=0.0028  <S**2>=0.000
      13 -> 16        -0.10525
      13 -> 18        -0.23685
      13 -> 19         0.64036

 Excited State   9:      Singlet-A      8.7281 eV  142.05 nm  f=0.0786  <S**2>=0.000
      10 -> 14        -0.15692
      11 -> 14         0.65221
      12 -> 15         0.11479

 Excited State  10:      Singlet-A      9.0899 eV  136.40 nm  f=0.0086  <S**2>=0.000
      13 -> 17         0.10476
      13 -> 18        -0.24613
      13 -> 19        -0.11048
      13 -> 20        -0.42545
      13 -> 21         0.45989

 Excited State  11:      Singlet-A      9.2232 eV  134.43 nm  f=0.0970  <S**2>=0.000
      10 -> 17         0.14380
      10 -> 18         0.11567
      12 -> 15         0.41636
      12 -> 16        -0.31579
      12 -> 17         0.19307
      12 -> 18        -0.25671

 Excited State  12:      Singlet-A      9.5031 eV  130.47 nm  f=0.1013  <S**2>=0.000
      13 -> 20         0.52327
      13 -> 21         0.44613

 Excited State  13:      Singlet-A      9.6401 eV  128.61 nm  f=0.0814  <S**2>=0.000
       9 -> 15         0.11574
      10 -> 15         0.19524
      10 -> 17        -0.11636
      10 -> 18        -0.12268
      12 -> 15         0.49449
      12 -> 16         0.21926
      12 -> 17        -0.28741

 Excited State  14:      Singlet-A     10.0181 eV  123.76 nm  f=0.2183  <S**2>=0.000
       8 -> 16        -0.17221
      10 -> 16        -0.14339
      10 -> 17         0.14259
      11 -> 14        -0.12936
      12 -> 16         0.47387
      12 -> 17         0.27867
      12 -> 18        -0.18843
      12 -> 19         0.12048

 Excited State  15:      Singlet-A     10.1986 eV  121.57 nm  f=0.0037  <S**2>=0.000
       9 -> 14         0.68595

 The electronic state is 1-A.
 Alpha  occ. eigenvalues --   -1.70147  -1.13657  -0.95209  -0.79312  -0.77015
 Alpha  occ. eigenvalues --   -0.66854  -0.62121  -0.54374  -0.50481  -0.43499
 Alpha  occ. eigenvalues --   -0.43283  -0.38840  -0.26205
 Alpha virt. eigenvalues --    0.11777   0.18777   0.20652   0.26325   0.28184
 Alpha virt. eigenvalues --    0.30163   0.32010   0.32800   0.34970   0.44503
 Alpha virt. eigenvalues --    0.48252

 Mulliken charges:
               1
     1  C   -0.062979
     2  C   -1.878800
     3  O    3.229563
     4  C   -1.879520
     5  C   -0.116312
     6  H    0.118384
     7  H    0.249461
     8  H    0.226193
     9  H    0.114010
 Sum of Mulliken charges =   0.00000

 Dipole moment (field-independent basis, Debye):
    X=              3.8427    Y=            -11.1284    Z=             -1.0166  Tot=             11.8170
 N-N= 1.027383907864D+02 E-N=-1.669340971693D+02  KE=-1.494308544604D+01
 Orbital energies and kinetic energies (alpha):
                                 1                 2
   1         O                -1.701473         -1.163918
   2         O                -1.136568         -0.996539
   3         O                -0.952088         -0.883174
   4         O                -0.793123         -0.613767
   5         O                -0.770146         -0.691484
   6         O                -0.668543         -0.553869
   7         O                -0.621212         -0.512917

 Normal termination of Gaussian 09 at Tue Dec 15 17:06:21 2015.
