 Gaussian 09, Revision D.01,
 Gaussian 09:  ES64L-G09RevD.01 24-Apr-2013

 ------------------------------------------------------------
 #P AM1(Input,print) CIS(Singlets,NStates=15) pop(full) force
 ------------------------------------------------------------

 -----------------
 AM1-Reparam Input
 -----------------
 Symbolic Z-matrix:
 Charge =  0 Multiplicity = 1

                         Standard orientation:
 ---------------------------------------------------------------------
 Center     Atomic      Atomic             Coordinates (Angstroms)
 Number     Number       Type             X           Y           Z
 ---------------------------------------------------------------------
      1          6           0       -0.257164    1.151475   -0.027852
      2          6           0        0.996723    0.546250   -0.011402
      3          8           0        0.909943   -0.750057    0.005757
      4          6           0       -0.485246   -1.033249   -0.014089
      5          6           0       -1.214787    0.121354    0.032600
      6          1           0       -2.271530    0.189291   -0.054279
      7          1           0       -0.693412   -2.123085    0.015739
      8          1           0        1.950343    0.986965    0.051470
      9          1           0       -0.502104    2.232304    0.065469
 ---------------------------------------------------------------------

 SCF Done:  E(RAM1) =   2.81607227856     A.U. after   14 cycles

 Excitation energies and oscillator strengths:

 Excited State   1:      Singlet-A      5.4355 eV  228.10 nm  f=0.3297  <S**2>=0.000
      13 -> 14         0.69410
 This state for optimization and/or second-order correction.
 Total Energy, E(CIS) =   3.01582210995
 Copying the excited state density for this state as the 1-particle RhoCI density.

 Excited State   2:      Singlet-A      6.4825 eV  191.26 nm  f=0.0068  <S**2>=0.000
      11 -> 15         0.10957
      13 -> 15         0.64597
      13 -> 17         0.21971
      13 -> 18         0.10429

 Excited State   3:      Singlet-A      6.8329 eV  181.45 nm  f=0.0012  <S**2>=0.000
      11 -> 16        -0.13596
      12 -> 14        -0.21401
      13 -> 16         0.60994
      13 -> 17         0.10864
      13 -> 18        -0.16328

 Excited State   4:      Singlet-A      6.8445 eV  181.14 nm  f=0.0004  <S**2>=0.000
       9 -> 14        -0.11079
      12 -> 14         0.65885
      13 -> 16         0.20147

 Excited State   5:      Singlet-A      7.7642 eV  159.69 nm  f=0.0107  <S**2>=0.000
      10 -> 14         0.64495
      11 -> 14        -0.15892
      13 -> 17         0.17764

 Excited State   6:      Singlet-A      7.9465 eV  156.02 nm  f=0.0057  <S**2>=0.000
      10 -> 14        -0.19584
      11 -> 16         0.13008
      13 -> 16        -0.15823
      13 -> 17         0.42085
      13 -> 18        -0.35162
      13 -> 20        -0.12994
      13 -> 21         0.29391

 Excited State   7:      Singlet-A      8.0893 eV  153.27 nm  f=0.0069  <S**2>=0.000
      11 -> 15        -0.13303
      13 -> 15        -0.20221
      13 -> 17         0.46305
      13 -> 18         0.32110
      13 -> 20         0.14353
      13 -> 21        -0.29259

 Excited State   8:      Singlet-A      8.5815 eV  144.48 nm  f=0.0972  <S**2>=0.000
      10 -> 14         0.16658
      11 -> 14         0.65580
      12 -> 16        -0.10266

 Excited State   9:      Singlet-A      8.7486 eV  141.72 nm  f=0.0012  <S**2>=0.000
      13 -> 16         0.10161
      13 -> 18         0.25597
      13 -> 19         0.55363
      13 -> 21         0.30358

 Excited State  10:      Singlet-A      9.0100 eV  137.61 nm  f=0.0186  <S**2>=0.000
      13 -> 18        -0.38256
      13 -> 19         0.38989
      13 -> 20         0.27324
      13 -> 21        -0.33269

 Excited State  11:      Singlet-A      9.3618 eV  132.44 nm  f=0.0237  <S**2>=0.000
       8 -> 15        -0.11619
      10 -> 17        -0.18121
      12 -> 15         0.39979
      12 -> 16        -0.29133
      12 -> 18         0.27046
      12 -> 21        -0.13572
      13 -> 20        -0.15606

 Excited State  12:      Singlet-A      9.4927 eV  130.61 nm  f=0.0613  <S**2>=0.000
       9 -> 15         0.10924
      10 -> 15         0.21443
      10 -> 17         0.11512
      11 -> 15         0.11183
      12 -> 15         0.38368
      12 -> 17         0.17417
      13 -> 20         0.39888
      13 -> 21         0.20438

 Excited State  13:      Singlet-A      9.5502 eV  129.82 nm  f=0.0527  <S**2>=0.000
       9 -> 15        -0.14460
      10 -> 15        -0.19671
      10 -> 17        -0.18793
      11 -> 15         0.15041
      12 -> 15        -0.23367
      12 -> 16        -0.18237
      12 -> 17        -0.16825
      13 -> 20         0.39472
      13 -> 21         0.19090

 Excited State  14:      Singlet-A      9.7179 eV  127.58 nm  f=0.0035  <S**2>=0.000
       7 -> 15        -0.13937
      10 -> 15         0.14601
      11 -> 15         0.59362
      11 -> 17         0.11364
      13 -> 15        -0.15245
      13 -> 20        -0.15324
      13 -> 21        -0.14101

 Excited State  15:      Singlet-A      9.9190 eV  125.00 nm  f=0.2179  <S**2>=0.000
       8 -> 16         0.17885
       9 -> 15        -0.10079
      10 -> 15        -0.13103
      10 -> 16        -0.15905
      10 -> 17        -0.14751
      12 -> 15         0.13299
      12 -> 16         0.50140
      12 -> 18         0.14764
      12 -> 19        -0.13183

 The electronic state is 1-A.
 Alpha  occ. eigenvalues --   -1.71583  -1.11695  -0.91074  -0.78715  -0.74781
 Alpha  occ. eigenvalues --   -0.66364  -0.63208  -0.52910  -0.49379  -0.43075
 Alpha  occ. eigenvalues --   -0.42304  -0.39923  -0.28721
 Alpha virt. eigenvalues --    0.12110   0.17905   0.19645   0.24787   0.26921
 Alpha virt. eigenvalues --    0.28784   0.29792   0.31323   0.37560   0.46675
 Alpha virt. eigenvalues --    0.50259

 Mulliken charges:
               1
     1  C   -0.188505
     2  C   -1.978016
     3  O    3.204219
     4  C   -1.927433
     5  C   -0.050997
     6  H    0.170373
     7  H    0.277594
     8  H    0.313883
     9  H    0.178882
 Sum of Mulliken charges =   0.00000

 Dipole moment (field-independent basis, Debye):
    X=              8.2404    Y=             -6.5102    Z=              0.4798  Tot=             10.5127
 N-N= 1.037529078087D+02 E-N=-1.688408944723D+02  KE=-1.475814219527D+01
 Orbital energies and kinetic energies (alpha):
                                 1                 2
   1         O                -1.715833         -1.207967
   2         O                -1.116953         -0.996063
   3         O                -0.910735         -0.830082
   4         O                -0.787149         -0.605049
   5         O                -0.747809         -0.673796
   6         O                -0.663637         -0.567806
   7         O                -0.632082         -0.519004

 Normal termination of Gaussian 09 at Tue Dec 15 17:06:03 2015.
