 Gaussian 09, Revision D.01,
 Gaussian 09:  ES64L-G09RevD.01 24-Apr-2013

 -------------------------------------------------------
 #P B3LYP/3-21G CIS(Singlets,NStates=15) pop(full) force
 -------------------------------------------------------

 --------
 FuranDFT
 --------
 Symbolic Z-matrix:
 Charge =  0 Multiplicity = 1

                         Standard orientation:
 ---------------------------------------------------------------------
 Center     Atomic      Atomic             Coordinates (Angstroms)
 Number     Number       Type             X           Y           Z
 ---------------------------------------------------------------------
      1          6           0       -0.539353    1.061019   -0.012649
      2          6           0       -1.170045   -0.182549    0.028961
      3          8           0       -0.201308   -1.090727   -0.017120
      4          6           0        1.014732   -0.522020   -0.001889
      5          6           0        0.911592    0.780923   -0.009582
      6          1           0        1.622497    1.557458    0.076031
      7          1           0        1.845513   -1.197540    0.044122
      8          1           0       -2.155868   -0.461706    0.015911
      9          1           0       -1.003236    2.003364   -0.028147
 ---------------------------------------------------------------------

 SCF Done:  E(RB3LYP) =  -228.736645886     A.U. after   14 cycles

 Excitation energies and oscillator strengths:

 Excited State   1:      Singlet-A      7.2601 eV  170.77 nm  f=0.0081  <S**2>=0.000
      17 -> 19         0.48578
      18 -> 19         0.17438
      18 -> 20        -0.47268
 This state for optimization and/or second-order correction.
 Total Energy, E(CIS) =  -228.469840490
 Copying the excited state density for this state as the 1-particle RhoCI density.

 Excited State   2:      Singlet-A      7.6276 eV  162.55 nm  f=0.2221  <S**2>=0.000
      17 -> 19        -0.19596
      18 -> 19         0.65221

 Excited State   3:      Singlet-A      8.7045 eV  142.44 nm  f=0.0068  <S**2>=0.000
      16 -> 19         0.69991

 Excited State   4:      Singlet-A      9.0614 eV  136.83 nm  f=0.1321  <S**2>=0.000
      17 -> 19         0.23149
      17 -> 20         0.37621
      18 -> 20         0.28055
      18 -> 21         0.41860
      18 -> 22        -0.15403

 Excited State   5:      Singlet-A      9.1765 eV  135.11 nm  f=0.0869  <S**2>=0.000
      17 -> 19        -0.13957
      17 -> 20        -0.36422
      18 -> 20        -0.17950
      18 -> 21         0.52857

 Excited State   6:      Singlet-A      9.5754 eV  129.48 nm  f=0.0135  <S**2>=0.000
      17 -> 20         0.12114
      18 -> 21         0.18264
      18 -> 22         0.65361

 Excited State   7:      Singlet-A      9.8459 eV  125.92 nm  f=0.0296  <S**2>=0.000
      15 -> 19         0.51934
      17 -> 20         0.13334
      18 -> 23        -0.41752

 Excited State   8:      Singlet-A      9.9138 eV  125.06 nm  f=0.2581  <S**2>=0.000
      17 -> 19        -0.24869
      17 -> 20         0.28652
      17 -> 21         0.37347
      17 -> 22        -0.10362
      18 -> 20        -0.26679
      18 -> 22        -0.11566
      18 -> 23         0.25406

 Excited State   9:      Singlet-A      9.9824 eV  124.20 nm  f=0.1447  <S**2>=0.000
      15 -> 19         0.43450
      17 -> 19         0.18198
      17 -> 20        -0.21957
      17 -> 21         0.20112
      18 -> 20         0.19189
      18 -> 23         0.32877

 Excited State  10:      Singlet-A     10.1300 eV  122.39 nm  f=0.0485  <S**2>=0.000
      15 -> 19        -0.12464
      16 -> 20         0.10560
      17 -> 20        -0.13489
      17 -> 21         0.53051
      17 -> 22        -0.11707
      18 -> 23        -0.35155

 Excited State  11:      Singlet-A     10.1815 eV  121.77 nm  f=0.0043  <S**2>=0.000
      14 -> 19         0.17721
      15 -> 19         0.11491
      16 -> 20         0.64963

 Excited State  12:      Singlet-A     10.5529 eV  117.49 nm  f=0.0074  <S**2>=0.000
      17 -> 21         0.13288
      17 -> 22         0.67795

 Excited State  13:      Singlet-A     10.7381 eV  115.46 nm  f=0.0025  <S**2>=0.000
      18 -> 24         0.68473

 Excited State  14:      Singlet-A     10.9664 eV  113.06 nm  f=0.0042  <S**2>=0.000
      14 -> 19        -0.43573
      15 -> 20         0.47527
      16 -> 20         0.16973
      17 -> 23        -0.19373

 Excited State  15:      Singlet-A     10.9889 eV  112.83 nm  f=0.0038  <S**2>=0.000
      14 -> 19         0.42523
      15 -> 20         0.50559
      17 -> 23         0.20038

 The electronic state is 1-A.
 Alpha  occ. eigenvalues --  -19.10917 -10.17334 -10.17101 -10.12182 -10.11901
 Alpha  occ. eigenvalues --   -1.14150  -0.79744  -0.76098  -0.60886  -0.57664
 Alpha  occ. eigenvalues --   -0.54564  -0.46511  -0.45626  -0.42712  -0.38950
 Alpha  occ. eigenvalues --   -0.35085  -0.27118  -0.23472
 Alpha virt. eigenvalues --    0.02921   0.07795   0.14637   0.15924   0.17943
 Alpha virt. eigenvalues --    0.19976   0.22641   0.22931   0.37066   0.41342
 Alpha virt. eigenvalues --    0.48441   0.67992   0.69791   0.70604   0.75003

 Mulliken charges:
               1
     1  C   -0.271199
     2  C    0.111741
     3  O   -0.512073
     4  C    0.118324
     5  C   -0.259552
     6  H    0.189235
     7  H    0.218635
     8  H    0.224100
     9  H    0.180789
 Sum of Mulliken charges =   0.00000

 Dipole moment (field-independent basis, Debye):
    X=              0.0773    Y=              0.5337    Z=              0.1198  Tot=              0.5524
 Quadrupole moment (field-independent basis, Debye-Ang):
   XX=            -23.6482   YY=            -27.8529   ZZ=            -31.6326
   XY=             -0.5409   XZ=              0.2449   YZ=              0.0010

 Normal termination of Gaussian 09 at Fri Dec 11 13:18:54 2015.
