 Gaussian 09, Revision D.01,
 Gaussian 09:  ES64L-G09RevD.01 24-Apr-2013

 ------------------------------------------------------------
 #P AM1(Input,print) CIS(Singlets,NStates=15) pop(full) force
 ------------------------------------------------------------

 -----------------
 AM1-Reparam Input
 -----------------
 Symbolic Z-matrix:
 Charge =  0 Multiplicity = 1

                         Standard orientation:
 ---------------------------------------------------------------------
 Center     Atomic      Atomic             Coordinates (Angstroms)
 Number     Number       Type             X           Y           Z
 ---------------------------------------------------------------------
      1          6           0       -0.281351    1.148219   -0.011564
      2          6           0       -1.110725    0.093769    0.001486
      3          8           0       -0.445888   -1.085625   -0.008252
      4          6           0        0.885337   -0.704822   -0.005958
      5          6           0        1.004143    0.621537    0.018903
      6          1           0        1.947620    1.175873   -0.023501
      7          1           0        1.577096   -1.497072    0.026344
      8          1           0       -2.272191   -0.085348    0.053848
      9          1           0       -0.669843    2.139323   -0.007879
 ---------------------------------------------------------------------

 SCF Done:  E(RAM1) =   2.62133228201     A.U. after   13 cycles

 Excitation energies and oscillator strengths:

 Excited State   1:      Singlet-A      5.2195 eV  237.54 nm  f=0.3387  <S**2>=0.000
      13 -> 14         0.69707
 This state for optimization and/or second-order correction.
 Total Energy, E(CIS) =   2.81314395244
 Copying the excited state density for this state as the 1-particle RhoCI density.

 Excited State   2:      Singlet-A      5.8809 eV  210.82 nm  f=0.0013  <S**2>=0.000
      10 -> 15         0.11496
      13 -> 15         0.67430

 Excited State   3:      Singlet-A      6.5017 eV  190.69 nm  f=0.0022  <S**2>=0.000
      10 -> 16        -0.10524
      13 -> 16         0.67240
      13 -> 19         0.10143

 Excited State   4:      Singlet-A      6.8064 eV  182.16 nm  f=0.0002  <S**2>=0.000
      12 -> 14         0.69621

 Excited State   5:      Singlet-A      7.3314 eV  169.11 nm  f=0.0046  <S**2>=0.000
      11 -> 14         0.69265

 Excited State   6:      Singlet-A      7.9581 eV  155.80 nm  f=0.0001  <S**2>=0.000
      13 -> 17         0.66543
      13 -> 18         0.10017
      13 -> 21         0.12267

 Excited State   7:      Singlet-A      8.6123 eV  143.96 nm  f=0.0999  <S**2>=0.000
      10 -> 14         0.68525

 Excited State   8:      Singlet-A      8.8902 eV  139.46 nm  f=0.0115  <S**2>=0.000
      10 -> 15         0.30205
      13 -> 18         0.60342

 Excited State   9:      Singlet-A      9.1463 eV  135.56 nm  f=0.0629  <S**2>=0.000
       9 -> 15         0.17134
      11 -> 16        -0.15647
      11 -> 18         0.13897
      12 -> 15         0.54083
      12 -> 16        -0.16774
      12 -> 17         0.21904

 Excited State  10:      Singlet-A      9.3564 eV  132.51 nm  f=0.1819  <S**2>=0.000
       8 -> 15        -0.12880
      11 -> 15         0.54848
      11 -> 16         0.18982
      11 -> 18        -0.21048
      12 -> 15         0.17898
      12 -> 17        -0.16785

 Excited State  11:      Singlet-A      9.4493 eV  131.21 nm  f=0.0021  <S**2>=0.000
       7 -> 16         0.10110
      10 -> 16         0.30209
      13 -> 17         0.12498
      13 -> 19         0.60014

 Excited State  12:      Singlet-A      9.6381 eV  128.64 nm  f=0.0023  <S**2>=0.000
       7 -> 15        -0.11609
      10 -> 15         0.59219
      13 -> 15        -0.16848
      13 -> 18        -0.26488
      13 -> 19        -0.10673

 Excited State  13:      Singlet-A      9.7286 eV  127.44 nm  f=0.1521  <S**2>=0.000
      11 -> 15         0.18426
      11 -> 16        -0.34575
      11 -> 19        -0.15507
      12 -> 16         0.47735
      12 -> 17         0.19957
      12 -> 19         0.12408

 Excited State  14:      Singlet-A     10.0815 eV  122.98 nm  f=0.0322  <S**2>=0.000
       8 -> 16         0.12424
       9 -> 15         0.24895
      11 -> 15        -0.19109
      11 -> 16         0.13425
      11 -> 17         0.14372
      11 -> 19         0.11848
      12 -> 15         0.21508
      12 -> 16         0.40476
      12 -> 17        -0.25609

 Excited State  15:      Singlet-A     10.3320 eV  120.00 nm  f=0.0019  <S**2>=0.000
       7 -> 16         0.10595
      10 -> 16         0.57804
      13 -> 16         0.15890
      13 -> 18         0.14826
      13 -> 19        -0.27843

 The electronic state is 1-A.
 Alpha  occ. eigenvalues --   -1.84648  -1.14086  -0.87049  -0.79342  -0.74455
 Alpha  occ. eigenvalues --   -0.66210  -0.63282  -0.54538  -0.53903  -0.44042
 Alpha  occ. eigenvalues --   -0.42999  -0.41790  -0.29261
 Alpha virt. eigenvalues --    0.10516   0.14910   0.18360   0.26459   0.27970
 Alpha virt. eigenvalues --    0.30432   0.37111   0.42075   0.47849   0.56060
 Alpha virt. eigenvalues --    0.59092

 Mulliken charges:
               1
     1  C   -0.211556
     2  C   -1.978611
     3  O    3.427379
     4  C   -1.980338
     5  C   -0.168274
     6  H    0.189364
     7  H    0.262270
     8  H    0.270551
     9  H    0.189215
 Sum of Mulliken charges =   0.00000

 Dipole moment (field-independent basis, Debye):
    X=             -4.9182    Y=            -11.1511    Z=              0.0293  Tot=             12.1875
 N-N= 1.042345369013D+02 E-N=-1.701417033605D+02  KE=-1.437261879319D+01
 Orbital energies and kinetic energies (alpha):
                                 1                 2
   1         O                -1.846483         -1.245118
   2         O                -1.140856         -0.987930
   3         O                -0.870487         -0.805709
   4         O                -0.793424         -0.525049
   5         O                -0.744551         -0.602343
   6         O                -0.662103         -0.549465
   7         O                -0.632818         -0.504020

 Normal termination of Gaussian 09 at Tue Dec 15 17:07:40 2015.
