 Gaussian 09, Revision D.01,
 Gaussian 09:  ES64L-G09RevD.01 24-Apr-2013

 ------------------------------------------------------------
 #P AM1(Input,print) CIS(Singlets,NStates=15) pop(full) force
 ------------------------------------------------------------

 -----------------
 AM1-Reparam Input
 -----------------
 Symbolic Z-matrix:
 Charge =  0 Multiplicity = 1

                         Standard orientation:
 ---------------------------------------------------------------------
 Center     Atomic      Atomic             Coordinates (Angstroms)
 Number     Number       Type             X           Y           Z
 ---------------------------------------------------------------------
      1          6           0        0.998752    0.679922   -0.001949
      2          6           0        0.970490   -0.617294   -0.003461
      3          8           0       -0.401906   -1.116253   -0.007436
      4          6           0       -1.112923    0.025511    0.003450
      5          6           0       -0.424883    1.084749   -0.002005
      6          1           0       -0.759060    2.137273    0.008006
      7          1           0       -2.161964   -0.160181    0.024412
      8          1           0        1.666415   -1.403271    0.051075
      9          1           0        1.881249    1.318878   -0.000214
 ---------------------------------------------------------------------

 SCF Done:  E(RAM1) =   1.16055266031     A.U. after   14 cycles

 Excitation energies and oscillator strengths:

 Excited State   1:      Singlet-A      5.1899 eV  238.90 nm  f=0.2008  <S**2>=0.000
      12 -> 15         0.12584
      13 -> 14         0.68429
 This state for optimization and/or second-order correction.
 Total Energy, E(CIS) =   1.35127738632
 Copying the excited state density for this state as the 1-particle RhoCI density.

 Excited State   2:      Singlet-A      5.8255 eV  212.83 nm  f=0.0012  <S**2>=0.000
      13 -> 16         0.67244
      13 -> 18         0.11867
      13 -> 19         0.11582

 Excited State   3:      Singlet-A      6.2455 eV  198.52 nm  f=0.0761  <S**2>=0.000
      12 -> 14        -0.22990
      13 -> 15         0.64246

 Excited State   4:      Singlet-A      6.4778 eV  191.40 nm  f=0.0021  <S**2>=0.000
      13 -> 17         0.65571
      13 -> 19         0.18053

 Excited State   5:      Singlet-A      7.0727 eV  175.30 nm  f=0.0003  <S**2>=0.000
       9 -> 14         0.10285
      11 -> 14         0.66461
      12 -> 14         0.20274

 Excited State   6:      Singlet-A      7.6460 eV  162.16 nm  f=0.0001  <S**2>=0.000
      13 -> 16        -0.12804
      13 -> 18         0.59220
      13 -> 19         0.13417
      13 -> 20         0.28069
      13 -> 24         0.12437

 Excited State   7:      Singlet-A      7.8780 eV  157.38 nm  f=0.0001  <S**2>=0.000
      10 -> 14         0.33061
      11 -> 15         0.23156
      13 -> 17        -0.13586
      13 -> 18        -0.25962
      13 -> 19         0.32462
      13 -> 20         0.31715
      13 -> 24        -0.10162

 Excited State   8:      Singlet-A      7.9546 eV  155.87 nm  f=0.0004  <S**2>=0.000
       9 -> 15        -0.12844
      10 -> 14         0.42472
      11 -> 15         0.31329
      12 -> 15         0.10227
      13 -> 17         0.13701
      13 -> 18         0.11203
      13 -> 19        -0.30980
      13 -> 20        -0.21124

 Excited State   9:      Singlet-A      8.0836 eV  153.38 nm  f=0.2122  <S**2>=0.000
      11 -> 14        -0.19009
      11 -> 19         0.11332
      12 -> 14         0.60849
      13 -> 15         0.21052

 Excited State  10:      Singlet-A      8.3656 eV  148.21 nm  f=0.0146  <S**2>=0.000
       9 -> 15        -0.13939
      10 -> 14        -0.43319
      11 -> 15         0.48065
      12 -> 15         0.18401

 Excited State  11:      Singlet-A      8.5705 eV  144.66 nm  f=0.0852  <S**2>=0.000
       9 -> 16         0.16503
      11 -> 15        -0.20127
      11 -> 16         0.20162
      11 -> 17        -0.14841
      11 -> 18         0.15562
      12 -> 15         0.52642
      13 -> 14        -0.11304

 Excited State  12:      Singlet-A      8.6089 eV  144.02 nm  f=0.0014  <S**2>=0.000
      12 -> 16         0.19481
      13 -> 19        -0.40464
      13 -> 20         0.42180
      13 -> 21         0.28444

 Excited State  13:      Singlet-A      8.8622 eV  139.90 nm  f=0.0002  <S**2>=0.000
      11 -> 16        -0.10211
      12 -> 16         0.46376
      13 -> 21        -0.35553
      13 -> 22        -0.32096

 Excited State  14:      Singlet-A      9.0529 eV  136.96 nm  f=0.0010  <S**2>=0.000
      12 -> 16         0.36243
      12 -> 17         0.26205
      13 -> 18         0.13205
      13 -> 19         0.15961
      13 -> 20        -0.22360
      13 -> 21         0.39424
      13 -> 22         0.13428

 Excited State  15:      Singlet-A      9.1526 eV  135.46 nm  f=0.1163  <S**2>=0.000
      11 -> 16         0.56317
      11 -> 18         0.16034
      12 -> 15        -0.27401

 The electronic state is 1-A.
 Alpha  occ. eigenvalues --   -1.80137  -1.20300  -1.00081  -0.86811  -0.80827
 Alpha  occ. eigenvalues --   -0.74026  -0.71462  -0.59131  -0.55728  -0.51311
 Alpha  occ. eigenvalues --   -0.47895  -0.47637  -0.35588
 Alpha virt. eigenvalues --    0.04489   0.08566   0.09829   0.12798   0.18626
 Alpha virt. eigenvalues --    0.19354   0.20485   0.22604   0.25592   0.28360
 Alpha virt. eigenvalues --    0.28716

 Mulliken charges:
               1
     1  C   -0.079701
     2  C   -1.167811
     3  O    2.049079
     4  C   -1.146148
     5  C   -0.235442
     6  H    0.118021
     7  H    0.191635
     8  H    0.168190
     9  H    0.102177
 Sum of Mulliken charges =   0.00000

 Dipole moment (field-independent basis, Debye):
    X=             -2.9661    Y=             -7.3004    Z=              0.0369  Tot=              7.8801
 N-N= 1.044684405937D+02 E-N=-1.714337977898D+02  KE=-1.496326500633D+01
 Orbital energies and kinetic energies (alpha):
                                 1                 2
   1         O                -1.801369         -1.224596
   2         O                -1.203001         -0.978356
   3         O                -1.000811         -0.858333
   4         O                -0.868113         -0.605939
   5         O                -0.808273         -0.688973
   6         O                -0.740264         -0.570641
   7         O                -0.714621         -0.518282

 Normal termination of Gaussian 09 at Tue Dec 15 17:05:47 2015.
