 Gaussian 09, Revision D.01,
 Gaussian 09:  ES64L-G09RevD.01 24-Apr-2013

 ------------------------------------------------------------
 #P AM1(Input,print) CIS(Singlets,NStates=15) pop(full) force
 ------------------------------------------------------------

 -----------------
 AM1-Reparam Input
 -----------------
 Symbolic Z-matrix:
 Charge =  0 Multiplicity = 1

                         Standard orientation:
 ---------------------------------------------------------------------
 Center     Atomic      Atomic             Coordinates (Angstroms)
 Number     Number       Type             X           Y           Z
 ---------------------------------------------------------------------
      1          6           0        0.284427    1.155142   -0.014745
      2          6           0       -1.009958    0.597668   -0.004234
      3          8           0       -0.898506   -0.785851    0.003526
      4          6           0        0.448782   -1.041636    0.009463
      5          6           0        1.206793    0.132270   -0.010155
      6          1           0        2.319277    0.109767    0.026051
      7          1           0        0.757952   -2.073515   -0.015654
      8          1           0       -1.915603    0.955824    0.004693
      9          1           0        0.446161    2.234072    0.074725
 ---------------------------------------------------------------------

 SCF Done:  E(RAM1) =   1.10793463206     A.U. after   13 cycles

 Excitation energies and oscillator strengths:

 Excited State   1:      Singlet-A      5.8325 eV  212.58 nm  f=0.1563  <S**2>=0.000
      12 -> 15         0.17473
      13 -> 14         0.66683
 This state for optimization and/or second-order correction.
 Total Energy, E(CIS) =   1.32227463458
 Copying the excited state density for this state as the 1-particle RhoCI density.

 Excited State   2:      Singlet-A      6.7572 eV  183.48 nm  f=0.0042  <S**2>=0.000
      13 -> 16         0.67611
      13 -> 17         0.10388
      13 -> 20         0.10521

 Excited State   3:      Singlet-A      7.0268 eV  176.45 nm  f=0.0016  <S**2>=0.000
      12 -> 14        -0.47486
      13 -> 15         0.50929

 Excited State   4:      Singlet-A      7.4516 eV  166.39 nm  f=0.0002  <S**2>=0.000
      12 -> 16        -0.17382
      13 -> 17         0.64482
      13 -> 21         0.14907

 Excited State   5:      Singlet-A      7.5808 eV  163.55 nm  f=0.0058  <S**2>=0.000
      11 -> 14         0.67267

 Excited State   6:      Singlet-A      7.9391 eV  156.17 nm  f=0.0113  <S**2>=0.000
       9 -> 14        -0.17070
      10 -> 14         0.65316
      12 -> 14         0.10101

 Excited State   7:      Singlet-A      8.0295 eV  154.41 nm  f=0.2582  <S**2>=0.000
      10 -> 14        -0.16114
      11 -> 14         0.10408
      12 -> 14         0.49332
      13 -> 15         0.43191

 Excited State   8:      Singlet-A      8.2569 eV  150.16 nm  f=0.0045  <S**2>=0.000
      12 -> 16         0.62810
      12 -> 17         0.10919
      12 -> 20         0.10699
      13 -> 17         0.12500
      13 -> 18        -0.18036

 Excited State   9:      Singlet-A      8.4131 eV  147.37 nm  f=0.2538  <S**2>=0.000
      12 -> 15         0.66331
      13 -> 14        -0.15445

 Excited State  10:      Singlet-A      8.7390 eV  141.87 nm  f=0.0157  <S**2>=0.000
       9 -> 15         0.25354
      10 -> 15         0.38284
      11 -> 15         0.36340
      13 -> 18        -0.30425

 Excited State  11:      Singlet-A      8.7571 eV  141.58 nm  f=0.0070  <S**2>=0.000
       9 -> 15         0.14752
      10 -> 15         0.22112
      11 -> 15         0.21066
      12 -> 16         0.12514
      13 -> 17         0.11760
      13 -> 18         0.54034
      13 -> 24        -0.17921

 Excited State  12:      Singlet-A      8.8761 eV  139.68 nm  f=0.0008  <S**2>=0.000
      12 -> 17         0.30901
      13 -> 19         0.28675
      13 -> 20         0.52755
      13 -> 22        -0.11620

 Excited State  13:      Singlet-A      8.9709 eV  138.21 nm  f=0.0018  <S**2>=0.000
       7 -> 16         0.12389
      12 -> 16        -0.10994
      12 -> 17         0.55233
      13 -> 19        -0.36494
      13 -> 20        -0.10896

 Excited State  14:      Singlet-A      9.3120 eV  133.14 nm  f=0.0881  <S**2>=0.000
       8 -> 16        -0.11722
       9 -> 17         0.19508
      10 -> 16        -0.31279
      10 -> 18         0.13855
      10 -> 19         0.15836
      11 -> 16         0.43090
      11 -> 18         0.15942
      11 -> 19        -0.12318
      13 -> 14        -0.11518

 Excited State  15:      Singlet-A      9.5787 eV  129.44 nm  f=0.0311  <S**2>=0.000
       9 -> 16         0.26596
      10 -> 16         0.42203
      10 -> 20         0.11946
      11 -> 16         0.24624
      11 -> 17         0.31268
      11 -> 21         0.10805

 The electronic state is 1-A.
 Alpha  occ. eigenvalues --   -1.80756  -1.18856  -0.97843  -0.86530  -0.81322
 Alpha  occ. eigenvalues --   -0.73891  -0.70316  -0.60439  -0.56297  -0.51398
 Alpha  occ. eigenvalues --   -0.50447  -0.46099  -0.39503
 Alpha virt. eigenvalues --    0.04086   0.08885   0.10113   0.12557   0.18595
 Alpha virt. eigenvalues --    0.19339   0.19920   0.22048   0.26378   0.26533
 Alpha virt. eigenvalues --    0.27376

 Mulliken charges:
               1
     1  C   -0.106672
     2  C   -1.249451
     3  O    2.140417
     4  C   -1.272486
     5  C   -0.107853
     6  H    0.114911
     7  H    0.199988
     8  H    0.168300
     9  H    0.112848
 Sum of Mulliken charges =   0.00000

 Dipole moment (field-independent basis, Debye):
    X=             -5.0563    Y=             -5.0385    Z=              0.0550  Tot=              7.1383
 N-N= 1.039027100317D+02 E-N=-1.703680867338D+02  KE=-1.494749203219D+01
 Orbital energies and kinetic energies (alpha):
                                 1                 2
   1         O                -1.807562         -1.217624
   2         O                -1.188561         -0.974834
   3         O                -0.978434         -0.812266
   4         O                -0.865297         -0.633550
   5         O                -0.813222         -0.670739
   6         O                -0.738911         -0.597884
   7         O                -0.703155         -0.506339

 Normal termination of Gaussian 09 at Tue Dec 15 17:05:41 2015.
