 Gaussian 09, Revision D.01,
 Gaussian 09:  ES64L-G09RevD.01 24-Apr-2013

 -------------------------------------------------------
 #P B3LYP/3-21G CIS(Singlets,NStates=15) pop(full) force
 -------------------------------------------------------

 --------
 FuranDFT
 --------
 Symbolic Z-matrix:
 Charge =  0 Multiplicity = 1

                         Standard orientation:
 ---------------------------------------------------------------------
 Center     Atomic      Atomic             Coordinates (Angstroms)
 Number     Number       Type             X           Y           Z
 ---------------------------------------------------------------------
      1          6           0       -0.716696    0.974194   -0.001533
      2          6           0       -1.107298   -0.366008   -0.010851
      3          8           0       -0.014993   -1.126145    0.021393
      4          6           0        1.125713   -0.343801   -0.025532
      5          6           0        0.713331    0.902906    0.003358
      6          1           0        1.455381    1.817331    0.048706
      7          1           0        2.036707   -0.850826   -0.004192
      8          1           0       -2.092884   -0.817018   -0.011359
      9          1           0       -1.369558    1.855927    0.003043
 ---------------------------------------------------------------------

 SCF Done:  E(RB3LYP) =  -228.736588157     A.U. after   14 cycles

 Excitation energies and oscillator strengths:

 Excited State   1:      Singlet-A      7.2820 eV  170.26 nm  f=0.0382  <S**2>=0.000
      17 -> 19         0.46289
      18 -> 19         0.29692
      18 -> 20        -0.42629
 This state for optimization and/or second-order correction.
 Total Energy, E(CIS) =  -228.468980938
 Copying the excited state density for this state as the 1-particle RhoCI density.

 Excited State   2:      Singlet-A      7.4425 eV  166.59 nm  f=0.1950  <S**2>=0.000
      17 -> 19        -0.26169
      18 -> 19         0.61146
      18 -> 20         0.16536

 Excited State   3:      Singlet-A      8.2969 eV  149.43 nm  f=0.0012  <S**2>=0.000
      18 -> 21         0.69489

 Excited State   4:      Singlet-A      8.5000 eV  145.86 nm  f=0.0048  <S**2>=0.000
      16 -> 19         0.69824

 Excited State   5:      Singlet-A      9.0995 eV  136.25 nm  f=0.0022  <S**2>=0.000
      18 -> 22         0.68235

 Excited State   6:      Singlet-A      9.3521 eV  132.57 nm  f=0.0326  <S**2>=0.000
      17 -> 20         0.29228
      17 -> 21         0.61490

 Excited State   7:      Singlet-A      9.4826 eV  130.75 nm  f=0.2876  <S**2>=0.000
      17 -> 19         0.27463
      17 -> 20         0.40569
      17 -> 21        -0.28100
      18 -> 20         0.35358

 Excited State   8:      Singlet-A      9.6867 eV  127.99 nm  f=0.0139  <S**2>=0.000
      15 -> 19         0.64925
      16 -> 20        -0.14437
      17 -> 20        -0.11253
      18 -> 23        -0.14607

 Excited State   9:      Singlet-A      9.9245 eV  124.93 nm  f=0.3696  <S**2>=0.000
      15 -> 19         0.14719
      17 -> 19        -0.29333
      17 -> 20         0.42571
      17 -> 21        -0.12366
      17 -> 22        -0.10410
      18 -> 20        -0.32251
      18 -> 23        -0.10844

 Excited State  10:      Singlet-A      9.9725 eV  124.33 nm  f=0.0016  <S**2>=0.000
      15 -> 19         0.10563
      16 -> 20        -0.12694
      18 -> 23         0.23084
      18 -> 24         0.62104

 Excited State  11:      Singlet-A     10.0259 eV  123.66 nm  f=0.0094  <S**2>=0.000
      15 -> 19         0.11716
      18 -> 23         0.62842
      18 -> 24        -0.24774

 Excited State  12:      Singlet-A     10.2675 eV  120.75 nm  f=0.0084  <S**2>=0.000
      16 -> 20         0.20343
      17 -> 22         0.64914
      18 -> 24         0.12693

 Excited State  13:      Singlet-A     10.3618 eV  119.65 nm  f=0.0160  <S**2>=0.000
      14 -> 19        -0.33869
      15 -> 19         0.13339
      16 -> 20         0.54710
      17 -> 22        -0.19958

 Excited State  14:      Singlet-A     10.6684 eV  116.22 nm  f=0.0031  <S**2>=0.000
      14 -> 19         0.59624
      16 -> 20         0.32950
      17 -> 23        -0.12959

 Excited State  15:      Singlet-A     10.8441 eV  114.33 nm  f=0.0036  <S**2>=0.000
      18 -> 25         0.68476

 The electronic state is 1-A.
 Alpha  occ. eigenvalues --  -19.10830 -10.18092 -10.16850 -10.12979 -10.12690
 Alpha  occ. eigenvalues --   -1.12950  -0.80109  -0.75526  -0.59834  -0.57551
 Alpha  occ. eigenvalues --   -0.53143  -0.45956  -0.44989  -0.41873  -0.38843
 Alpha  occ. eigenvalues --   -0.34985  -0.27612  -0.23349
 Alpha virt. eigenvalues --    0.02279   0.08381   0.11812   0.14347   0.17340
 Alpha virt. eigenvalues --    0.17877   0.21367   0.23993   0.35487   0.42182
 Alpha virt. eigenvalues --    0.48565   0.67868   0.69760   0.70279   0.75496

 Mulliken charges:
               1
     1  C   -0.264239
     2  C    0.118808
     3  O   -0.500592
     4  C    0.083049
     5  C   -0.240559
     6  H    0.172643
     7  H    0.224827
     8  H    0.221361
     9  H    0.184701
 Sum of Mulliken charges =   0.00000

 Dipole moment (field-independent basis, Debye):
    X=              0.0052    Y=              0.5462    Z=              0.0202  Tot=              0.5466
 Quadrupole moment (field-independent basis, Debye-Ang):
   XX=            -23.1915   YY=            -28.2983   ZZ=            -31.8546
   XY=             -0.1320   XZ=              0.0967   YZ=              0.1333

 Normal termination of Gaussian 09 at Tue Dec 15 16:16:23 2015.
