 Gaussian 09, Revision D.01,
 Gaussian 09:  ES64L-G09RevD.01 24-Apr-2013

 ------------------------------------------------------------
 #P AM1(Input,print) CIS(Singlets,NStates=15) pop(full) force
 ------------------------------------------------------------

 -----------------
 AM1-Reparam Input
 -----------------
 Symbolic Z-matrix:
 Charge =  0 Multiplicity = 1

                         Standard orientation:
 ---------------------------------------------------------------------
 Center     Atomic      Atomic             Coordinates (Angstroms)
 Number     Number       Type             X           Y           Z
 ---------------------------------------------------------------------
      1          6           0        0.699464    0.957538   -0.011056
      2          6           0        1.134713   -0.301575   -0.003416
      3          8           0        0.025016   -1.146156   -0.012566
      4          6           0       -1.088091   -0.362235    0.026599
      5          6           0       -0.773046    0.941971    0.004832
      6          1           0       -1.398015    1.705741   -0.031000
      7          1           0       -2.025956   -0.964620   -0.042853
      8          1           0        2.075277   -0.823505    0.056105
      9          1           0        1.310319    1.837434    0.016522
 ---------------------------------------------------------------------

 SCF Done:  E(RAM1) =  0.211378688646E-01 A.U. after   13 cycles

 Excitation energies and oscillator strengths:

 Excited State   1:      Singlet-A      4.6320 eV  267.67 nm  f=0.0723  <S**2>=0.000
      12 -> 15         0.22867
      13 -> 14         0.66154
 This state for optimization and/or second-order correction.
 Total Energy, E(CIS) =  0.191361492269
 Copying the excited state density for this state as the 1-particle RhoCI density.

 Excited State   2:      Singlet-A      5.1912 eV  238.84 nm  f=0.0025  <S**2>=0.000
      12 -> 14        -0.40134
      13 -> 15         0.50059
      13 -> 16        -0.27563

 Excited State   3:      Singlet-A      5.3070 eV  233.62 nm  f=0.0002  <S**2>=0.000
      12 -> 14        -0.21690
      13 -> 15         0.19120
      13 -> 16         0.62412

 Excited State   4:      Singlet-A      5.8681 eV  211.28 nm  f=0.0035  <S**2>=0.000
       7 -> 16        -0.18063
      12 -> 15        -0.12962
      12 -> 16         0.63317
      12 -> 22         0.13955

 Excited State   5:      Singlet-A      6.0992 eV  203.28 nm  f=0.0050  <S**2>=0.000
      12 -> 18         0.22012
      12 -> 21        -0.14860
      13 -> 17        -0.14041
      13 -> 18         0.43814
      13 -> 19        -0.18414
      13 -> 21        -0.27877
      13 -> 22        -0.11688
      13 -> 23         0.17443

 Excited State   6:      Singlet-A      6.1964 eV  200.09 nm  f=0.0187  <S**2>=0.000
      12 -> 14         0.10769
      12 -> 19        -0.26329
      12 -> 23         0.13018
      13 -> 15         0.10088
      13 -> 17         0.29083
      13 -> 18         0.16978
      13 -> 19         0.35044
      13 -> 21        -0.13281
      13 -> 22        -0.19718
      13 -> 23        -0.20083

 Excited State   7:      Singlet-A      6.2667 eV  197.85 nm  f=0.3787  <S**2>=0.000
      11 -> 16        -0.10242
      12 -> 14         0.48285
      13 -> 15         0.42087

 Excited State   8:      Singlet-A      6.3306 eV  195.85 nm  f=0.1040  <S**2>=0.000
      12 -> 15         0.62724
      12 -> 16         0.14003
      13 -> 14        -0.20559
      13 -> 19        -0.11466

 Excited State   9:      Singlet-A      6.4467 eV  192.32 nm  f=0.0079  <S**2>=0.000
      12 -> 15        -0.13019
      12 -> 17         0.10563
      13 -> 17         0.54983
      13 -> 19        -0.33900

 Excited State  10:      Singlet-A      6.8777 eV  180.27 nm  f=0.0006  <S**2>=0.000
      12 -> 17         0.51328
      12 -> 18         0.24144
      12 -> 19        -0.23985
      12 -> 20         0.18845
      12 -> 21         0.10817
      13 -> 18        -0.17905

 Excited State  11:      Singlet-A      7.2141 eV  171.86 nm  f=0.0034  <S**2>=0.000
       9 -> 15        -0.21009
      10 -> 14         0.60556
      11 -> 15        -0.22226

 Excited State  12:      Singlet-A      7.4598 eV  166.20 nm  f=0.0011  <S**2>=0.000
       9 -> 14         0.26429
       9 -> 15        -0.10132
      10 -> 14         0.11601
      10 -> 15        -0.22708
      11 -> 14         0.43456
      11 -> 15         0.24099
      12 -> 19         0.10345
      12 -> 20         0.10653
      13 -> 18         0.12350
      13 -> 21         0.10457
      13 -> 22         0.10755

 Excited State  13:      Singlet-A      7.4694 eV  165.99 nm  f=0.0025  <S**2>=0.000
      10 -> 15        -0.12447
      11 -> 14         0.29691
      12 -> 17        -0.11347
      12 -> 19        -0.22687
      12 -> 20        -0.22346
      12 -> 23         0.11619
      13 -> 18        -0.28868
      13 -> 19        -0.19562
      13 -> 20        -0.15331
      13 -> 21        -0.22334

 Excited State  14:      Singlet-A      7.6693 eV  161.66 nm  f=0.0030  <S**2>=0.000
       9 -> 14         0.16229
      10 -> 15        -0.10256
      12 -> 17        -0.15945
      12 -> 18         0.34930
      12 -> 19        -0.12934
      12 -> 20        -0.13230
      12 -> 24         0.11862
      13 -> 19         0.10309
      13 -> 20         0.35315
      13 -> 21         0.14590
      13 -> 22         0.19257
      13 -> 24        -0.13035

 Excited State  15:      Singlet-A      7.7290 eV  160.41 nm  f=0.0004  <S**2>=0.000
       9 -> 14        -0.11330
      11 -> 15        -0.17744
      12 -> 19        -0.29685
      12 -> 20         0.13066
      12 -> 22         0.15909
      13 -> 18         0.21661
      13 -> 21         0.11055
      13 -> 22         0.37597
      13 -> 24         0.17840

 The electronic state is 1-A.
 Alpha  occ. eigenvalues --   -1.55493  -1.23175  -1.10986  -0.82922  -0.80801
 Alpha  occ. eigenvalues --   -0.68387  -0.59592  -0.56248  -0.51824  -0.50308
 Alpha  occ. eigenvalues --   -0.49532  -0.39270  -0.35399
 Alpha virt. eigenvalues --    0.03311   0.06224   0.09908   0.13138   0.14766
 Alpha virt. eigenvalues --    0.15524   0.17737   0.19072   0.19115   0.21038
 Alpha virt. eigenvalues --    0.22357

 Mulliken charges:
               1
     1  C   -0.196876
     2  C   -0.090556
     3  O   -0.117259
     4  C   -0.081867
     5  C   -0.200377
     6  H    0.152482
     7  H    0.189409
     8  H    0.190915
     9  H    0.154129
 Sum of Mulliken charges =   0.00000

 Dipole moment (field-independent basis, Debye):
    X=              0.0061    Y=              0.2816    Z=              0.0003  Tot=              0.2817
 N-N= 1.034485193471D+02 E-N=-1.710180547516D+02  KE=-1.655793907902D+01
 Orbital energies and kinetic energies (alpha):
                                 1                 2
   1         O                -1.554930         -1.309986
   2         O                -1.231750         -1.045899
   3         O                -1.109864         -0.968842
   4         O                -0.829218         -0.712732
   5         O                -0.808014         -0.722192
   6         O                -0.683872         -0.603923
   7         O                -0.595924         -0.485453

 Normal termination of Gaussian 09 at Tue Dec 15 16:26:30 2015.
