 Gaussian 09, Revision D.01,
 Gaussian 09:  ES64L-G09RevD.01 24-Apr-2013

 ------------------------------------------------------------
 #P AM1(Input,print) CIS(Singlets,NStates=15) pop(full) force
 ------------------------------------------------------------

 -----------------
 AM1-Reparam Input
 -----------------
 Symbolic Z-matrix:
 Charge =  0 Multiplicity = 1

                         Standard orientation:
 ---------------------------------------------------------------------
 Center     Atomic      Atomic             Coordinates (Angstroms)
 Number     Number       Type             X           Y           Z
 ---------------------------------------------------------------------
      1          6           0       -1.158379    0.268987    0.024399
      2          6           0       -0.594766   -0.916088    0.019218
      3          8           0        0.769663   -0.928633   -0.014536
      4          6           0        1.047387    0.466421   -0.002715
      5          6           0       -0.099143    1.174056   -0.022885
      6          1           0       -0.130116    2.278516    0.031869
      7          1           0        2.082167    0.677807    0.071047
      8          1           0       -1.035090   -1.957870   -0.020945
      9          1           0       -2.244857    0.470356   -0.073788
 ---------------------------------------------------------------------

 SCF Done:  E(RAM1) =   2.87471202200     A.U. after   13 cycles

 Excitation energies and oscillator strengths:

 Excited State   1:      Singlet-A      5.3853 eV  230.23 nm  f=0.3128  <S**2>=0.000
      13 -> 14         0.69206
 This state for optimization and/or second-order correction.
 Total Energy, E(CIS) =   3.07261751864
 Copying the excited state density for this state as the 1-particle RhoCI density.

 Excited State   2:      Singlet-A      5.8978 eV  210.22 nm  f=0.0026  <S**2>=0.000
      10 -> 15         0.12735
      13 -> 15         0.67501
      13 -> 17        -0.10158

 Excited State   3:      Singlet-A      6.6833 eV  185.51 nm  f=0.0030  <S**2>=0.000
      10 -> 16        -0.13387
      13 -> 16         0.64528
      13 -> 17        -0.16541
      13 -> 18        -0.10482
      13 -> 19        -0.11427

 Excited State   4:      Singlet-A      6.9627 eV  178.07 nm  f=0.0005  <S**2>=0.000
      12 -> 14         0.69415

 Excited State   5:      Singlet-A      7.6284 eV  162.53 nm  f=0.0204  <S**2>=0.000
      11 -> 14         0.34560
      13 -> 15         0.10741
      13 -> 17         0.54868
      13 -> 18        -0.14852
      13 -> 19        -0.10019
      13 -> 21        -0.11870

 Excited State   6:      Singlet-A      7.8111 eV  158.73 nm  f=0.0020  <S**2>=0.000
      11 -> 14         0.59307
      13 -> 17        -0.28193
      13 -> 18         0.17165
      13 -> 21         0.10556

 Excited State   7:      Singlet-A      7.9855 eV  155.26 nm  f=0.0019  <S**2>=0.000
      10 -> 16        -0.12065
      13 -> 16         0.15847
      13 -> 17         0.26294
      13 -> 18         0.46605
      13 -> 19         0.11062
      13 -> 21         0.37894

 Excited State   8:      Singlet-A      8.5393 eV  145.19 nm  f=0.0001  <S**2>=0.000
      13 -> 18        -0.10722
      13 -> 19         0.65933
      13 -> 21        -0.16916

 Excited State   9:      Singlet-A      8.6770 eV  142.89 nm  f=0.0530  <S**2>=0.000
      10 -> 14         0.63013
      12 -> 15        -0.21265

 Excited State  10:      Singlet-A      9.0022 eV  137.73 nm  f=0.0137  <S**2>=0.000
      10 -> 14         0.10012
      12 -> 15         0.17836
      13 -> 18        -0.41438
      13 -> 21         0.48985

 Excited State  11:      Singlet-A      9.0190 eV  137.47 nm  f=0.0833  <S**2>=0.000
       8 -> 15         0.13705
       9 -> 15         0.12823
      10 -> 14         0.17518
      11 -> 17        -0.15083
      12 -> 15         0.49550
      12 -> 16        -0.15869
      12 -> 18         0.15252
      13 -> 18         0.16323
      13 -> 21        -0.20011

 Excited State  12:      Singlet-A      9.3445 eV  132.68 nm  f=0.0917  <S**2>=0.000
      10 -> 15         0.21998
      11 -> 15         0.13938
      13 -> 20         0.63084

 Excited State  13:      Singlet-A      9.4555 eV  131.12 nm  f=0.0189  <S**2>=0.000
       7 -> 15        -0.11578
      10 -> 15         0.48769
      11 -> 15         0.31303
      11 -> 17        -0.11842
      13 -> 15        -0.13025
      13 -> 20        -0.27751

 Excited State  14:      Singlet-A      9.5667 eV  129.60 nm  f=0.0804  <S**2>=0.000
       9 -> 15        -0.12566
      10 -> 14         0.10196
      10 -> 15         0.34522
      11 -> 15        -0.30100
      11 -> 16        -0.10427
      11 -> 17         0.27133
      12 -> 15         0.21728
      12 -> 16         0.13930
      12 -> 18        -0.19880
      12 -> 21        -0.10669

 Excited State  15:      Singlet-A      9.8552 eV  125.81 nm  f=0.0970  <S**2>=0.000
       8 -> 16        -0.12690
       9 -> 15         0.25425
      10 -> 14         0.13458
      10 -> 15        -0.13604
      11 -> 15         0.31328
      11 -> 16        -0.10789
      11 -> 19         0.21708
      12 -> 15         0.10400
      12 -> 16         0.19198
      12 -> 17         0.24504
      12 -> 18        -0.21469
      12 -> 21        -0.10182

 The electronic state is 1-A.
 Alpha  occ. eigenvalues --   -1.70091  -1.12892  -0.90812  -0.77859  -0.74645
 Alpha  occ. eigenvalues --   -0.65614  -0.62863  -0.51023  -0.49209  -0.41375
 Alpha  occ. eigenvalues --   -0.41134  -0.38636  -0.26805
 Alpha virt. eigenvalues --    0.13986   0.17014   0.20797   0.26221   0.28742
 Alpha virt. eigenvalues --    0.29793   0.31441   0.33315   0.35261   0.45281
 Alpha virt. eigenvalues --    0.47493

 Mulliken charges:
               1
     1  C   -0.151738
     2  C   -1.912595
     3  O    3.187861
     4  C   -1.911912
     5  C   -0.106662
     6  H    0.165625
     7  H    0.273289
     8  H    0.287052
     9  H    0.169080
 Sum of Mulliken charges =   0.00000

 Dipole moment (field-independent basis, Debye):
    X=              6.9579    Y=             -9.3838    Z=             -0.2841  Tot=             11.6854
 N-N= 1.038393741086D+02 E-N=-1.691128188844D+02  KE=-1.475734594333D+01
 Orbital energies and kinetic energies (alpha):
                                 1                 2
   1         O                -1.700914         -1.185616
   2         O                -1.128918         -1.008098
   3         O                -0.908121         -0.855545
   4         O                -0.778594         -0.584560
   5         O                -0.746445         -0.665001
   6         O                -0.656141         -0.567269
   7         O                -0.628631         -0.529115

 Normal termination of Gaussian 09 at Tue Dec 15 17:05:59 2015.
