 Gaussian 09, Revision D.01,
 Gaussian 09:  ES64L-G09RevD.01 24-Apr-2013

 ------------------------------------------------------------
 #P AM1(Input,print) CIS(Singlets,NStates=15) pop(full) force
 ------------------------------------------------------------

 -----------------
 AM1-Reparam Input
 -----------------
 Symbolic Z-matrix:
 Charge =  0 Multiplicity = 1

                         Standard orientation:
 ---------------------------------------------------------------------
 Center     Atomic      Atomic             Coordinates (Angstroms)
 Number     Number       Type             X           Y           Z
 ---------------------------------------------------------------------
      1          6           0        1.167013   -0.258812   -0.004737
      2          6           0        0.108758   -1.117973   -0.004070
      3          8           0       -1.113809   -0.441459    0.003735
      4          6           0       -0.706110    0.856629    0.002176
      5          6           0        0.623408    0.998950   -0.000937
      6          1           0        1.147896    1.909734    0.006692
      7          1           0       -1.591595    1.537298   -0.015170
      8          1           0       -0.026602   -2.201753    0.001494
      9          1           0        2.222362   -0.586368    0.022516
 ---------------------------------------------------------------------

 SCF Done:  E(RAM1) =   1.10260717825     A.U. after   14 cycles

 Excitation energies and oscillator strengths:

 Excited State   1:      Singlet-A      5.8095 eV  213.42 nm  f=0.1650  <S**2>=0.000
      12 -> 15         0.17424
      13 -> 14         0.66867
 This state for optimization and/or second-order correction.
 Total Energy, E(CIS) =   1.31610316506
 Copying the excited state density for this state as the 1-particle RhoCI density.

 Excited State   2:      Singlet-A      6.7600 eV  183.41 nm  f=0.0020  <S**2>=0.000
      13 -> 16         0.61930
      13 -> 17         0.25406
      13 -> 18        -0.16794

 Excited State   3:      Singlet-A      6.9318 eV  178.86 nm  f=0.0207  <S**2>=0.000
      12 -> 14        -0.39249
      13 -> 15         0.57086

 Excited State   4:      Singlet-A      7.0371 eV  176.19 nm  f=0.0005  <S**2>=0.000
      13 -> 16        -0.25361
      13 -> 17         0.61625
      13 -> 19         0.12447
      13 -> 21        -0.12734

 Excited State   5:      Singlet-A      7.7258 eV  160.48 nm  f=0.0004  <S**2>=0.000
       9 -> 14         0.11868
      10 -> 14        -0.14402
      11 -> 14         0.67522

 Excited State   6:      Singlet-A      7.9015 eV  156.91 nm  f=0.0058  <S**2>=0.000
      10 -> 14         0.66666
      11 -> 14         0.13995

 Excited State   7:      Singlet-A      8.0901 eV  153.25 nm  f=0.2619  <S**2>=0.000
      12 -> 14         0.56628
      13 -> 15         0.37012

 Excited State   8:      Singlet-A      8.4112 eV  147.40 nm  f=0.0097  <S**2>=0.000
      12 -> 15         0.15637
      12 -> 16         0.46203
      12 -> 17         0.18659
      13 -> 18         0.25457
      13 -> 19         0.32394
      13 -> 20        -0.13932
      13 -> 24        -0.12255

 Excited State   9:      Singlet-A      8.4559 eV  146.62 nm  f=0.2216  <S**2>=0.000
      12 -> 15         0.63826
      13 -> 14        -0.15966
      13 -> 19        -0.11049

 Excited State  10:      Singlet-A      8.5739 eV  144.61 nm  f=0.0031  <S**2>=0.000
      12 -> 16        -0.30833
      12 -> 17         0.34522
      13 -> 18        -0.15993
      13 -> 19         0.41891
      13 -> 20         0.21934

 Excited State  11:      Singlet-A      8.6816 eV  142.81 nm  f=0.0007  <S**2>=0.000
      12 -> 16         0.28375
      12 -> 17         0.36453
      13 -> 16        -0.12718
      13 -> 18        -0.28993
      13 -> 19        -0.28557
      13 -> 20         0.23164
      13 -> 22         0.10305
      13 -> 24         0.10461

 Excited State  12:      Singlet-A      8.8491 eV  140.11 nm  f=0.0001  <S**2>=0.000
      11 -> 15         0.17377
      12 -> 16         0.16456
      12 -> 17        -0.30986
      13 -> 20         0.52553
      13 -> 23         0.12633

 Excited State  13:      Singlet-A      8.8688 eV  139.80 nm  f=0.0162  <S**2>=0.000
       6 -> 15        -0.10162
       9 -> 15        -0.28658
      10 -> 14        -0.10405
      11 -> 15         0.57557
      12 -> 17         0.11498
      13 -> 20        -0.15299

 Excited State  14:      Singlet-A      9.4487 eV  131.22 nm  f=0.0062  <S**2>=0.000
       8 -> 17        -0.11193
       9 -> 16         0.17595
       9 -> 17        -0.10406
       9 -> 21         0.10021
      10 -> 16         0.30673
      10 -> 17         0.28137
      10 -> 18        -0.20752
      10 -> 20        -0.16721
      11 -> 17        -0.21309
      11 -> 19        -0.27251
      12 -> 15        -0.10022

 Excited State  15:      Singlet-A      9.4660 eV  130.98 nm  f=0.0022  <S**2>=0.000
      12 -> 16        -0.14965
      12 -> 17         0.21335
      13 -> 16         0.14275
      13 -> 18         0.43676
      13 -> 19        -0.21990
      13 -> 20         0.14484
      13 -> 21        -0.36449

 The electronic state is 1-A.
 Alpha  occ. eigenvalues --   -1.81169  -1.21490  -0.97067  -0.87010  -0.81135
 Alpha  occ. eigenvalues --   -0.73137  -0.71278  -0.58249  -0.56408  -0.50619
 Alpha  occ. eigenvalues --   -0.50094  -0.46053  -0.38367
 Alpha virt. eigenvalues --    0.05190   0.09188   0.10346   0.11661   0.18586
 Alpha virt. eigenvalues --    0.19284   0.20860   0.22285   0.26185   0.27637
 Alpha virt. eigenvalues --    0.29159

 Mulliken charges:
               1
     1  C   -0.102539
     2  C   -1.231579
     3  O    2.100490
     4  C   -1.217411
     5  C   -0.137973
     6  H    0.105814
     7  H    0.190587
     8  H    0.182883
     9  H    0.109726
 Sum of Mulliken charges =   0.00000

 Dipole moment (field-independent basis, Debye):
    X=             -7.2610    Y=             -2.7388    Z=              0.0453  Tot=              7.7605
 N-N= 1.044351561791D+02 E-N=-1.714411920890D+02  KE=-1.498241196003D+01
 Orbital energies and kinetic energies (alpha):
                                 1                 2
   1         O                -1.811694         -1.231382
   2         O                -1.214902         -0.999739
   3         O                -0.970668         -0.817164
   4         O                -0.870096         -0.626100
   5         O                -0.811349         -0.654868
   6         O                -0.731366         -0.605659
   7         O                -0.712782         -0.519686

 Normal termination of Gaussian 09 at Tue Dec 15 17:05:31 2015.
