 Gaussian 09, Revision D.01,
 Gaussian 09:  ES64L-G09RevD.01 24-Apr-2013

 ------------------------------------------------------------
 #P AM1(Input,print) CIS(Singlets,NStates=15) pop(full) force
 ------------------------------------------------------------

 -----------------
 AM1-Reparam Input
 -----------------
 Symbolic Z-matrix:
 Charge =  0 Multiplicity = 1

                         Standard orientation:
 ---------------------------------------------------------------------
 Center     Atomic      Atomic             Coordinates (Angstroms)
 Number     Number       Type             X           Y           Z
 ---------------------------------------------------------------------
      1          6           0        0.675878    0.981242   -0.020475
      2          6           0        1.064960   -0.289038    0.002296
      3          8           0        0.104754   -1.110560   -0.010340
      4          6           0       -1.089262   -0.452070    0.017828
      5          6           0       -0.756986    0.920529   -0.005822
      6          1           0       -1.513018    1.690538    0.009793
      7          1           0       -1.987048   -0.944526   -0.002989
      8          1           0        2.122285   -0.706192    0.045864
      9          1           0        1.172203    1.880684    0.067091
 ---------------------------------------------------------------------

 SCF Done:  E(RAM1) =  0.442560989030E-01 A.U. after   13 cycles

 Excitation energies and oscillator strengths:

 Excited State   1:      Singlet-A      4.4876 eV  276.28 nm  f=0.0781  <S**2>=0.000
      12 -> 15         0.22593
      13 -> 14         0.64837
      13 -> 16         0.12308
 This state for optimization and/or second-order correction.
 Total Energy, E(CIS) =  0.209172912013
 Copying the excited state density for this state as the 1-particle RhoCI density.

 Excited State   2:      Singlet-A      4.6626 eV  265.91 nm  f=0.0044  <S**2>=0.000
      13 -> 14        -0.12155
      13 -> 15        -0.12447
      13 -> 16         0.65719
      13 -> 17        -0.10730

 Excited State   3:      Singlet-A      5.0192 eV  247.02 nm  f=0.0096  <S**2>=0.000
      12 -> 14        -0.40608
      13 -> 15         0.56006
      13 -> 16         0.12944

 Excited State   4:      Singlet-A      5.8250 eV  212.85 nm  f=0.0011  <S**2>=0.000
      12 -> 18         0.20976
      12 -> 19         0.13211
      12 -> 21         0.11805
      13 -> 18         0.49068
      13 -> 19         0.26618
      13 -> 21         0.20754
      13 -> 23         0.18613

 Excited State   5:      Singlet-A      5.9033 eV  210.03 nm  f=0.0063  <S**2>=0.000
       7 -> 16        -0.14577
      12 -> 15        -0.12060
      12 -> 16         0.64180
      12 -> 17        -0.10370

 Excited State   6:      Singlet-A      6.1157 eV  202.73 nm  f=0.0235  <S**2>=0.000
      12 -> 14        -0.14637
      12 -> 18         0.18141
      12 -> 19        -0.18236
      12 -> 21        -0.10646
      12 -> 23         0.12796
      13 -> 15        -0.11041
      13 -> 17         0.12077
      13 -> 18        -0.24100
      13 -> 19         0.40437
      13 -> 21         0.22374
      13 -> 23        -0.19123

 Excited State   7:      Singlet-A      6.1400 eV  201.93 nm  f=0.2703  <S**2>=0.000
      12 -> 14         0.48397
      12 -> 15         0.24095
      13 -> 15         0.35060
      13 -> 19         0.11298

 Excited State   8:      Singlet-A      6.3861 eV  194.15 nm  f=0.2288  <S**2>=0.000
      12 -> 14        -0.19424
      12 -> 15         0.59017
      12 -> 16         0.13032
      13 -> 14        -0.20457
      13 -> 15        -0.11489

 Excited State   9:      Singlet-A      6.4976 eV  190.82 nm  f=0.0025  <S**2>=0.000
      11 -> 14         0.11191
      12 -> 17        -0.16200
      13 -> 17         0.58844
      13 -> 18         0.18535
      13 -> 19        -0.16607

 Excited State  10:      Singlet-A      6.8622 eV  180.68 nm  f=0.0024  <S**2>=0.000
       9 -> 14        -0.11608
       9 -> 15         0.11589
      10 -> 14        -0.30705
      10 -> 15        -0.18165
      11 -> 14         0.53869
      12 -> 17         0.10893

 Excited State  11:      Singlet-A      6.9729 eV  177.81 nm  f=0.0008  <S**2>=0.000
      12 -> 17         0.43399
      12 -> 18         0.17069
      12 -> 19        -0.23447
      12 -> 20         0.24426
      12 -> 21         0.17208
      12 -> 22         0.14805
      12 -> 23        -0.14472
      13 -> 19        -0.18472
      13 -> 21         0.16106

 Excited State  12:      Singlet-A      7.3066 eV  169.69 nm  f=0.0019  <S**2>=0.000
       9 -> 14         0.29043
      10 -> 14        -0.24400
      10 -> 15         0.14297
      11 -> 15         0.46787
      12 -> 20        -0.10286
      13 -> 19        -0.10623
      13 -> 21         0.17746

 Excited State  13:      Singlet-A      7.4216 eV  167.06 nm  f=0.0007  <S**2>=0.000
       9 -> 15        -0.11149
      10 -> 14        -0.21736
      11 -> 14        -0.12474
      11 -> 15         0.15601
      12 -> 17         0.12071
      12 -> 18        -0.17307
      12 -> 19         0.16321
      12 -> 20         0.25576
      13 -> 17         0.17960
      13 -> 19         0.33831
      13 -> 20         0.10715
      13 -> 21        -0.22354

 Excited State  14:      Singlet-A      7.5212 eV  164.85 nm  f=0.0070  <S**2>=0.000
      11 -> 15        -0.11142
      12 -> 17         0.12429
      12 -> 19         0.29764
      13 -> 20         0.47649
      13 -> 21         0.24748
      13 -> 23        -0.14582

 Excited State  15:      Singlet-A      7.6657 eV  161.74 nm  f=0.0034  <S**2>=0.000
       9 -> 15         0.13007
      10 -> 14         0.15936
      12 -> 18         0.38038
      12 -> 19         0.22804
      12 -> 22        -0.21678
      13 -> 17         0.10852
      13 -> 18        -0.25647
      13 -> 22         0.12781
      13 -> 23         0.18392
      13 -> 24         0.17211

 The electronic state is 1-A.
 Alpha  occ. eigenvalues --   -1.61426  -1.24105  -1.11013  -0.83715  -0.81299
 Alpha  occ. eigenvalues --   -0.69757  -0.62852  -0.58058  -0.50841  -0.50321
 Alpha  occ. eigenvalues --   -0.48480  -0.38957  -0.34444
 Alpha virt. eigenvalues --    0.03507   0.06358   0.08807   0.13781   0.15364
 Alpha virt. eigenvalues --    0.15877   0.17638   0.18965   0.19702   0.20801
 Alpha virt. eigenvalues --    0.23488

 Mulliken charges:
               1
     1  C   -0.235313
     2  C   -0.077721
     3  O   -0.038145
     4  C   -0.148629
     5  C   -0.199920
     6  H    0.157510
     7  H    0.193487
     8  H    0.191701
     9  H    0.157030
 Sum of Mulliken charges =   0.00000

 Dipole moment (field-independent basis, Debye):
    X=              0.0501    Y=              0.0741    Z=              0.1117  Tot=              0.1431
 N-N= 1.042221397304D+02 E-N=-1.721907594764D+02  KE=-1.665958886780D+01
 Orbital energies and kinetic energies (alpha):
                                 1                 2
   1         O                -1.614264         -1.339653
   2         O                -1.241055         -1.059863
   3         O                -1.110126         -0.964050
   4         O                -0.837151         -0.708375
   5         O                -0.812990         -0.724878
   6         O                -0.697573         -0.608946
   7         O                -0.628524         -0.502309

 Normal termination of Gaussian 09 at Tue Dec 15 16:29:45 2015.
