 Gaussian 09, Revision D.01,
 Gaussian 09:  ES64L-G09RevD.01 24-Apr-2013

 -------------------------------------------------------
 #P B3LYP/3-21G CIS(Singlets,NStates=15) pop(full) force
 -------------------------------------------------------

 --------
 FuranDFT
 --------
 Symbolic Z-matrix:
 Charge =  0 Multiplicity = 1

                         Standard orientation:
 ---------------------------------------------------------------------
 Center     Atomic      Atomic             Coordinates (Angstroms)
 Number     Number       Type             X           Y           Z
 ---------------------------------------------------------------------
      1          6           0       -0.255349    1.154326   -0.018917
      2          6           0       -1.171603    0.043826    0.001751
      3          8           0       -0.444608   -1.028435    0.007647
      4          6           0        0.888982   -0.700744   -0.033743
      5          6           0        0.990899    0.587051    0.036535
      6          1           0        1.995673    1.179372   -0.013098
      7          1           0        1.550679   -1.601472    0.026153
      8          1           0       -2.157597    0.016672    0.021472
      9          1           0       -0.549466    2.126148   -0.009459
 ---------------------------------------------------------------------

 SCF Done:  E(RB3LYP) =  -228.713961369     A.U. after   14 cycles

 Excitation energies and oscillator strengths:

 Excited State   1:      Singlet-A      7.2019 eV  172.16 nm  f=0.1944  <S**2>=0.000
      17 -> 19         0.18191
      18 -> 19         0.61504
      18 -> 20        -0.23903
 This state for optimization and/or second-order correction.
 Total Energy, E(CIS) =  -228.449296834
 Copying the excited state density for this state as the 1-particle RhoCI density.

 Excited State   2:      Singlet-A      7.4785 eV  165.79 nm  f=0.0533  <S**2>=0.000
      17 -> 19         0.46304
      18 -> 19        -0.28721
      18 -> 20        -0.43388

 Excited State   3:      Singlet-A      8.0317 eV  154.37 nm  f=0.0017  <S**2>=0.000
      18 -> 21         0.69404

 Excited State   4:      Singlet-A      8.5038 eV  145.80 nm  f=0.0038  <S**2>=0.000
      16 -> 19         0.70273

 Excited State   5:      Singlet-A      9.1782 eV  135.09 nm  f=0.0225  <S**2>=0.000
      17 -> 19        -0.10887
      18 -> 20        -0.11945
      18 -> 22         0.67249

 Excited State   6:      Singlet-A      9.5666 eV  129.60 nm  f=0.4256  <S**2>=0.000
      17 -> 19         0.41036
      17 -> 20         0.16918
      17 -> 21         0.15398
      18 -> 20         0.41964
      18 -> 22         0.18023

 Excited State   7:      Singlet-A      9.6143 eV  128.96 nm  f=0.0151  <S**2>=0.000
      17 -> 20        -0.23091
      17 -> 21         0.63842
      18 -> 23         0.15385

 Excited State   8:      Singlet-A      9.8850 eV  125.43 nm  f=0.0090  <S**2>=0.000
      15 -> 19         0.45555
      16 -> 20        -0.10334
      18 -> 23         0.49971

 Excited State   9:      Singlet-A      9.8945 eV  125.31 nm  f=0.0095  <S**2>=0.000
      15 -> 19         0.50261
      16 -> 20        -0.12167
      17 -> 21         0.10400
      18 -> 23        -0.44809

 Excited State  10:      Singlet-A     10.3686 eV  119.58 nm  f=0.2422  <S**2>=0.000
      17 -> 19        -0.13924
      17 -> 20         0.58916
      17 -> 21         0.19074
      17 -> 22        -0.17491
      18 -> 20        -0.11735

 Excited State  11:      Singlet-A     10.5021 eV  118.06 nm  f=0.0088  <S**2>=0.000
      18 -> 24         0.67803
      18 -> 25         0.12363

 Excited State  12:      Singlet-A     10.5304 eV  117.74 nm  f=0.0049  <S**2>=0.000
      14 -> 19         0.51026
      15 -> 19         0.11684
      16 -> 20         0.43682
      17 -> 22        -0.13144

 Excited State  13:      Singlet-A     10.7258 eV  115.59 nm  f=0.0023  <S**2>=0.000
      14 -> 19        -0.43853
      15 -> 19         0.10390
      16 -> 20         0.52198
      17 -> 22         0.10249

 Excited State  14:      Singlet-A     10.8984 eV  113.76 nm  f=0.0375  <S**2>=0.000
      14 -> 19         0.12671
      17 -> 20         0.12782
      17 -> 22         0.52181
      18 -> 25         0.40289

 Excited State  15:      Singlet-A     10.9072 eV  113.67 nm  f=0.0072  <S**2>=0.000
      17 -> 22        -0.39630
      18 -> 25         0.55277

 The electronic state is 1-A.
 Alpha  occ. eigenvalues --  -19.11463 -10.17110 -10.16995 -10.12314 -10.11296
 Alpha  occ. eigenvalues --   -1.14892  -0.81649  -0.75502  -0.60819  -0.57957
 Alpha  occ. eigenvalues --   -0.54272  -0.46244  -0.46035  -0.42123  -0.39452
 Alpha  occ. eigenvalues --   -0.35168  -0.28742  -0.22399
 Alpha virt. eigenvalues --    0.02208   0.09055   0.11789   0.15355   0.18444
 Alpha virt. eigenvalues --    0.20484   0.22377   0.25676   0.34509   0.43116
 Alpha virt. eigenvalues --    0.50554   0.67056   0.69641   0.72470   0.75394

 Mulliken charges:
               1
     1  C   -0.276385
     2  C    0.128152
     3  O   -0.501328
     4  C    0.081247
     5  C   -0.229803
     6  H    0.179806
     7  H    0.213231
     8  H    0.224998
     9  H    0.180081
 Sum of Mulliken charges =   0.00000

 Dipole moment (field-independent basis, Debye):
    X=              0.1562    Y=              0.4538    Z=              0.0348  Tot=              0.4812
 Quadrupole moment (field-independent basis, Debye-Ang):
   XX=            -24.1422   YY=            -27.5586   ZZ=            -31.5993
   XY=             -1.4078   XZ=             -0.0239   YZ=             -0.1032

 Normal termination of Gaussian 09 at Tue Dec 15 16:21:24 2015.
