 Gaussian 09, Revision D.01,
 Gaussian 09:  ES64L-G09RevD.01 24-Apr-2013

 ------------------------------------------------------------
 #P AM1(Input,print) CIS(Singlets,NStates=15) pop(full) force
 ------------------------------------------------------------

 -----------------
 AM1-Reparam Input
 -----------------
 Symbolic Z-matrix:
 Charge =  0 Multiplicity = 1

                         Standard orientation:
 ---------------------------------------------------------------------
 Center     Atomic      Atomic             Coordinates (Angstroms)
 Number     Number       Type             X           Y           Z
 ---------------------------------------------------------------------
      1          6           0        0.210344    1.215219    0.000537
      2          6           0        1.154654    0.153317    0.005513
      3          8           0        0.507579   -1.068729   -0.020091
      4          6           0       -0.798119   -0.745271    0.028571
      5          6           0       -1.090367    0.497913   -0.007144
      6          1           0       -2.018436    1.049665   -0.014923
      7          1           0       -1.467395   -1.591341   -0.012691
      8          1           0        2.158500    0.144025    0.042539
      9          1           0        0.407627    2.220422   -0.019058
 ---------------------------------------------------------------------

 SCF Done:  E(RAM1) =   1.13526692693     A.U. after   14 cycles

 Excitation energies and oscillator strengths:

 Excited State   1:      Singlet-A      5.3515 eV  231.68 nm  f=0.2245  <S**2>=0.000
      12 -> 15         0.13439
      13 -> 14         0.68350
 This state for optimization and/or second-order correction.
 Total Energy, E(CIS) =   1.33193055292
 Copying the excited state density for this state as the 1-particle RhoCI density.

 Excited State   2:      Singlet-A      6.3699 eV  194.64 nm  f=0.0028  <S**2>=0.000
      13 -> 15        -0.15423
      13 -> 16         0.65288
      13 -> 17         0.11384
      13 -> 19        -0.12990

 Excited State   3:      Singlet-A      6.6143 eV  187.45 nm  f=0.0029  <S**2>=0.000
      13 -> 15        -0.20590
      13 -> 16        -0.14357
      13 -> 17         0.61965
      13 -> 18        -0.13014

 Excited State   4:      Singlet-A      6.7880 eV  182.65 nm  f=0.0145  <S**2>=0.000
      12 -> 14        -0.38121
      13 -> 15         0.51903
      13 -> 17         0.24104

 Excited State   5:      Singlet-A      7.1107 eV  174.36 nm  f=0.0004  <S**2>=0.000
       9 -> 14        -0.10727
      11 -> 14         0.69378

 Excited State   6:      Singlet-A      7.9303 eV  156.34 nm  f=0.2704  <S**2>=0.000
      12 -> 14         0.54934
      13 -> 15         0.34947
      13 -> 18        -0.15680

 Excited State   7:      Singlet-A      7.9818 eV  155.33 nm  f=0.0169  <S**2>=0.000
      12 -> 14         0.12403
      13 -> 17         0.11215
      13 -> 18         0.62624
      13 -> 24         0.14863

 Excited State   8:      Singlet-A      8.0975 eV  153.11 nm  f=0.0122  <S**2>=0.000
      10 -> 14         0.66309
      11 -> 15        -0.12164

 Excited State   9:      Singlet-A      8.5711 eV  144.65 nm  f=0.0086  <S**2>=0.000
      12 -> 15         0.22658
      12 -> 16        -0.22438
      12 -> 17        -0.12642
      13 -> 19        -0.24761
      13 -> 20         0.49335
      13 -> 21        -0.15440

 Excited State  10:      Singlet-A      8.6086 eV  144.02 nm  f=0.0711  <S**2>=0.000
       9 -> 16         0.12291
      11 -> 16        -0.10849
      11 -> 17         0.13585
      11 -> 18        -0.11521
      12 -> 15         0.52679
      12 -> 17        -0.16023
      13 -> 19         0.15012
      13 -> 20        -0.25363

 Excited State  11:      Singlet-A      8.7449 eV  141.78 nm  f=0.0254  <S**2>=0.000
      12 -> 15         0.16338
      12 -> 16         0.47072
      12 -> 17         0.37375
      13 -> 20         0.19181

 Excited State  12:      Singlet-A      8.8857 eV  139.53 nm  f=0.0155  <S**2>=0.000
       6 -> 15        -0.11297
       9 -> 14         0.14436
       9 -> 15         0.28821
      10 -> 14         0.13603
      10 -> 15        -0.15002
      11 -> 15         0.56212

 Excited State  13:      Singlet-A      8.9342 eV  138.77 nm  f=0.0017  <S**2>=0.000
      12 -> 16        -0.34696
      12 -> 17         0.46263
      13 -> 19        -0.28111
      13 -> 20        -0.21730

 Excited State  14:      Singlet-A      9.2461 eV  134.09 nm  f=0.0005  <S**2>=0.000
       9 -> 14         0.15020
      12 -> 16        -0.20390
      12 -> 17         0.16780
      13 -> 16         0.11331
      13 -> 19         0.34723
      13 -> 20         0.23963
      13 -> 21         0.43634

 Excited State  15:      Singlet-A      9.4763 eV  130.84 nm  f=0.0676  <S**2>=0.000
       9 -> 14         0.49407
      11 -> 15        -0.14185
      11 -> 16         0.27834
      11 -> 17        -0.15210
      11 -> 18         0.16812
      12 -> 15         0.16787

 The electronic state is 1-A.
 Alpha  occ. eigenvalues --   -1.82043  -1.19094  -0.99301  -0.87446  -0.80977
 Alpha  occ. eigenvalues --   -0.74733  -0.71416  -0.59885  -0.55632  -0.52927
 Alpha  occ. eigenvalues --   -0.49530  -0.47083  -0.37241
 Alpha virt. eigenvalues --    0.03264   0.09581   0.09937   0.11947   0.18420
 Alpha virt. eigenvalues --    0.20033   0.21124   0.22213   0.26885   0.27164
 Alpha virt. eigenvalues --    0.27789

 Mulliken charges:
               1
     1  C   -0.108037
     2  C   -1.234469
     3  O    2.108652
     4  C   -1.218231
     5  C   -0.134595
     6  H    0.109417
     7  H    0.206237
     8  H    0.177467
     9  H    0.093560
 Sum of Mulliken charges =   0.00000

 Dipole moment (field-independent basis, Debye):
    X=              2.5300    Y=             -7.0146    Z=             -0.3331  Tot=              7.4643
 N-N= 1.043628003042D+02 E-N=-1.711121230219D+02  KE=-1.499680201970D+01
 Orbital energies and kinetic energies (alpha):
                                 1                 2
   1         O                -1.820430         -1.236383
   2         O                -1.190943         -0.975381
   3         O                -0.993013         -0.828748
   4         O                -0.874458         -0.624146
   5         O                -0.809766         -0.684639
   6         O                -0.747325         -0.592464
   7         O                -0.714157         -0.510333

 Normal termination of Gaussian 09 at Tue Dec 15 17:05:34 2015.
