 Gaussian 09, Revision D.01,
 Gaussian 09:  ES64L-G09RevD.01 24-Apr-2013

 ------------------------------------------------------------
 #P AM1(Input,print) CIS(Singlets,NStates=15) pop(full) force
 ------------------------------------------------------------

 -----------------
 AM1-Reparam Input
 -----------------
 Symbolic Z-matrix:
 Charge =  0 Multiplicity = 1

                         Standard orientation:
 ---------------------------------------------------------------------
 Center     Atomic      Atomic             Coordinates (Angstroms)
 Number     Number       Type             X           Y           Z
 ---------------------------------------------------------------------
      1          6           0        0.559627    1.015389   -0.006607
      2          6           0        1.137285   -0.187972   -0.011430
      3          8           0        0.185658   -1.112927   -0.013445
      4          6           0       -1.030920   -0.500435    0.009945
      5          6           0       -0.857226    0.843068    0.026187
      6          1           0       -1.665486    1.532788   -0.070999
      7          1           0       -1.887181   -1.162659   -0.006423
      8          1           0        2.129413   -0.494770    0.098703
      9          1           0        1.085399    2.007760   -0.022291
 ---------------------------------------------------------------------

 SCF Done:  E(RAM1) =  0.240086214943E-01 A.U. after   13 cycles

 Excitation energies and oscillator strengths:

 Excited State   1:      Singlet-A      4.5854 eV  270.39 nm  f=0.0836  <S**2>=0.000
      12 -> 15         0.22104
      13 -> 14         0.66310
 This state for optimization and/or second-order correction.
 Total Energy, E(CIS) =  0.192518632259
 Copying the excited state density for this state as the 1-particle RhoCI density.

 Excited State   2:      Singlet-A      4.9919 eV  248.37 nm  f=0.0017  <S**2>=0.000
      12 -> 14         0.12647
      13 -> 15        -0.23504
      13 -> 16         0.63551

 Excited State   3:      Singlet-A      5.1615 eV  240.21 nm  f=0.0052  <S**2>=0.000
      12 -> 14        -0.40891
      13 -> 15         0.50774
      13 -> 16         0.25920

 Excited State   4:      Singlet-A      5.9539 eV  208.24 nm  f=0.0037  <S**2>=0.000
       7 -> 16        -0.16621
      12 -> 15        -0.14608
      12 -> 16         0.63884
      12 -> 22         0.14063

 Excited State   5:      Singlet-A      6.1070 eV  203.02 nm  f=0.0023  <S**2>=0.000
      12 -> 18         0.17936
      12 -> 20        -0.13068
      12 -> 22         0.13771
      13 -> 17         0.28146
      13 -> 18         0.38407
      13 -> 19        -0.11106
      13 -> 20        -0.21184
      13 -> 22         0.15966
      13 -> 23         0.24687

 Excited State   6:      Singlet-A      6.1522 eV  201.53 nm  f=0.0038  <S**2>=0.000
      12 -> 17         0.10116
      12 -> 19        -0.19592
      12 -> 23         0.15083
      13 -> 17        -0.10132
      13 -> 18         0.13980
      13 -> 19         0.44424
      13 -> 21        -0.16124
      13 -> 22         0.30011
      13 -> 23        -0.18321

 Excited State   7:      Singlet-A      6.2772 eV  197.51 nm  f=0.3738  <S**2>=0.000
      12 -> 14         0.51269
      13 -> 15         0.39920

 Excited State   8:      Singlet-A      6.4419 eV  192.46 nm  f=0.1361  <S**2>=0.000
      12 -> 15         0.63535
      12 -> 16         0.14793
      13 -> 14        -0.20319

 Excited State   9:      Singlet-A      6.6292 eV  187.03 nm  f=0.0163  <S**2>=0.000
      12 -> 15        -0.10365
      13 -> 17         0.50260
      13 -> 18        -0.36534
      13 -> 19         0.20955

 Excited State  10:      Singlet-A      7.0550 eV  175.74 nm  f=0.0016  <S**2>=0.000
       9 -> 15        -0.14845
      10 -> 14         0.50653
      11 -> 15        -0.20164
      12 -> 17         0.19548
      12 -> 18        -0.25564
      12 -> 20         0.11424

 Excited State  11:      Singlet-A      7.0850 eV  175.00 nm  f=0.0018  <S**2>=0.000
      10 -> 14        -0.32431
      11 -> 15         0.14403
      12 -> 17         0.35213
      12 -> 18        -0.27896
      12 -> 19         0.15180
      12 -> 20         0.18706
      12 -> 21        -0.11971
      12 -> 23         0.13364
      13 -> 17         0.11024
      13 -> 18         0.13225
      13 -> 22        -0.14989

 Excited State  12:      Singlet-A      7.3808 eV  167.98 nm  f=0.0009  <S**2>=0.000
       9 -> 14         0.23800
      10 -> 15        -0.32740
      11 -> 14         0.52068
      13 -> 19         0.10041

 Excited State  13:      Singlet-A      7.4669 eV  166.05 nm  f=0.0004  <S**2>=0.000
       9 -> 15        -0.11597
      11 -> 14         0.10205
      11 -> 15         0.16530
      12 -> 17         0.30092
      12 -> 18         0.20120
      12 -> 19        -0.19352
      12 -> 20         0.15601
      12 -> 21        -0.12124
      12 -> 22         0.11727
      12 -> 23         0.16102
      13 -> 17        -0.14681
      13 -> 18        -0.28155
      13 -> 19        -0.13658
      13 -> 20        -0.15832

 Excited State  14:      Singlet-A      7.5590 eV  164.02 nm  f=0.0020  <S**2>=0.000
      12 -> 18         0.24513
      12 -> 19         0.28244
      12 -> 21         0.10184
      12 -> 22         0.18966
      13 -> 17        -0.17326
      13 -> 19         0.33099
      13 -> 20        -0.17050
      13 -> 21         0.10622
      13 -> 22        -0.26024
      13 -> 24         0.16363

 Excited State  15:      Singlet-A      7.7599 eV  159.78 nm  f=0.0005  <S**2>=0.000
      11 -> 14        -0.10080
      12 -> 19         0.26638
      12 -> 20         0.17198
      12 -> 22         0.13610
      12 -> 23         0.12812
      13 -> 17        -0.12437
      13 -> 20         0.11054
      13 -> 21         0.23917
      13 -> 22         0.44227
      13 -> 23         0.12241

 The electronic state is 1-A.
 Alpha  occ. eigenvalues --   -1.58974  -1.23621  -1.11403  -0.82989  -0.81120
 Alpha  occ. eigenvalues --   -0.69043  -0.61282  -0.56899  -0.51344  -0.49808
 Alpha  occ. eigenvalues --   -0.49438  -0.39415  -0.34971
 Alpha virt. eigenvalues --    0.03403   0.06483   0.09650   0.14139   0.14967
 Alpha virt. eigenvalues --    0.15469   0.17941   0.18323   0.19250   0.20650
 Alpha virt. eigenvalues --    0.22905

 Mulliken charges:
               1
     1  C   -0.224016
     2  C   -0.085194
     3  O   -0.079194
     4  C   -0.111183
     5  C   -0.193715
     6  H    0.160607
     7  H    0.190108
     8  H    0.186066
     9  H    0.156521
 Sum of Mulliken charges =   0.00000

 Dipole moment (field-independent basis, Debye):
    X=             -0.1093    Y=              0.2686    Z=             -0.0054  Tot=              0.2900
 N-N= 1.039927194230D+02 E-N=-1.719157293914D+02  KE=-1.661553519786D+01
 Orbital energies and kinetic energies (alpha):
                                 1                 2
   1         O                -1.589737         -1.331632
   2         O                -1.236208         -1.049307
   3         O                -1.114029         -0.969790
   4         O                -0.829887         -0.704975
   5         O                -0.811197         -0.723487
   6         O                -0.690433         -0.605229
   7         O                -0.612821         -0.495438

 Normal termination of Gaussian 09 at Tue Dec 15 16:18:03 2015.
