 Gaussian 09, Revision D.01,
 Gaussian 09:  ES64L-G09RevD.01 24-Apr-2013

 ------------------------------------------------------------
 #P AM1(Input,print) CIS(Singlets,NStates=15) pop(full) force
 ------------------------------------------------------------

 -----------------
 AM1-Reparam Input
 -----------------
 Symbolic Z-matrix:
 Charge =  0 Multiplicity = 1

                         Standard orientation:
 ---------------------------------------------------------------------
 Center     Atomic      Atomic             Coordinates (Angstroms)
 Number     Number       Type             X           Y           Z
 ---------------------------------------------------------------------
      1          6           0       -1.066028    0.549571    0.013166
      2          6           0       -0.878971   -0.796044   -0.016967
      3          8           0        0.582850   -1.035453    0.006998
      4          6           0        1.153102    0.178886   -0.007447
      5          6           0        0.175993    1.158476   -0.003216
      6          1           0        0.382676    2.257368   -0.024410
      7          1           0        2.218832    0.183356    0.032427
      8          1           0       -1.469872   -1.686384    0.003517
      9          1           0       -2.099014    0.983952    0.019260
 ---------------------------------------------------------------------

 SCF Done:  E(RAM1) =  0.188766629038E-01 A.U. after   14 cycles

 Excitation energies and oscillator strengths:

 Excited State   1:      Singlet-A      4.1301 eV  300.20 nm  f=0.1040  <S**2>=0.000
      12 -> 15         0.15259
      13 -> 14         0.67646
 This state for optimization and/or second-order correction.
 Total Energy, E(CIS) =  0.170654556075
 Copying the excited state density for this state as the 1-particle RhoCI density.

 Excited State   2:      Singlet-A      4.5318 eV  273.59 nm  f=0.0005  <S**2>=0.000
      13 -> 16         0.68771

 Excited State   3:      Singlet-A      4.9994 eV  248.00 nm  f=0.0152  <S**2>=0.000
      12 -> 14        -0.38654
      13 -> 15         0.58369

 Excited State   4:      Singlet-A      5.6952 eV  217.70 nm  f=0.0003  <S**2>=0.000
      12 -> 17        -0.13192
      13 -> 17         0.47447
      13 -> 18         0.20816
      13 -> 19        -0.15809
      13 -> 20        -0.16229
      13 -> 22         0.30237
      13 -> 23        -0.17345

 Excited State   5:      Singlet-A      5.9407 eV  208.70 nm  f=0.0036  <S**2>=0.000
       7 -> 16        -0.16185
      12 -> 16         0.59184
      12 -> 22        -0.13280
      13 -> 18        -0.18848
      13 -> 19        -0.10541

 Excited State   6:      Singlet-A      5.9997 eV  206.65 nm  f=0.0016  <S**2>=0.000
       7 -> 16        -0.10034
      12 -> 16         0.27845
      12 -> 18         0.16912
      12 -> 21        -0.11660
      13 -> 17        -0.17160
      13 -> 18         0.43687
      13 -> 19         0.13417
      13 -> 21        -0.15347
      13 -> 22         0.14251
      13 -> 23         0.21403

 Excited State   7:      Singlet-A      6.1915 eV  200.25 nm  f=0.3619  <S**2>=0.000
      12 -> 14         0.54830
      13 -> 15         0.36791

 Excited State   8:      Singlet-A      6.4161 eV  193.24 nm  f=0.0029  <S**2>=0.000
      13 -> 17         0.23054
      13 -> 19         0.60808
      13 -> 21        -0.14203
      13 -> 23        -0.10332

 Excited State   9:      Singlet-A      6.6917 eV  185.28 nm  f=0.1026  <S**2>=0.000
      12 -> 15         0.67710
      13 -> 14        -0.13721

 Excited State  10:      Singlet-A      6.8182 eV  181.84 nm  f=0.0028  <S**2>=0.000
       9 -> 15        -0.11082
      10 -> 14         0.29011
      11 -> 14         0.56630
      11 -> 15        -0.21884

 Excited State  11:      Singlet-A      7.1958 eV  172.30 nm  f=0.0001  <S**2>=0.000
      10 -> 14        -0.12410
      12 -> 19        -0.37885
      13 -> 18         0.38435
      13 -> 21         0.19206
      13 -> 22        -0.26905
      13 -> 23        -0.14568

 Excited State  12:      Singlet-A      7.2653 eV  170.65 nm  f=0.0003  <S**2>=0.000
      10 -> 14        -0.27257
      10 -> 15        -0.12444
      12 -> 17         0.12415
      12 -> 18        -0.27581
      12 -> 22        -0.10341
      13 -> 17        -0.21170
      13 -> 19         0.11517
      13 -> 20         0.12096
      13 -> 21         0.17352
      13 -> 22         0.36223
      13 -> 24        -0.15312

 Excited State  13:      Singlet-A      7.2891 eV  170.09 nm  f=0.0010  <S**2>=0.000
      10 -> 14         0.41110
      10 -> 15         0.24694
      11 -> 14        -0.27320
      12 -> 18        -0.20705
      12 -> 22        -0.11928
      13 -> 17        -0.15369
      13 -> 21         0.12185
      13 -> 23        -0.11930
      13 -> 24        -0.18301

 Excited State  14:      Singlet-A      7.5058 eV  165.19 nm  f=0.0144  <S**2>=0.000
      12 -> 17         0.11958
      12 -> 18        -0.12121
      12 -> 19         0.18595
      12 -> 20         0.14957
      12 -> 21        -0.17934
      12 -> 23        -0.15137
      13 -> 17         0.17933
      13 -> 20        -0.24698
      13 -> 21         0.26857
      13 -> 22        -0.18882
      13 -> 23         0.32706

 Excited State  15:      Singlet-A      7.5265 eV  164.73 nm  f=0.0005  <S**2>=0.000
      10 -> 14         0.17598
      12 -> 17         0.34550
      12 -> 20         0.11406
      12 -> 22         0.10827
      13 -> 17         0.18784
      13 -> 20         0.41768
      13 -> 22         0.16306
      13 -> 24         0.14171

 The electronic state is 1-A.
 Alpha  occ. eigenvalues --   -1.53230  -1.23662  -1.08218  -0.82364  -0.80052
 Alpha  occ. eigenvalues --   -0.67469  -0.58417  -0.56010  -0.50978  -0.50489
 Alpha  occ. eigenvalues --   -0.48997  -0.40301  -0.33731
 Alpha virt. eigenvalues --    0.02345   0.06803   0.08990   0.13733   0.14485
 Alpha virt. eigenvalues --    0.15275   0.17248   0.18185   0.19057   0.20871
 Alpha virt. eigenvalues --    0.21727

 Mulliken charges:
               1
     1  C   -0.153222
     2  C   -0.124615
     3  O   -0.118119
     4  C   -0.065199
     5  C   -0.233661
     6  H    0.156451
     7  H    0.185057
     8  H    0.190808
     9  H    0.162499
 Sum of Mulliken charges =   0.00000

 Dipole moment (field-independent basis, Debye):
    X=             -0.3161    Y=              0.4721    Z=              0.0461  Tot=              0.5700
 N-N= 1.027877311969D+02 E-N=-1.700014848036D+02  KE=-1.645784909673D+01
 Orbital energies and kinetic energies (alpha):
                                 1                 2
   1         O                -1.532297         -1.294297
   2         O                -1.236624         -1.048464
   3         O                -1.082184         -0.950148
   4         O                -0.823642         -0.731711
   5         O                -0.800523         -0.692905
   6         O                -0.674693         -0.598370
   7         O                -0.584174         -0.477639

 Normal termination of Gaussian 09 at Tue Dec 15 16:24:49 2015.
