 Gaussian 09, Revision D.01,
 Gaussian 09:  ES64L-G09RevD.01 24-Apr-2013

 ------------------------------------------------------------
 #P AM1(Input,print) CIS(Singlets,NStates=15) pop(full) force
 ------------------------------------------------------------

 -----------------
 AM1-Reparam Input
 -----------------
 Symbolic Z-matrix:
 Charge =  0 Multiplicity = 1

                         Standard orientation:
 ---------------------------------------------------------------------
 Center     Atomic      Atomic             Coordinates (Angstroms)
 Number     Number       Type             X           Y           Z
 ---------------------------------------------------------------------
      1          6           0        0.906798    0.776835   -0.013504
      2          6           0        1.034385   -0.574751    0.020855
      3          8           0       -0.305036   -1.109669   -0.002194
      4          6           0       -1.147473   -0.105361   -0.002074
      5          6           0       -0.458687    1.060529   -0.015200
      6          1           0       -0.909003    2.133576    0.071905
      7          1           0       -2.221451   -0.316488    0.014679
      8          1           0        1.834847   -1.276483   -0.028184
      9          1           0        1.725766    1.393239    0.018693
 ---------------------------------------------------------------------

 SCF Done:  E(RAM1) =  -4.47031780117     A.U. after   14 cycles

 Excitation energies and oscillator strengths:

 Excited State   1:      Singlet-A      6.8671 eV  180.55 nm  f=0.0004  <S**2>=0.000
      13 -> 14         0.53657
      13 -> 15         0.23152
      13 -> 16        -0.28070
      13 -> 17         0.16964
      13 -> 18         0.11468
      13 -> 20         0.11078
 This state for optimization and/or second-order correction.
 Total Energy, E(CIS) =  -4.21795659494
 Copying the excited state density for this state as the 1-particle RhoCI density.

 Excited State   2:      Singlet-A      6.9129 eV  179.35 nm  f=0.0158  <S**2>=0.000
      13 -> 14         0.30180
      13 -> 15        -0.26976
      13 -> 16         0.47168
      13 -> 17         0.30460

 Excited State   3:      Singlet-A      7.3765 eV  168.08 nm  f=0.1102  <S**2>=0.000
      11 -> 17         0.10549
      13 -> 14        -0.26704
      13 -> 15         0.43021
      13 -> 16         0.14542
      13 -> 17         0.43219
      13 -> 18         0.10346

 Excited State   4:      Singlet-A      7.5528 eV  164.16 nm  f=0.1977  <S**2>=0.000
      11 -> 17        -0.14925
      13 -> 14        -0.17512
      13 -> 15        -0.37166
      13 -> 16        -0.33609
      13 -> 17         0.40520

 Excited State   5:      Singlet-A      8.3572 eV  148.36 nm  f=0.0001  <S**2>=0.000
      10 -> 14         0.10772
      12 -> 15         0.25426
      12 -> 16         0.18023
      13 -> 16         0.12934
      13 -> 17        -0.12948
      13 -> 18         0.57068

 Excited State   6:      Singlet-A      8.5098 eV  145.70 nm  f=0.0216  <S**2>=0.000
      12 -> 15         0.58918
      12 -> 16         0.17376
      13 -> 18        -0.29138

 Excited State   7:      Singlet-A      8.7680 eV  141.41 nm  f=0.0360  <S**2>=0.000
      11 -> 17        -0.12279
      12 -> 15        -0.17429
      12 -> 16         0.57700
      12 -> 17         0.13380
      12 -> 18        -0.19672
      12 -> 22         0.11642

 Excited State   8:      Singlet-A      9.0662 eV  136.75 nm  f=0.0041  <S**2>=0.000
      11 -> 15         0.56849
      11 -> 16         0.31162
      13 -> 19         0.22476

 Excited State   9:      Singlet-A      9.2980 eV  133.34 nm  f=0.0267  <S**2>=0.000
      11 -> 15        -0.23777
      12 -> 14        -0.19402
      12 -> 17        -0.15089
      13 -> 16         0.10458
      13 -> 19         0.50843
      13 -> 20         0.24972
      13 -> 22        -0.12796

 Excited State  10:      Singlet-A      9.4114 eV  131.74 nm  f=0.0511  <S**2>=0.000
      11 -> 16        -0.17082
      11 -> 18         0.11012
      12 -> 14         0.45891
      12 -> 17         0.34766
      12 -> 19         0.15687
      13 -> 19         0.22672
      13 -> 20         0.12279

 Excited State  11:      Singlet-A      9.5673 eV  129.59 nm  f=0.0427  <S**2>=0.000
      11 -> 14        -0.13944
      11 -> 15        -0.23221
      11 -> 16         0.47358
      11 -> 17        -0.12065
      11 -> 18        -0.24747
      11 -> 19        -0.16185
      12 -> 14         0.14659
      12 -> 17         0.12149
      12 -> 18         0.10311

 Excited State  12:      Singlet-A      9.6945 eV  127.89 nm  f=0.0173  <S**2>=0.000
      13 -> 19        -0.29983
      13 -> 20         0.60911

 Excited State  13:      Singlet-A      9.8713 eV  125.60 nm  f=0.2225  <S**2>=0.000
       9 -> 14        -0.11634
      11 -> 20        -0.10497
      12 -> 14        -0.40207
      12 -> 17         0.47424
      12 -> 18         0.14742

 Excited State  14:      Singlet-A     10.0398 eV  123.49 nm  f=0.1904  <S**2>=0.000
       9 -> 17         0.12075
      11 -> 14         0.18911
      11 -> 15        -0.12065
      11 -> 16         0.20179
      11 -> 17         0.51733
      11 -> 18         0.16516
      13 -> 15        -0.11800

 Excited State  15:      Singlet-A     10.3823 eV  119.42 nm  f=0.1289  <S**2>=0.000
      10 -> 15         0.17542
      10 -> 16         0.12269
      11 -> 14         0.32613
      11 -> 17        -0.17472
      11 -> 19         0.16428
      12 -> 18         0.19660
      13 -> 21         0.44072

 The electronic state is 1-A.
 Alpha  occ. eigenvalues --   -3.14616  -1.38779  -1.04963  -1.04435  -1.03400
 Alpha  occ. eigenvalues --   -0.92233  -0.81603  -0.62809  -0.62202  -0.56545
 Alpha  occ. eigenvalues --   -0.50191  -0.48180  -0.38945
 Alpha virt. eigenvalues --    0.08539   0.10469   0.10983   0.13047   0.15984
 Alpha virt. eigenvalues --    0.19062   0.23189   0.24142   0.25681   0.30937
 Alpha virt. eigenvalues --    0.39292

 Mulliken charges:
               1
     1  C   -0.287758
     2  C   -1.847396
     3  O    3.029184
     4  C   -1.854858
     5  C   -0.376537
     6  H    0.296915
     7  H    0.382254
     8  H    0.363117
     9  H    0.295079
 Sum of Mulliken charges =   0.00000

 Dipole moment (field-independent basis, Debye):
    X=             -3.3854    Y=             -9.8758    Z=             -0.0735  Tot=             10.4402
 N-N= 1.046527718934D+02 E-N=-1.693878205104D+02  KE=-2.368037898226D+01
 Orbital energies and kinetic energies (alpha):
                                 1                 2
   1         O                -3.146158         -2.400471
   2         O                -1.387788         -1.335722
   3         O                -1.049629         -1.064088
   4         O                -1.044345         -1.051255
   5         O                -1.034002         -1.026766
   6         O                -0.922331         -0.853370
   7         O                -0.816028         -0.790486

 Normal termination of Gaussian 09 at Fri Dec 11 13:41:21 2015.
