 Gaussian 09, Revision D.01,
 Gaussian 09:  ES64L-G09RevD.01 24-Apr-2013

 ------------------------------------------------------------
 #P AM1(Input,print) CIS(Singlets,NStates=15) pop(full) force
 ------------------------------------------------------------

 -----------------
 AM1-Reparam Input
 -----------------
 Symbolic Z-matrix:
 Charge =  0 Multiplicity = 1

                         Standard orientation:
 ---------------------------------------------------------------------
 Center     Atomic      Atomic             Coordinates (Angstroms)
 Number     Number       Type             X           Y           Z
 ---------------------------------------------------------------------
      1          6           0        0.784739    0.890012    0.024979
      2          6           0        1.094651   -0.427110   -0.003319
      3          8           0       -0.098608   -1.146301   -0.008261
      4          6           0       -1.154740   -0.277523    0.017410
      5          6           0       -0.611548    1.025134   -0.026362
      6          1           0       -1.258019    1.925486   -0.014861
      7          1           0       -2.069470   -0.704131    0.026416
      8          1           0        1.965159   -1.006822   -0.021285
      9          1           0        1.472580    1.692791   -0.000433
 ---------------------------------------------------------------------

 SCF Done:  E(RAM1) =   2.10213620896     A.U. after   13 cycles

 Excitation energies and oscillator strengths:

 Excited State   1:      Singlet-A      5.6542 eV  219.28 nm  f=0.3407  <S**2>=0.000
      13 -> 14         0.69322
 This state for optimization and/or second-order correction.
 Total Energy, E(CIS) =   2.30992309921
 Copying the excited state density for this state as the 1-particle RhoCI density.

 Excited State   2:      Singlet-A      6.8733 eV  180.39 nm  f=0.0046  <S**2>=0.000
      10 -> 16        -0.11122
      13 -> 15         0.65234
      13 -> 16         0.14087
      13 -> 17        -0.17885

 Excited State   3:      Singlet-A      7.1439 eV  173.55 nm  f=0.0001  <S**2>=0.000
      10 -> 15        -0.14034
      13 -> 15        -0.14507
      13 -> 16         0.64385
      13 -> 19        -0.15807

 Excited State   4:      Singlet-A      7.4339 eV  166.78 nm  f=0.0005  <S**2>=0.000
      12 -> 14         0.69451

 Excited State   5:      Singlet-A      7.9953 eV  155.07 nm  f=0.0064  <S**2>=0.000
      10 -> 14        -0.10605
      11 -> 14         0.68745

 Excited State   6:      Singlet-A      8.4133 eV  147.37 nm  f=0.0003  <S**2>=0.000
      13 -> 18         0.54881
      13 -> 20        -0.17904
      13 -> 22         0.37167

 Excited State   7:      Singlet-A      8.6819 eV  142.81 nm  f=0.0081  <S**2>=0.000
      10 -> 16        -0.15589
      13 -> 15         0.13321
      13 -> 17         0.65904

 Excited State   8:      Singlet-A      9.0266 eV  137.35 nm  f=0.0827  <S**2>=0.000
      10 -> 14         0.66554
      13 -> 21         0.13897

 Excited State   9:      Singlet-A      9.4199 eV  131.62 nm  f=0.0015  <S**2>=0.000
      10 -> 15        -0.13166
      13 -> 18        -0.25588
      13 -> 19         0.55382
      13 -> 20        -0.22967
      13 -> 22         0.18566

 Excited State  10:      Singlet-A      9.7245 eV  127.50 nm  f=0.0108  <S**2>=0.000
      13 -> 18        -0.33361
      13 -> 19        -0.36693
      13 -> 20        -0.25761
      13 -> 22         0.40175

 Excited State  11:      Singlet-A      9.9421 eV  124.71 nm  f=0.0560  <S**2>=0.000
       8 -> 15        -0.10979
       9 -> 16        -0.11572
      11 -> 15         0.32235
      11 -> 17        -0.29740
      12 -> 16        -0.24605
      12 -> 18         0.31270
      12 -> 22         0.10841
      13 -> 20         0.13172
      13 -> 22         0.14044

 Excited State  12:      Singlet-A     10.1002 eV  122.75 nm  f=0.0896  <S**2>=0.000
      10 -> 16        -0.14391
      11 -> 15        -0.12498
      13 -> 20         0.53756
      13 -> 22         0.34848

 Excited State  13:      Singlet-A     10.3102 eV  120.25 nm  f=0.0642  <S**2>=0.000
      10 -> 14        -0.12033
      10 -> 15         0.10570
      11 -> 16         0.17494
      12 -> 15         0.56949
      12 -> 17        -0.11370
      13 -> 21         0.23557

 Excited State  14:      Singlet-A     10.3761 eV  119.49 nm  f=0.2137  <S**2>=0.000
       8 -> 15         0.10423
      11 -> 15         0.30889
      11 -> 16         0.18549
      12 -> 16         0.53619
      12 -> 19        -0.11699

 Excited State  15:      Singlet-A     10.4145 eV  119.05 nm  f=0.0540  <S**2>=0.000
      10 -> 14        -0.10786
      11 -> 16        -0.17650
      12 -> 15        -0.17917
      13 -> 21         0.61706

 The electronic state is 1-A.
 Alpha  occ. eigenvalues --   -1.93487  -1.18904  -0.93610  -0.81022  -0.79624
 Alpha  occ. eigenvalues --   -0.69490  -0.65600  -0.56640  -0.54925  -0.44786
 Alpha  occ. eigenvalues --   -0.44432  -0.42783  -0.30361
 Alpha virt. eigenvalues --    0.11361   0.18723   0.19386   0.25142   0.27120
 Alpha virt. eigenvalues --    0.29451   0.30189   0.30722   0.31616   0.38702
 Alpha virt. eigenvalues --    0.43427

 Mulliken charges:
               1
     1  C   -0.113206
     2  C   -1.883095
     3  O    3.226974
     4  C   -1.904842
     5  C   -0.167466
     6  H    0.167563
     7  H    0.255038
     8  H    0.258728
     9  H    0.160306
 Sum of Mulliken charges =   0.00000

 Dipole moment (field-independent basis, Debye):
    X=             -0.7040    Y=            -10.4887    Z=             -0.2224  Tot=             10.5147
 N-N= 1.039071304380D+02 E-N=-1.687657450781D+02  KE=-1.533101159038D+01
 Orbital energies and kinetic energies (alpha):
                                 1                 2
   1         O                -1.934865         -1.348242
   2         O                -1.189038         -1.042781
   3         O                -0.936099         -0.874988
   4         O                -0.810216         -0.584522
   5         O                -0.796242         -0.694601
   6         O                -0.694900         -0.597212
   7         O                -0.655999         -0.523974

 Normal termination of Gaussian 09 at Tue Dec 15 17:09:20 2015.
