 Gaussian 09, Revision D.01,
 Gaussian 09:  ES64L-G09RevD.01 24-Apr-2013

 ------------------------------------------------------------
 #P AM1(Input,print) CIS(Singlets,NStates=15) pop(full) force
 ------------------------------------------------------------

 -----------------
 AM1-Reparam Input
 -----------------
 Symbolic Z-matrix:
 Charge =  0 Multiplicity = 1

                         Standard orientation:
 ---------------------------------------------------------------------
 Center     Atomic      Atomic             Coordinates (Angstroms)
 Number     Number       Type             X           Y           Z
 ---------------------------------------------------------------------
      1          6           0       -0.539353    1.061019   -0.012649
      2          6           0       -1.170045   -0.182549    0.028961
      3          8           0       -0.201308   -1.090727   -0.017120
      4          6           0        1.014732   -0.522020   -0.001889
      5          6           0        0.911592    0.780923   -0.009582
      6          1           0        1.622497    1.557458    0.076031
      7          1           0        1.845513   -1.197540    0.044122
      8          1           0       -2.155868   -0.461706    0.015911
      9          1           0       -1.003236    2.003364   -0.028147
 ---------------------------------------------------------------------

 SCF Done:  E(RAM1) =  -5.69644169096     A.U. after   13 cycles

 Excitation energies and oscillator strengths:

 Excited State   1:      Singlet-A      6.4599 eV  191.93 nm  f=0.3139  <S**2>=0.000
      13 -> 14         0.66312
      13 -> 15        -0.19903
 This state for optimization and/or second-order correction.
 Total Energy, E(CIS) =  -5.45904426364
 Copying the excited state density for this state as the 1-particle RhoCI density.

 Excited State   2:      Singlet-A      6.7268 eV  184.31 nm  f=0.0484  <S**2>=0.000
      13 -> 14         0.19447
      13 -> 15         0.67133

 Excited State   3:      Singlet-A      8.0140 eV  154.71 nm  f=0.0004  <S**2>=0.000
      11 -> 14         0.11531
      13 -> 16         0.19771
      13 -> 17         0.63538
      13 -> 18         0.15422

 Excited State   4:      Singlet-A      8.3885 eV  147.80 nm  f=0.0011  <S**2>=0.000
      11 -> 14         0.67586
      12 -> 14         0.13640
      13 -> 17        -0.12988

 Excited State   5:      Singlet-A      8.5552 eV  144.92 nm  f=0.0007  <S**2>=0.000
      11 -> 14        -0.11054
      12 -> 14         0.41605
      13 -> 16         0.52147
      13 -> 17        -0.16709

 Excited State   6:      Singlet-A      9.2693 eV  133.76 nm  f=0.0084  <S**2>=0.000
      10 -> 14         0.69167

 Excited State   7:      Singlet-A      9.3821 eV  132.15 nm  f=0.0266  <S**2>=0.000
      12 -> 14        -0.14100
      12 -> 15         0.60507
      13 -> 16         0.11595
      13 -> 18         0.26426
      13 -> 19         0.10435

 Excited State   8:      Singlet-A      9.5991 eV  129.16 nm  f=0.3627  <S**2>=0.000
      11 -> 15        -0.10546
      12 -> 14         0.46094
      13 -> 16        -0.34929
      13 -> 18         0.33542

 Excited State   9:      Singlet-A      9.7537 eV  127.11 nm  f=0.1173  <S**2>=0.000
      12 -> 14        -0.23205
      12 -> 15        -0.33709
      13 -> 16         0.14804
      13 -> 17        -0.15682
      13 -> 18         0.47715
      13 -> 19         0.11050
      13 -> 20         0.13498

 Excited State  10:      Singlet-A     10.2752 eV  120.66 nm  f=0.0194  <S**2>=0.000
      13 -> 19        -0.29313
      13 -> 20         0.61601

 Excited State  11:      Singlet-A     10.7855 eV  114.95 nm  f=0.0967  <S**2>=0.000
      10 -> 17         0.14435
      11 -> 15         0.59397
      12 -> 17        -0.15127
      13 -> 16        -0.12112
      13 -> 19        -0.21385

 Excited State  12:      Singlet-A     10.8350 eV  114.43 nm  f=0.0288  <S**2>=0.000
      11 -> 15         0.27490
      12 -> 17         0.30663
      13 -> 18        -0.16248
      13 -> 19         0.47679
      13 -> 20         0.19143

 Excited State  13:      Singlet-A     11.3176 eV  109.55 nm  f=0.0122  <S**2>=0.000
      12 -> 16        -0.31901
      12 -> 17        -0.19803
      12 -> 20         0.10123
      13 -> 20         0.11641
      13 -> 21         0.51624

 Excited State  14:      Singlet-A     11.3472 eV  109.26 nm  f=0.0343  <S**2>=0.000
      10 -> 15        -0.28444
      11 -> 17        -0.15115
      12 -> 16         0.49631
      12 -> 17        -0.21815
      13 -> 21         0.26145

 Excited State  15:      Singlet-A     11.5461 eV  107.38 nm  f=0.0835  <S**2>=0.000
       9 -> 14        -0.11688
      10 -> 15         0.22723
      11 -> 16         0.24109
      11 -> 17         0.19278
      12 -> 16         0.22183
      12 -> 17         0.34019
      13 -> 19        -0.23356
      13 -> 21         0.24991

 The electronic state is 1-A.
 Alpha  occ. eigenvalues --   -4.06929  -1.45667  -1.09331  -1.05874  -1.03855
 Alpha  occ. eigenvalues --   -0.97768  -0.92710  -0.77412  -0.76169  -0.69184
 Alpha  occ. eigenvalues --   -0.66449  -0.63632  -0.52549
 Alpha virt. eigenvalues --   -0.10276  -0.03811   0.00957   0.01565   0.08021
 Alpha virt. eigenvalues --    0.09039   0.09879   0.11364   0.15003   0.15664
 Alpha virt. eigenvalues --    0.19022

 Mulliken charges:
               1
     1  C   -0.450238
     2  C   -1.118645
     3  O    2.394793
     4  C   -1.099821
     5  C   -0.406675
     6  H    0.203866
     7  H    0.145976
     8  H    0.133781
     9  H    0.196962
 Sum of Mulliken charges =   0.00000

 Dipole moment (field-independent basis, Debye):
    X=             -1.1837    Y=             -8.7432    Z=             -0.1558  Tot=              8.8244
 N-N= 1.030564885248D+02 E-N=-1.641970001103D+02  KE=-2.395826744570D+01
 Orbital energies and kinetic energies (alpha):
                                 1                 2
   1         O                -4.069288         -3.256304
   2         O                -1.456667         -1.221401
   3         O                -1.093310         -1.004574
   4         O                -1.058738         -0.908818
   5         O                -1.038550         -0.815726
   6         O                -0.977682         -0.805614
   7         O                -0.927099         -0.769730

 Normal termination of Gaussian 09 at Fri Dec 11 13:41:31 2015.
