 Gaussian 09, Revision D.01,
 Gaussian 09:  ES64L-G09RevD.01 24-Apr-2013

 ------------------------------------------------------------
 #P AM1(Input,print) CIS(Singlets,NStates=15) pop(full) force
 ------------------------------------------------------------

 -----------------
 AM1-Reparam Input
 -----------------
 Symbolic Z-matrix:
 Charge =  0 Multiplicity = 1

                         Standard orientation:
 ---------------------------------------------------------------------
 Center     Atomic      Atomic             Coordinates (Angstroms)
 Number     Number       Type             X           Y           Z
 ---------------------------------------------------------------------
      1          6           0        0.804052    0.840071    0.001280
      2          6           0        1.027364   -0.520018   -0.011118
      3          8           0       -0.188200   -1.107461    0.028342
      4          6           0       -1.102251   -0.202701   -0.025629
      5          6           0       -0.527351    1.054121   -0.014606
      6          1           0       -1.063821    1.971322    0.073959
      7          1           0       -2.176746   -0.569906    0.004219
      8          1           0        1.924076   -1.135306   -0.049914
      9          1           0        1.611208    1.564739    0.045441
 ---------------------------------------------------------------------

 SCF Done:  E(RAM1) =   1.82894495466     A.U. after   14 cycles

 Excitation energies and oscillator strengths:

 Excited State   1:      Singlet-A      6.0335 eV  205.49 nm  f=0.2798  <S**2>=0.000
      11 -> 17         0.12951
      13 -> 14         0.67785
 This state for optimization and/or second-order correction.
 Total Energy, E(CIS) =   2.05067087403
 Copying the excited state density for this state as the 1-particle RhoCI density.

 Excited State   2:      Singlet-A      6.6676 eV  185.95 nm  f=0.0027  <S**2>=0.000
      10 -> 15         0.14617
      13 -> 15         0.65134
      13 -> 16         0.10359
      13 -> 17        -0.17426

 Excited State   3:      Singlet-A      7.0821 eV  175.07 nm  f=0.0021  <S**2>=0.000
      12 -> 14         0.69304

 Excited State   4:      Singlet-A      7.2114 eV  171.93 nm  f=0.0037  <S**2>=0.000
      10 -> 16        -0.14031
      13 -> 15        -0.11046
      13 -> 16         0.64022
      13 -> 17        -0.11631
      13 -> 19         0.11916

 Excited State   5:      Singlet-A      7.6412 eV  162.26 nm  f=0.0045  <S**2>=0.000
      11 -> 14         0.68770

 Excited State   6:      Singlet-A      8.4227 eV  147.20 nm  f=0.0143  <S**2>=0.000
      10 -> 15         0.14792
      13 -> 15         0.13000
      13 -> 17         0.62405
      13 -> 18        -0.16775
      13 -> 21         0.10642

 Excited State   7:      Singlet-A      8.7086 eV  142.37 nm  f=0.0023  <S**2>=0.000
      10 -> 16        -0.14066
      13 -> 17         0.17559
      13 -> 18         0.59636
      13 -> 21        -0.27542

 Excited State   8:      Singlet-A      8.9535 eV  138.48 nm  f=0.0555  <S**2>=0.000
      10 -> 14         0.45317
      11 -> 15        -0.23142
      11 -> 16        -0.20734
      11 -> 17         0.20542
      12 -> 15         0.11412
      12 -> 17        -0.15153
      12 -> 18         0.18766
      13 -> 14        -0.11932

 Excited State   9:      Singlet-A      9.0447 eV  137.08 nm  f=0.0240  <S**2>=0.000
       8 -> 15        -0.14161
      10 -> 14         0.43212
      11 -> 16         0.17044
      11 -> 17        -0.14630
      11 -> 18        -0.12966
      12 -> 15        -0.38659
      12 -> 18        -0.13408

 Excited State  10:      Singlet-A      9.2781 eV  133.63 nm  f=0.0750  <S**2>=0.000
       9 -> 15        -0.12448
      10 -> 14         0.19057
      10 -> 15         0.11667
      11 -> 15         0.44692
      11 -> 17        -0.11541
      12 -> 15         0.31694
      12 -> 17        -0.11227
      13 -> 19         0.27210

 Excited State  11:      Singlet-A      9.3242 eV  132.97 nm  f=0.0145  <S**2>=0.000
      10 -> 14        -0.10042
      10 -> 16         0.10776
      11 -> 15        -0.19964
      12 -> 15        -0.16122
      13 -> 19         0.60045

 Excited State  12:      Singlet-A      9.5763 eV  129.47 nm  f=0.1105  <S**2>=0.000
       9 -> 16        -0.11376
      10 -> 15        -0.20392
      11 -> 16        -0.24238
      11 -> 19        -0.12089
      12 -> 16         0.51759
      12 -> 17        -0.18447
      12 -> 19         0.12893

 Excited State  13:      Singlet-A      9.6234 eV  128.84 nm  f=0.0342  <S**2>=0.000
      10 -> 15         0.55743
      10 -> 17        -0.10291
      11 -> 16        -0.10978
      12 -> 15        -0.18405
      12 -> 16         0.15030
      13 -> 15        -0.17626
      13 -> 18         0.10061

 Excited State  14:      Singlet-A      9.8432 eV  125.96 nm  f=0.0688  <S**2>=0.000
       8 -> 15         0.11804
       9 -> 15         0.15198
      10 -> 14         0.18181
      10 -> 15         0.12209
      11 -> 15        -0.18422
      11 -> 16         0.11381
      11 -> 19         0.19847
      12 -> 15         0.25236
      12 -> 16         0.29339
      12 -> 17         0.15999
      12 -> 18        -0.25810
      12 -> 20         0.13577

 Excited State  15:      Singlet-A     10.1281 eV  122.42 nm  f=0.0199  <S**2>=0.000
      10 -> 15        -0.11157
      10 -> 16         0.23188
      13 -> 18         0.26490
      13 -> 20         0.23897
      13 -> 21         0.51625

 The electronic state is 1-A.
 Alpha  occ. eigenvalues --   -1.96388  -1.23745  -0.98050  -0.81854  -0.80128
 Alpha  occ. eigenvalues --   -0.70731  -0.66458  -0.53072  -0.49536  -0.42322
 Alpha  occ. eigenvalues --   -0.40838  -0.39245  -0.30190
 Alpha virt. eigenvalues --    0.14107   0.16865   0.20037   0.25148   0.27741
 Alpha virt. eigenvalues --    0.29550   0.31698   0.34982   0.39298   0.47508
 Alpha virt. eigenvalues --    0.52978

 Mulliken charges:
               1
     1  C   -0.045954
     2  C   -1.967140
     3  O    3.145748
     4  C   -1.972258
     5  C   -0.109732
     6  H    0.159975
     7  H    0.321149
     8  H    0.315023
     9  H    0.153188
 Sum of Mulliken charges =   0.00000

 Dipole moment (field-independent basis, Debye):
    X=             -1.9240    Y=             -9.2145    Z=              0.6911  Tot=              9.4385
 N-N= 1.049492499328D+02 E-N=-1.710552207672D+02  KE=-1.573423139557D+01
 Orbital energies and kinetic energies (alpha):
                                 1                 2
   1         O                -1.963881         -1.460098
   2         O                -1.237452         -1.095954
   3         O                -0.980505         -0.900100
   4         O                -0.818538         -0.619923
   5         O                -0.801278         -0.686548
   6         O                -0.707307         -0.586381
   7         O                -0.664583         -0.590103

 Normal termination of Gaussian 09 at Tue Dec 15 17:09:55 2015.
