 Gaussian 09, Revision D.01,
 Gaussian 09:  ES64L-G09RevD.01 24-Apr-2013

 ------------------------------------------------------------
 #P AM1(Input,print) CIS(Singlets,NStates=15) pop(full) force
 ------------------------------------------------------------

 -----------------
 AM1-Reparam Input
 -----------------
 Symbolic Z-matrix:
 Charge =  0 Multiplicity = 1

                         Standard orientation:
 ---------------------------------------------------------------------
 Center     Atomic      Atomic             Coordinates (Angstroms)
 Number     Number       Type             X           Y           Z
 ---------------------------------------------------------------------
      1          6           0        0.233851    1.154702    0.003250
      2          6           0        1.135344    0.102583   -0.003083
      3          8           0        0.513178   -1.038706   -0.012188
      4          6           0       -0.894355   -0.752286    0.020260
      5          6           0       -1.039467    0.578183   -0.021205
      6          1           0       -1.994764    1.099424   -0.005095
      7          1           0       -1.506241   -1.562490    0.034581
      8          1           0        2.247521    0.079366    0.026829
      9          1           0        0.535823    2.194256    0.045854
 ---------------------------------------------------------------------

 SCF Done:  E(RAM1) =   2.83163022650     A.U. after   14 cycles

 Excitation energies and oscillator strengths:

 Excited State   1:      Singlet-A      5.4080 eV  229.26 nm  f=0.3225  <S**2>=0.000
      13 -> 14         0.69351
 This state for optimization and/or second-order correction.
 Total Energy, E(CIS) =   3.03036890255
 Copying the excited state density for this state as the 1-particle RhoCI density.

 Excited State   2:      Singlet-A      6.2340 eV  198.88 nm  f=0.0035  <S**2>=0.000
      10 -> 15         0.11330
      13 -> 15         0.64765
      13 -> 17         0.22256

 Excited State   3:      Singlet-A      6.9378 eV  178.71 nm  f=0.0011  <S**2>=0.000
       9 -> 14        -0.12662
      12 -> 14         0.68586

 Excited State   4:      Singlet-A      7.0977 eV  174.68 nm  f=0.0051  <S**2>=0.000
      10 -> 16        -0.10495
      13 -> 16         0.63754
      13 -> 18        -0.19761

 Excited State   5:      Singlet-A      7.6995 eV  161.03 nm  f=0.0113  <S**2>=0.000
      10 -> 14        -0.15238
      11 -> 14         0.57955
      13 -> 15        -0.11786
      13 -> 17         0.30205
      13 -> 21        -0.10189

 Excited State   6:      Singlet-A      7.8214 eV  158.52 nm  f=0.0051  <S**2>=0.000
      11 -> 14        -0.34832
      13 -> 15        -0.17759
      13 -> 17         0.52226
      13 -> 18         0.15667
      13 -> 21        -0.13382

 Excited State   7:      Singlet-A      8.0937 eV  153.19 nm  f=0.0031  <S**2>=0.000
      10 -> 16         0.11926
      13 -> 16        -0.14655
      13 -> 17         0.22679
      13 -> 18        -0.35232
      13 -> 19         0.26174
      13 -> 20        -0.10649
      13 -> 21         0.44675

 Excited State   8:      Singlet-A      8.6976 eV  142.55 nm  f=0.0808  <S**2>=0.000
      10 -> 14         0.64408
      11 -> 14         0.16920

 Excited State   9:      Singlet-A      8.7885 eV  141.08 nm  f=0.0002  <S**2>=0.000
      10 -> 16        -0.10059
      13 -> 16         0.13742
      13 -> 17        -0.11319
      13 -> 18         0.33421
      13 -> 19         0.56543

 Excited State  10:      Singlet-A      9.1228 eV  135.91 nm  f=0.0050  <S**2>=0.000
      13 -> 18         0.41881
      13 -> 19        -0.26658
      13 -> 20        -0.30556
      13 -> 21         0.38125

 Excited State  11:      Singlet-A      9.3215 eV  133.01 nm  f=0.0274  <S**2>=0.000
       8 -> 15         0.11266
      11 -> 15        -0.21965
      12 -> 15         0.58570
      12 -> 17         0.18108
      12 -> 18         0.12675

 Excited State  12:      Singlet-A      9.4714 eV  130.90 nm  f=0.0573  <S**2>=0.000
       9 -> 15        -0.20286
      10 -> 14         0.15766
      11 -> 15         0.36794
      11 -> 16         0.19635
      11 -> 17         0.30603
      12 -> 16        -0.13900
      12 -> 18         0.17561
      12 -> 19        -0.15557
      12 -> 21        -0.12253

 Excited State  13:      Singlet-A      9.5485 eV  129.85 nm  f=0.0816  <S**2>=0.000
      10 -> 15         0.27779
      13 -> 19        -0.14285
      13 -> 20         0.54345
      13 -> 21         0.26040

 Excited State  14:      Singlet-A      9.6646 eV  128.29 nm  f=0.0162  <S**2>=0.000
       7 -> 15        -0.13614
      10 -> 15         0.57452
      13 -> 15        -0.14060
      13 -> 20        -0.22470
      13 -> 21        -0.18689

 Excited State  15:      Singlet-A     10.0667 eV  123.16 nm  f=0.0033  <S**2>=0.000
       9 -> 14         0.67957
      12 -> 14         0.12288

 The electronic state is 1-A.
 Alpha  occ. eigenvalues --   -1.71982  -1.12337  -0.92188  -0.79071  -0.75348
 Alpha  occ. eigenvalues --   -0.66422  -0.63744  -0.54144  -0.49683  -0.43049
 Alpha  occ. eigenvalues --   -0.42832  -0.40141  -0.28768
 Alpha virt. eigenvalues --    0.12085   0.16475   0.21648   0.24180   0.27701
 Alpha virt. eigenvalues --    0.28236   0.30113   0.30966   0.37048   0.45852
 Alpha virt. eigenvalues --    0.49971

 Mulliken charges:
               1
     1  C   -0.214061
     2  C   -1.982529
     3  O    3.214904
     4  C   -1.931260
     5  C   -0.046354
     6  H    0.172724
     7  H    0.282966
     8  H    0.318286
     9  H    0.185325
 Sum of Mulliken charges =   0.00000

 Dipole moment (field-independent basis, Debye):
    X=              5.0715    Y=             -9.1249    Z=             -0.1665  Tot=             10.4409
 N-N= 1.040184430717D+02 E-N=-1.691922522050D+02  KE=-1.478720146530D+01
 Orbital energies and kinetic energies (alpha):
                                 1                 2
   1         O                -1.719816         -1.211040
   2         O                -1.123372         -0.991749
   3         O                -0.921878         -0.847920
   4         O                -0.790706         -0.596255
   5         O                -0.753481         -0.679842
   6         O                -0.664221         -0.566129
   7         O                -0.637440         -0.521138

 Normal termination of Gaussian 09 at Tue Dec 15 17:05:53 2015.
