 Gaussian 09, Revision D.01,
 Gaussian 09:  ES64L-G09RevD.01 24-Apr-2013

 ------------------------------------------------------------
 #P AM1(Input,print) CIS(Singlets,NStates=15) pop(full) force
 ------------------------------------------------------------

 -----------------
 AM1-Reparam Input
 -----------------
 Symbolic Z-matrix:
 Charge =  0 Multiplicity = 1

                         Standard orientation:
 ---------------------------------------------------------------------
 Center     Atomic      Atomic             Coordinates (Angstroms)
 Number     Number       Type             X           Y           Z
 ---------------------------------------------------------------------
      1          6           0        0.962296    0.749562    0.007155
      2          6           0        0.974707   -0.643081   -0.023719
      3          8           0       -0.345927   -1.140192    0.028641
      4          6           0       -1.173187   -0.023624   -0.018379
      5          6           0       -0.399275    1.114596   -0.003523
      6          1           0       -0.804527    2.105082    0.016803
      7          1           0       -2.203463   -0.163177   -0.018833
      8          1           0        1.747143   -1.331401   -0.043330
      9          1           0        1.841019    1.326315    0.047029
 ---------------------------------------------------------------------

 SCF Done:  E(RAM1) =   2.03452957885     A.U. after   13 cycles

 Excitation energies and oscillator strengths:

 Excited State   1:      Singlet-A      5.4804 eV  226.23 nm  f=0.3335  <S**2>=0.000
      13 -> 14         0.69333
 This state for optimization and/or second-order correction.
 Total Energy, E(CIS) =   2.23593119243
 Copying the excited state density for this state as the 1-particle RhoCI density.

 Excited State   2:      Singlet-A      6.9635 eV  178.05 nm  f=0.0169  <S**2>=0.000
      12 -> 14         0.19424
      13 -> 15         0.63700
      13 -> 16         0.10226
      13 -> 17         0.18061

 Excited State   3:      Singlet-A      7.0179 eV  176.67 nm  f=0.0004  <S**2>=0.000
      12 -> 14         0.66399
      13 -> 15        -0.17012

 Excited State   4:      Singlet-A      7.2197 eV  171.73 nm  f=0.0002  <S**2>=0.000
      13 -> 15        -0.11767
      13 -> 16         0.61127
      13 -> 18        -0.28111

 Excited State   5:      Singlet-A      7.6968 eV  161.09 nm  f=0.0055  <S**2>=0.000
      10 -> 14         0.59331
      11 -> 14        -0.36908

 Excited State   6:      Singlet-A      8.2266 eV  150.71 nm  f=0.0001  <S**2>=0.000
      11 -> 15         0.10273
      13 -> 16        -0.18523
      13 -> 18        -0.27183
      13 -> 19         0.54512
      13 -> 20        -0.24680

 Excited State   7:      Singlet-A      8.6871 eV  142.72 nm  f=0.1188  <S**2>=0.000
      10 -> 14         0.36635
      11 -> 14         0.59134

 Excited State   8:      Singlet-A      9.0289 eV  137.32 nm  f=0.0182  <S**2>=0.000
      11 -> 16         0.16855
      13 -> 15        -0.14984
      13 -> 17         0.63899

 Excited State   9:      Singlet-A      9.3323 eV  132.85 nm  f=0.0006  <S**2>=0.000
      11 -> 15        -0.16413
      13 -> 16         0.16738
      13 -> 18         0.50634
      13 -> 19         0.39228

 Excited State  10:      Singlet-A      9.6375 eV  128.65 nm  f=0.0281  <S**2>=0.000
       8 -> 15         0.10397
       9 -> 16        -0.14858
       9 -> 18         0.10042
      10 -> 15         0.33598
      10 -> 17         0.18141
      11 -> 15        -0.19003
      11 -> 17        -0.10991
      12 -> 15        -0.19423
      12 -> 16        -0.24275
      12 -> 17        -0.13442
      12 -> 18         0.18363
      12 -> 19        -0.25391

 Excited State  11:      Singlet-A      9.8344 eV  126.07 nm  f=0.0025  <S**2>=0.000
      13 -> 18        -0.21528
      13 -> 19         0.18966
      13 -> 20         0.63624

 Excited State  12:      Singlet-A     10.1368 eV  122.31 nm  f=0.0716  <S**2>=0.000
      10 -> 16         0.12875
      11 -> 16        -0.10073
      12 -> 15         0.53003
      12 -> 16        -0.29329
      12 -> 17         0.16730
      12 -> 18         0.21364

 Excited State  13:      Singlet-A     10.1613 eV  122.02 nm  f=0.0736  <S**2>=0.000
      13 -> 21         0.68252

 Excited State  14:      Singlet-A     10.3126 eV  120.23 nm  f=0.0293  <S**2>=0.000
      10 -> 15         0.17168
      11 -> 15         0.56512
      11 -> 16         0.12092
      11 -> 17         0.12288
      12 -> 16        -0.16066
      13 -> 16         0.16567
      13 -> 18         0.13561

 Excited State  15:      Singlet-A     10.4638 eV  118.49 nm  f=0.1567  <S**2>=0.000
      10 -> 15         0.40111
      10 -> 16         0.26637
      10 -> 17         0.11749
      10 -> 18        -0.11343
      11 -> 16        -0.17079
      12 -> 15         0.13841
      12 -> 16         0.34756
      12 -> 18        -0.15260

 The electronic state is 1-A.
 Alpha  occ. eigenvalues --   -1.92026  -1.19272  -0.94813  -0.81141  -0.79566
 Alpha  occ. eigenvalues --   -0.68902  -0.63377  -0.54855  -0.54009  -0.43791
 Alpha  occ. eigenvalues --   -0.43242  -0.41760  -0.29793
 Alpha virt. eigenvalues --    0.11264   0.20128   0.21344   0.26378   0.27933
 Alpha virt. eigenvalues --    0.29276   0.30782   0.31251   0.33472   0.42601
 Alpha virt. eigenvalues --    0.46701

 Mulliken charges:
               1
     1  C   -0.181722
     2  C   -2.017985
     3  O    3.191768
     4  C   -2.013281
     5  C   -0.207716
     6  H    0.254502
     7  H    0.364677
     8  H    0.357853
     9  H    0.251904
 Sum of Mulliken charges =   0.00000

 Dipole moment (field-independent basis, Debye):
    X=             -3.1178    Y=            -10.0255    Z=              0.7036  Tot=             10.5226
 N-N= 1.037436826182D+02 E-N=-1.686245044425D+02  KE=-1.546284664907D+01
 Orbital energies and kinetic energies (alpha):
                                 1                 2
   1         O                -1.920265         -1.347110
   2         O                -1.192719         -1.070896
   3         O                -0.948125         -0.881917
   4         O                -0.811415         -0.593297
   5         O                -0.795657         -0.685199
   6         O                -0.689025         -0.577737
   7         O                -0.633766         -0.513919

 Normal termination of Gaussian 09 at Tue Dec 15 17:07:27 2015.
