 Gaussian 09, Revision D.01,
 Gaussian 09:  ES64L-G09RevD.01 24-Apr-2013

 ------------------------------------------------------------
 #P AM1(Input,print) CIS(Singlets,NStates=15) pop(full) force
 ------------------------------------------------------------

 -----------------
 AM1-Reparam Input
 -----------------
 Symbolic Z-matrix:
 Charge =  0 Multiplicity = 1

                         Standard orientation:
 ---------------------------------------------------------------------
 Center     Atomic      Atomic             Coordinates (Angstroms)
 Number     Number       Type             X           Y           Z
 ---------------------------------------------------------------------
      1          6           0       -0.942754    0.721818   -0.008713
      2          6           0       -1.013396   -0.617276   -0.014587
      3          8           0        0.338747   -1.090956    0.005008
      4          6           0        1.173161   -0.066625    0.004058
      5          6           0        0.431732    1.096270   -0.017886
      6          1           0        0.818183    2.137040    0.053337
      7          1           0        2.240727   -0.294566    0.014654
      8          1           0       -1.820827   -1.306558    0.045322
      9          1           0       -1.840517    1.386614    0.069402
 ---------------------------------------------------------------------

 SCF Done:  E(RAM1) =   2.09362031779     A.U. after   13 cycles

 Excitation energies and oscillator strengths:

 Excited State   1:      Singlet-A      5.4765 eV  226.39 nm  f=0.3474  <S**2>=0.000
      13 -> 14         0.69467
 This state for optimization and/or second-order correction.
 Total Energy, E(CIS) =   2.29487902725
 Copying the excited state density for this state as the 1-particle RhoCI density.

 Excited State   2:      Singlet-A      6.3904 eV  194.02 nm  f=0.0022  <S**2>=0.000
      10 -> 15        -0.10862
      13 -> 15         0.66650
      13 -> 17        -0.14642
      13 -> 19        -0.10714

 Excited State   3:      Singlet-A      7.0206 eV  176.60 nm  f=0.0017  <S**2>=0.000
      10 -> 16         0.10442
      13 -> 16         0.65813
      13 -> 20        -0.12357

 Excited State   4:      Singlet-A      7.2637 eV  170.69 nm  f=0.0015  <S**2>=0.000
      12 -> 14         0.69739

 Excited State   5:      Singlet-A      7.9385 eV  156.18 nm  f=0.0071  <S**2>=0.000
      10 -> 14         0.16639
      11 -> 14         0.66234
      13 -> 17        -0.14740

 Excited State   6:      Singlet-A      8.1219 eV  152.65 nm  f=0.0002  <S**2>=0.000
      13 -> 16         0.10122
      13 -> 18         0.55087
      13 -> 20         0.22827
      13 -> 22        -0.31369

 Excited State   7:      Singlet-A      8.3295 eV  148.85 nm  f=0.0051  <S**2>=0.000
      11 -> 14         0.15163
      13 -> 15         0.12072
      13 -> 17         0.64424
      13 -> 18         0.11908

 Excited State   8:      Singlet-A      9.0595 eV  136.85 nm  f=0.0708  <S**2>=0.000
      10 -> 14         0.63507
      11 -> 14        -0.15372
      13 -> 21         0.15596

 Excited State   9:      Singlet-A      9.0992 eV  136.26 nm  f=0.0021  <S**2>=0.000
      13 -> 17        -0.11554
      13 -> 18         0.28919
      13 -> 19         0.52361
      13 -> 20        -0.28790
      13 -> 22         0.10205

 Excited State  10:      Singlet-A      9.4425 eV  131.30 nm  f=0.0213  <S**2>=0.000
      13 -> 18        -0.27564
      13 -> 19         0.39427
      13 -> 20         0.33261
      13 -> 22        -0.37348

 Excited State  11:      Singlet-A      9.7802 eV  126.77 nm  f=0.0017  <S**2>=0.000
       8 -> 15         0.11941
      11 -> 16         0.17187
      11 -> 17        -0.19950
      12 -> 15         0.47982
      12 -> 16        -0.14715
      12 -> 17        -0.12708
      12 -> 18         0.26182

 Excited State  12:      Singlet-A      9.9421 eV  124.71 nm  f=0.0839  <S**2>=0.000
      10 -> 15        -0.13311
      11 -> 15         0.28998
      11 -> 17        -0.13837
      12 -> 15        -0.19673
      12 -> 18         0.10392
      13 -> 20         0.35959
      13 -> 22         0.37599

 Excited State  13:      Singlet-A      9.9784 eV  124.25 nm  f=0.1266  <S**2>=0.000
      11 -> 15         0.32293
      11 -> 16         0.13425
      11 -> 17        -0.19427
      12 -> 15        -0.27216
      12 -> 18         0.17878
      13 -> 19        -0.10294
      13 -> 20        -0.27818
      13 -> 22        -0.28092

 Excited State  14:      Singlet-A     10.2045 eV  121.50 nm  f=0.0109  <S**2>=0.000
       7 -> 15         0.12958
      10 -> 15         0.56413
      11 -> 15        -0.14400
      12 -> 15        -0.14041
      12 -> 16        -0.15010
      13 -> 15         0.13417
      13 -> 21         0.11319
      13 -> 22         0.12746

 Excited State  15:      Singlet-A     10.2851 eV  120.55 nm  f=0.0842  <S**2>=0.000
      10 -> 14        -0.16083
      10 -> 15        -0.18428
      12 -> 16        -0.20993
      13 -> 21         0.60626

 The electronic state is 1-A.
 Alpha  occ. eigenvalues --   -1.93646  -1.18441  -0.93239  -0.80614  -0.78035
 Alpha  occ. eigenvalues --   -0.68975  -0.65778  -0.56674  -0.54025  -0.45156
 Alpha  occ. eigenvalues --   -0.43971  -0.41913  -0.29364
 Alpha virt. eigenvalues --    0.11440   0.16742   0.20198   0.24927   0.26760
 Alpha virt. eigenvalues --    0.29025   0.30761   0.31354   0.31715   0.39167
 Alpha virt. eigenvalues --    0.44117

 Mulliken charges:
               1
     1  C   -0.081892
     2  C   -1.884663
     3  O    3.228513
     4  C   -1.907034
     5  C   -0.228318
     6  H    0.170367
     7  H    0.278005
     8  H    0.266624
     9  H    0.158397
 Sum of Mulliken charges =   0.00000

 Dipole moment (field-independent basis, Debye):
    X=              3.1756    Y=             -9.9558    Z=              0.3812  Tot=             10.4570
 N-N= 1.037549456404D+02 E-N=-1.686376125477D+02  KE=-1.528847766408D+01
 Orbital energies and kinetic energies (alpha):
                                 1                 2
   1         O                -1.936456         -1.354509
   2         O                -1.184405         -1.035379
   3         O                -0.932385         -0.876493
   4         O                -0.806142         -0.579842
   5         O                -0.780351         -0.675798
   6         O                -0.689749         -0.582302
   7         O                -0.657777         -0.523067

 Normal termination of Gaussian 09 at Tue Dec 15 17:09:18 2015.
