 Gaussian 09, Revision D.01,
 Gaussian 09:  ES64L-G09RevD.01 24-Apr-2013

 ------------------------------------------------------------
 #P AM1(Input,print) CIS(Singlets,NStates=15) pop(full) force
 ------------------------------------------------------------

 -----------------
 AM1-Reparam Input
 -----------------
 Symbolic Z-matrix:
 Charge =  0 Multiplicity = 1

                         Standard orientation:
 ---------------------------------------------------------------------
 Center     Atomic      Atomic             Coordinates (Angstroms)
 Number     Number       Type             X           Y           Z
 ---------------------------------------------------------------------
      1          6           0        0.863239    0.784245   -0.020767
      2          6           0        1.033205   -0.481976    0.015390
      3          8           0       -0.225510   -1.153029    0.003608
      4          6           0       -1.105698   -0.133167   -0.010492
      5          6           0       -0.522442    1.046167   -0.000348
      6          1           0       -1.117619    1.976527    0.081247
      7          1           0       -2.183631   -0.462451   -0.015577
      8          1           0        1.851522   -1.191054    0.001046
      9          1           0        1.643985    1.609587    0.001716
 ---------------------------------------------------------------------

 SCF Done:  E(RAM1) =   1.92104990771     A.U. after   14 cycles

 Excitation energies and oscillator strengths:

 Excited State   1:      Singlet-A      5.5498 eV  223.40 nm  f=0.3022  <S**2>=0.000
      11 -> 17         0.10835
      13 -> 14         0.68834
 This state for optimization and/or second-order correction.
 Total Energy, E(CIS) =   2.12500188350
 Copying the excited state density for this state as the 1-particle RhoCI density.

 Excited State   2:      Singlet-A      5.7094 eV  217.16 nm  f=0.0004  <S**2>=0.000
      10 -> 15        -0.10799
      13 -> 15         0.68154
      13 -> 17        -0.10608

 Excited State   3:      Singlet-A      6.3160 eV  196.30 nm  f=0.0007  <S**2>=0.000
      10 -> 16         0.11902
      13 -> 16         0.67718

 Excited State   4:      Singlet-A      6.7318 eV  184.18 nm  f=0.0010  <S**2>=0.000
      12 -> 14         0.70149

 Excited State   5:      Singlet-A      7.5901 eV  163.35 nm  f=0.0116  <S**2>=0.000
      11 -> 14        -0.35942
      13 -> 17         0.58025

 Excited State   6:      Singlet-A      7.7911 eV  159.14 nm  f=0.0033  <S**2>=0.000
      11 -> 14         0.59480
      13 -> 17         0.33227
      13 -> 18        -0.11102

 Excited State   7:      Singlet-A      7.9763 eV  155.44 nm  f=0.0030  <S**2>=0.000
      13 -> 17         0.11370
      13 -> 18         0.62329
      13 -> 19         0.13161
      13 -> 22        -0.23436

 Excited State   8:      Singlet-A      8.5183 eV  145.55 nm  f=0.0538  <S**2>=0.000
       8 -> 15         0.10709
       8 -> 16         0.11608
      11 -> 17         0.14412
      12 -> 15         0.53567
      12 -> 16        -0.25180
      12 -> 17        -0.11345
      12 -> 18         0.15710
      12 -> 19         0.11825

 Excited State   9:      Singlet-A      8.6700 eV  143.00 nm  f=0.0005  <S**2>=0.000
      13 -> 17         0.10264
      13 -> 18        -0.20673
      13 -> 19         0.63976

 Excited State  10:      Singlet-A      8.8334 eV  140.36 nm  f=0.0197  <S**2>=0.000
       8 -> 15         0.10720
       8 -> 16        -0.10542
      10 -> 14         0.37160
      11 -> 15         0.25095
      11 -> 17        -0.13651
      12 -> 15         0.27631
      12 -> 16         0.32070
      12 -> 17         0.11864
      12 -> 18        -0.15270

 Excited State  11:      Singlet-A      9.0969 eV  136.29 nm  f=0.0452  <S**2>=0.000
       9 -> 15        -0.23865
      10 -> 14        -0.23382
      11 -> 15         0.49088
      11 -> 17        -0.18392
      11 -> 18        -0.13243
      12 -> 16        -0.13406
      12 -> 18        -0.10347
      13 -> 21        -0.12478

 Excited State  12:      Singlet-A      9.3011 eV  133.30 nm  f=0.1381  <S**2>=0.000
       9 -> 16        -0.12363
      10 -> 14        -0.20603
      11 -> 16        -0.23083
      11 -> 17         0.14534
      11 -> 19         0.10178
      12 -> 16         0.48256
      12 -> 17        -0.23505
      12 -> 18         0.17919

 Excited State  13:      Singlet-A      9.5655 eV  129.62 nm  f=0.0192  <S**2>=0.000
      10 -> 15        -0.15527
      13 -> 18         0.19092
      13 -> 19         0.18800
      13 -> 20        -0.34167
      13 -> 22         0.50431

 Excited State  14:      Singlet-A      9.6336 eV  128.70 nm  f=0.0964  <S**2>=0.000
      10 -> 14        -0.23848
      10 -> 15         0.42994
      12 -> 15         0.14464
      12 -> 18        -0.16368
      13 -> 20        -0.36761

 Excited State  15:      Singlet-A      9.6390 eV  128.63 nm  f=0.1316  <S**2>=0.000
       9 -> 15        -0.11090
      10 -> 14         0.34755
      10 -> 15         0.32831
      11 -> 15         0.17049
      11 -> 19         0.12942
      12 -> 15        -0.15253
      12 -> 16        -0.11157
      12 -> 17        -0.17681
      12 -> 18         0.22874
      13 -> 20        -0.15842
      13 -> 21         0.16572

 The electronic state is 1-A.
 Alpha  occ. eigenvalues --   -1.94278  -1.23356  -0.98254  -0.80410  -0.80097
 Alpha  occ. eigenvalues --   -0.69207  -0.66327  -0.50405  -0.48358  -0.41879
 Alpha  occ. eigenvalues --   -0.38917  -0.35889  -0.25545
 Alpha virt. eigenvalues --    0.15998   0.17618   0.20290   0.27245   0.29268
 Alpha virt. eigenvalues --    0.32118   0.34335   0.34468   0.37249   0.44115
 Alpha virt. eigenvalues --    0.47425

 Mulliken charges:
               1
     1  C   -0.043416
     2  C   -1.848565
     3  O    3.105230
     4  C   -1.888715
     5  C   -0.177697
     6  H    0.151004
     7  H    0.295610
     8  H    0.272488
     9  H    0.134060
 Sum of Mulliken charges =   0.00000

 Dipole moment (field-independent basis, Debye):
    X=             -2.4876    Y=            -11.1755    Z=              0.0397  Tot=             11.4491
 N-N= 1.044432580182D+02 E-N=-1.703101400929D+02  KE=-1.567582356983D+01
 Orbital energies and kinetic energies (alpha):
                                 1                 2
   1         O                -1.942780         -1.406654
   2         O                -1.233559         -1.099706
   3         O                -0.982540         -0.922870
   4         O                -0.804102         -0.650486
   5         O                -0.800968         -0.646069
   6         O                -0.692073         -0.585221
   7         O                -0.663267         -0.572746

 Normal termination of Gaussian 09 at Tue Dec 15 17:10:04 2015.
