 Gaussian 09, Revision D.01,
 Gaussian 09:  ES64L-G09RevD.01 24-Apr-2013

 ------------------------------------------------------------
 #P AM1(Input,print) CIS(Singlets,NStates=15) pop(full) force
 ------------------------------------------------------------

 -----------------
 AM1-Reparam Input
 -----------------
 Symbolic Z-matrix:
 Charge =  0 Multiplicity = 1

                         Standard orientation:
 ---------------------------------------------------------------------
 Center     Atomic      Atomic             Coordinates (Angstroms)
 Number     Number       Type             X           Y           Z
 ---------------------------------------------------------------------
      1          6           0        0.701226    0.967271    0.040553
      2          6           0        1.125392   -0.316932   -0.018002
      3          8           0        0.007052   -1.142557   -0.010788
      4          6           0       -1.064523   -0.340344    0.037152
      5          6           0       -0.742517    0.901630   -0.041313
      6          1           0       -1.448645    1.775495   -0.029997
      7          1           0       -2.014939   -0.928212    0.013211
      8          1           0        2.024224   -0.811181   -0.003780
      9          1           0        1.265480    1.834602   -0.003475
 ---------------------------------------------------------------------

 SCF Done:  E(RAM1) =  0.317719772022E-01 A.U. after   13 cycles

 Excitation energies and oscillator strengths:

 Excited State   1:      Singlet-A      4.7008 eV  263.75 nm  f=0.0817  <S**2>=0.000
      12 -> 15         0.21686
      13 -> 14         0.66433
 This state for optimization and/or second-order correction.
 Total Energy, E(CIS) =  0.204521972412
 Copying the excited state density for this state as the 1-particle RhoCI density.

 Excited State   2:      Singlet-A      5.2620 eV  235.62 nm  f=0.0020  <S**2>=0.000
      12 -> 14        -0.36322
      13 -> 15         0.46438
      13 -> 16         0.36773

 Excited State   3:      Singlet-A      5.3798 eV  230.46 nm  f=0.0005  <S**2>=0.000
      12 -> 14         0.28333
      13 -> 15        -0.25935
      13 -> 16         0.57069

 Excited State   4:      Singlet-A      5.9726 eV  207.59 nm  f=0.0027  <S**2>=0.000
       7 -> 16        -0.17465
      12 -> 15         0.11376
      12 -> 16         0.63169
      12 -> 22         0.13802

 Excited State   5:      Singlet-A      6.0988 eV  203.29 nm  f=0.0052  <S**2>=0.000
      12 -> 18         0.17908
      12 -> 20        -0.15728
      13 -> 18         0.46938
      13 -> 20        -0.27235
      13 -> 22         0.19861
      13 -> 23        -0.19712

 Excited State   6:      Singlet-A      6.3208 eV  196.15 nm  f=0.3055  <S**2>=0.000
      12 -> 14         0.45450
      12 -> 15         0.17342
      13 -> 15         0.41707
      13 -> 19        -0.10270

 Excited State   7:      Singlet-A      6.4213 eV  193.08 nm  f=0.0240  <S**2>=0.000
      10 -> 14         0.10203
      12 -> 14         0.11120
      12 -> 15        -0.11017
      12 -> 18        -0.12220
      12 -> 19        -0.22337
      12 -> 22         0.15751
      12 -> 23         0.14306
      13 -> 17        -0.10317
      13 -> 18         0.11754
      13 -> 19         0.39452
      13 -> 22        -0.28892
      13 -> 23        -0.19495

 Excited State   8:      Singlet-A      6.5055 eV  190.58 nm  f=0.1297  <S**2>=0.000
      12 -> 14        -0.13327
      12 -> 15         0.52025
      12 -> 19        -0.10366
      13 -> 14        -0.16942
      13 -> 15        -0.11726
      13 -> 17        -0.32527

 Excited State   9:      Singlet-A      6.5499 eV  189.29 nm  f=0.0354  <S**2>=0.000
      12 -> 15         0.31790
      13 -> 14        -0.10292
      13 -> 17         0.53318
      13 -> 19         0.20934

 Excited State  10:      Singlet-A      7.0050 eV  176.99 nm  f=0.0048  <S**2>=0.000
      12 -> 17         0.53540
      12 -> 18         0.10317
      12 -> 19         0.24797
      12 -> 20        -0.14551
      12 -> 21         0.13345
      12 -> 23         0.10830
      13 -> 19         0.21754

 Excited State  11:      Singlet-A      7.3148 eV  169.50 nm  f=0.0035  <S**2>=0.000
       9 -> 14         0.34464
       9 -> 15         0.22449
      10 -> 14         0.50693
      10 -> 15        -0.14508

 Excited State  12:      Singlet-A      7.5157 eV  164.97 nm  f=0.0005  <S**2>=0.000
       8 -> 14        -0.13525
       9 -> 14         0.10025
      10 -> 14        -0.11018
      10 -> 15         0.12060
      11 -> 14         0.33004
      11 -> 15         0.27862
      12 -> 18        -0.32780
      12 -> 21         0.11922
      12 -> 23         0.13871
      13 -> 18         0.19091
      13 -> 19        -0.13554
      13 -> 20         0.12000

 Excited State  13:      Singlet-A      7.5838 eV  163.49 nm  f=0.0010  <S**2>=0.000
       9 -> 14         0.37452
      10 -> 14        -0.10468
      10 -> 15         0.23806
      11 -> 14         0.23500
      12 -> 18         0.28709
      13 -> 18        -0.20975
      13 -> 20        -0.11784
      13 -> 21        -0.10309
      13 -> 22        -0.12309

 Excited State  14:      Singlet-A      7.6735 eV  161.57 nm  f=0.0022  <S**2>=0.000
       9 -> 14        -0.18385
      10 -> 14         0.13904
      10 -> 15        -0.16495
      11 -> 14         0.50812
      11 -> 15        -0.22242
      12 -> 19         0.12731
      13 -> 19         0.12096

 Excited State  15:      Singlet-A      7.7542 eV  159.89 nm  f=0.0010  <S**2>=0.000
       9 -> 14         0.17452
      10 -> 14        -0.17828
      10 -> 15         0.16544
      11 -> 14        -0.10530
      12 -> 18        -0.11145
      12 -> 19         0.11694
      12 -> 21        -0.25209
      12 -> 22        -0.15114
      12 -> 23        -0.11682
      13 -> 17        -0.15499
      13 -> 18         0.15075
      13 -> 19         0.31851
      13 -> 20         0.14374
      13 -> 22         0.21151
      13 -> 24         0.13909

 The electronic state is 1-A.
 Alpha  occ. eigenvalues --   -1.57958  -1.23908  -1.11644  -0.83190  -0.80826
 Alpha  occ. eigenvalues --   -0.68801  -0.60501  -0.56082  -0.51508  -0.50362
 Alpha  occ. eigenvalues --   -0.49501  -0.39672  -0.35628
 Alpha virt. eigenvalues --    0.03396   0.06649   0.10082   0.13484   0.14601
 Alpha virt. eigenvalues --    0.15679   0.17780   0.18547   0.19309   0.20685
 Alpha virt. eigenvalues --    0.22517

 Mulliken charges:
               1
     1  C   -0.189420
     2  C   -0.091717
     3  O   -0.105233
     4  C   -0.075272
     5  C   -0.220736
     6  H    0.160457
     7  H    0.184601
     8  H    0.182502
     9  H    0.154818
 Sum of Mulliken charges =   0.00000

 Dipole moment (field-independent basis, Debye):
    X=             -0.1284    Y=              0.3873    Z=             -0.0124  Tot=              0.4082
 N-N= 1.039548787755D+02 E-N=-1.718457325181D+02  KE=-1.660886782121D+01
 Orbital energies and kinetic energies (alpha):
                                 1                 2
   1         O                -1.579578         -1.329821
   2         O                -1.239079         -1.047180
   3         O                -1.116443         -0.972168
   4         O                -0.831896         -0.716213
   5         O                -0.808258         -0.713500
   6         O                -0.688014         -0.605930
   7         O                -0.605009         -0.491375

 Normal termination of Gaussian 09 at Tue Dec 15 16:12:59 2015.
