 Gaussian 09, Revision D.01,
 Gaussian 09:  ES64L-G09RevD.01 24-Apr-2013

 ------------------------------------------------------------
 #P AM1(Input,print) CIS(Singlets,NStates=15) pop(full) force
 ------------------------------------------------------------

 -----------------
 AM1-Reparam Input
 -----------------
 Symbolic Z-matrix:
 Charge =  0 Multiplicity = 1

                         Standard orientation:
 ---------------------------------------------------------------------
 Center     Atomic      Atomic             Coordinates (Angstroms)
 Number     Number       Type             X           Y           Z
 ---------------------------------------------------------------------
      1          6           0       -0.716696    0.974194   -0.001533
      2          6           0       -1.107298   -0.366008   -0.010851
      3          8           0       -0.014993   -1.126145    0.021393
      4          6           0        1.125713   -0.343801   -0.025532
      5          6           0        0.713331    0.902906    0.003358
      6          1           0        1.455381    1.817331    0.048706
      7          1           0        2.036707   -0.850826   -0.004192
      8          1           0       -2.092884   -0.817018   -0.011359
      9          1           0       -1.369558    1.855927    0.003043
 ---------------------------------------------------------------------

 SCF Done:  E(RAM1) =   2.02475375746     A.U. after   13 cycles

 Excitation energies and oscillator strengths:

 Excited State   1:      Singlet-A      5.3400 eV  232.18 nm  f=0.3456  <S**2>=0.000
      13 -> 14         0.69449
 This state for optimization and/or second-order correction.
 Total Energy, E(CIS) =   2.22099334976
 Copying the excited state density for this state as the 1-particle RhoCI density.

 Excited State   2:      Singlet-A      6.6804 eV  185.59 nm  f=0.0090  <S**2>=0.000
      12 -> 14         0.54038
      13 -> 15        -0.41787
      13 -> 17         0.13808

 Excited State   3:      Singlet-A      6.6992 eV  185.07 nm  f=0.0049  <S**2>=0.000
      12 -> 14         0.43626
      13 -> 15         0.50296
      13 -> 17        -0.16243
      13 -> 18        -0.10358

 Excited State   4:      Singlet-A      7.1086 eV  174.41 nm  f=0.0036  <S**2>=0.000
      13 -> 16         0.62437
      13 -> 18         0.22152
      13 -> 19        -0.17862

 Excited State   5:      Singlet-A      7.6611 eV  161.84 nm  f=0.0057  <S**2>=0.000
      11 -> 14         0.66603
      13 -> 19         0.11895

 Excited State   6:      Singlet-A      7.8870 eV  157.20 nm  f=0.0005  <S**2>=0.000
      11 -> 14        -0.18354
      13 -> 16         0.18797
      13 -> 17        -0.21886
      13 -> 19         0.46494
      13 -> 20        -0.37841

 Excited State   7:      Singlet-A      8.7031 eV  142.46 nm  f=0.0082  <S**2>=0.000
      10 -> 16         0.12496
      13 -> 15         0.15418
      13 -> 17         0.61186
      13 -> 19         0.18516
      13 -> 20        -0.15131

 Excited State   8:      Singlet-A      8.8028 eV  140.85 nm  f=0.1001  <S**2>=0.000
      10 -> 14         0.67465
      12 -> 17         0.10127

 Excited State   9:      Singlet-A      9.0429 eV  137.11 nm  f=0.0027  <S**2>=0.000
      10 -> 15        -0.12670
      13 -> 15         0.10508
      13 -> 16        -0.17039
      13 -> 18         0.61362
      13 -> 19         0.19487
      13 -> 21         0.10277

 Excited State  10:      Singlet-A      9.4135 eV  131.71 nm  f=0.0041  <S**2>=0.000
      13 -> 18        -0.17781
      13 -> 19         0.37998
      13 -> 20         0.50933
      13 -> 21         0.21678

 Excited State  11:      Singlet-A      9.4875 eV  130.68 nm  f=0.0775  <S**2>=0.000
      10 -> 14         0.12290
      11 -> 15        -0.16743
      11 -> 16        -0.21002
      11 -> 17         0.12903
      11 -> 19         0.17827
      12 -> 15         0.35017
      12 -> 17        -0.28526
      12 -> 19         0.25897
      12 -> 20        -0.11835

 Excited State  12:      Singlet-A      9.7797 eV  126.78 nm  f=0.0802  <S**2>=0.000
      13 -> 19        -0.10578
      13 -> 20        -0.20778
      13 -> 21         0.64533

 Excited State  13:      Singlet-A      9.9286 eV  124.88 nm  f=0.1060  <S**2>=0.000
      12 -> 15         0.20347
      12 -> 16         0.58633
      12 -> 18         0.15977
      12 -> 19        -0.19866
      12 -> 21         0.10870

 Excited State  14:      Singlet-A     10.1445 eV  122.22 nm  f=0.1905  <S**2>=0.000
      11 -> 15         0.39421
      11 -> 17        -0.14042
      12 -> 15         0.39539
      12 -> 16        -0.21810
      12 -> 18        -0.20945
      12 -> 19        -0.20109

 Excited State  15:      Singlet-A     10.3195 eV  120.15 nm  f=0.0173  <S**2>=0.000
       9 -> 15        -0.23247
      11 -> 15         0.38235
      11 -> 16        -0.11542
      11 -> 17        -0.10564
      11 -> 18        -0.19401
      11 -> 19        -0.13475
      12 -> 15        -0.13564
      12 -> 17        -0.24173
      12 -> 18         0.14268
      12 -> 19         0.25890

 The electronic state is 1-A.
 Alpha  occ. eigenvalues --   -1.94600  -1.19236  -0.96741  -0.82050  -0.78470
 Alpha  occ. eigenvalues --   -0.68351  -0.65427  -0.56913  -0.53693  -0.44994
 Alpha  occ. eigenvalues --   -0.44237  -0.41065  -0.29880
 Alpha virt. eigenvalues --    0.10371   0.18762   0.20479   0.24716   0.27151
 Alpha virt. eigenvalues --    0.27299   0.28858   0.29832   0.36082   0.44341
 Alpha virt. eigenvalues --    0.49909

 Mulliken charges:
               1
     1  C   -0.249594
     2  C   -2.050403
     3  O    3.200781
     4  C   -1.986744
     5  C   -0.194646
     6  H    0.268999
     7  H    0.361829
     8  H    0.385617
     9  H    0.264161
 Sum of Mulliken charges =   0.00000

 Dipole moment (field-independent basis, Debye):
    X=             -0.0900    Y=             -9.4880    Z=              0.6359  Tot=              9.5098
 N-N= 1.043153013369D+02 E-N=-1.695960171329D+02  KE=-1.547193865210D+01
 Orbital energies and kinetic energies (alpha):
                                 1                 2
   1         O                -1.945999         -1.398077
   2         O                -1.192360         -1.046521
   3         O                -0.967412         -0.869974
   4         O                -0.820501         -0.598354
   5         O                -0.784701         -0.688305
   6         O                -0.683514         -0.558657
   7         O                -0.654265         -0.521838

 Normal termination of Gaussian 09 at Tue Dec 15 17:07:16 2015.
