 Gaussian 09, Revision D.01,
 Gaussian 09:  ES64L-G09RevD.01 24-Apr-2013

 ------------------------------------------------------------
 #P AM1(Input,print) CIS(Singlets,NStates=15) pop(full) force
 ------------------------------------------------------------

 -----------------
 AM1-Reparam Input
 -----------------
 Symbolic Z-matrix:
 Charge =  0 Multiplicity = 1

                         Standard orientation:
 ---------------------------------------------------------------------
 Center     Atomic      Atomic             Coordinates (Angstroms)
 Number     Number       Type             X           Y           Z
 ---------------------------------------------------------------------
      1          6           0        0.285540    1.128025   -0.022795
      2          6           0        1.182488    0.050844   -0.009044
      3          8           0        0.402109   -1.082291    0.000520
      4          6           0       -0.907967   -0.694371    0.000924
      5          6           0       -0.980951    0.676219    0.016464
      6          1           0       -1.943050    1.161635   -0.007027
      7          1           0       -1.636924   -1.524341   -0.014432
      8          1           0        2.254782   -0.096142    0.061871
      9          1           0        0.633659    2.152871    0.042130
 ---------------------------------------------------------------------

 SCF Done:  E(RAM1) =   1.77757082750     A.U. after   14 cycles

 Excitation energies and oscillator strengths:

 Excited State   1:      Singlet-A      5.8650 eV  211.40 nm  f=0.2871  <S**2>=0.000
      13 -> 14         0.68016
 This state for optimization and/or second-order correction.
 Total Energy, E(CIS) =   1.99310422241
 Copying the excited state density for this state as the 1-particle RhoCI density.

 Excited State   2:      Singlet-A      7.0250 eV  176.49 nm  f=0.0093  <S**2>=0.000
      13 -> 15         0.66137
      13 -> 16         0.12542
      13 -> 17         0.15528

 Excited State   3:      Singlet-A      7.4575 eV  166.25 nm  f=0.0016  <S**2>=0.000
      13 -> 15        -0.11714
      13 -> 16         0.65168
      13 -> 19        -0.16260

 Excited State   4:      Singlet-A      7.8542 eV  157.86 nm  f=0.0029  <S**2>=0.000
      12 -> 14         0.69575

 Excited State   5:      Singlet-A      8.2224 eV  150.79 nm  f=0.0035  <S**2>=0.000
      10 -> 14        -0.43228
      11 -> 14         0.54388

 Excited State   6:      Singlet-A      8.7692 eV  141.39 nm  f=0.0004  <S**2>=0.000
      13 -> 17         0.18461
      13 -> 18         0.61298
      13 -> 21         0.25508

 Excited State   7:      Singlet-A      9.1620 eV  135.32 nm  f=0.0954  <S**2>=0.000
      10 -> 14         0.53767
      11 -> 14         0.42929

 Excited State   8:      Singlet-A      9.2847 eV  133.54 nm  f=0.0162  <S**2>=0.000
      10 -> 16         0.15254
      11 -> 16         0.15401
      13 -> 17         0.61653
      13 -> 18        -0.18385

 Excited State   9:      Singlet-A      9.7255 eV  127.48 nm  f=0.2282  <S**2>=0.000
       9 -> 16        -0.11180
      10 -> 15         0.13652
      10 -> 18        -0.14288
      11 -> 15        -0.18055
      11 -> 16        -0.12331
      11 -> 17        -0.10440
      11 -> 18         0.15611
      12 -> 15         0.40842
      12 -> 16         0.15101
      12 -> 17         0.23738
      12 -> 18         0.14896
      13 -> 14         0.16685

 Excited State  10:      Singlet-A      9.8923 eV  125.33 nm  f=0.0001  <S**2>=0.000
      10 -> 15        -0.19102
      10 -> 16        -0.12476
      11 -> 15        -0.15505
      11 -> 16        -0.11305
      13 -> 19         0.61175

 Excited State  11:      Singlet-A     10.2970 eV  120.41 nm  f=0.0091  <S**2>=0.000
       9 -> 15        -0.10920
      10 -> 15        -0.28539
      11 -> 15         0.28035
      12 -> 16         0.49139
      12 -> 19        -0.17794

 Excited State  12:      Singlet-A     10.3925 eV  119.30 nm  f=0.0082  <S**2>=0.000
      10 -> 15         0.32218
      10 -> 16         0.13662
      11 -> 15         0.46857
      13 -> 15        -0.11256
      13 -> 16         0.16762
      13 -> 19         0.25082

 Excited State  13:      Singlet-A     10.4717 eV  118.40 nm  f=0.1370  <S**2>=0.000
       8 -> 15        -0.12539
      10 -> 15         0.38315
      10 -> 16        -0.12874
      11 -> 15        -0.24231
      11 -> 16         0.24799
      12 -> 15        -0.10632
      12 -> 16         0.35465

 Excited State  14:      Singlet-A     10.7908 eV  114.90 nm  f=0.0222  <S**2>=0.000
      10 -> 15        -0.15575
      10 -> 16         0.40025
      11 -> 16         0.36162
      13 -> 17        -0.17732
      13 -> 20        -0.31750

 Excited State  15:      Singlet-A     10.8032 eV  114.77 nm  f=0.0821  <S**2>=0.000
       8 -> 16         0.14098
       9 -> 15        -0.17028
      10 -> 16         0.14313
      11 -> 16        -0.10034
      12 -> 15        -0.28480
      12 -> 17         0.17961
      12 -> 18         0.38561
      12 -> 19        -0.14699
      12 -> 20         0.18182
      13 -> 21        -0.14597

 The electronic state is 1-A.
 Alpha  occ. eigenvalues --   -1.98983  -1.28476  -0.99386  -0.89504  -0.85502
 Alpha  occ. eigenvalues --   -0.75888  -0.74350  -0.63871  -0.62345  -0.51657
 Alpha  occ. eigenvalues --   -0.51394  -0.50325  -0.38777
 Alpha virt. eigenvalues --    0.05112   0.10834   0.12269   0.18675   0.20500
 Alpha virt. eigenvalues --    0.22298   0.25333   0.27230   0.28845   0.36824
 Alpha virt. eigenvalues --    0.42263

 Mulliken charges:
               1
     1  C   -0.126528
     2  C   -1.908074
     3  O    3.180640
     4  C   -1.914125
     5  C   -0.108323
     6  H    0.157360
     7  H    0.283690
     8  H    0.275584
     9  H    0.159776
 Sum of Mulliken charges =   0.00000

 Dipole moment (field-independent basis, Debye):
    X=              3.2544    Y=             -9.9420    Z=              0.1910  Tot=             10.4629
 N-N= 1.055301745277D+02 E-N=-1.704416073675D+02  KE=-1.565444756101D+01
 Orbital energies and kinetic energies (alpha):
                                 1                 2
   1         O                -1.989826         -1.370057
   2         O                -1.284756         -1.060640
   3         O                -0.993857         -0.875318
   4         O                -0.895039         -0.591121
   5         O                -0.855017         -0.684936
   6         O                -0.758881         -0.625104
   7         O                -0.743503         -0.551512

 Normal termination of Gaussian 09 at Tue Dec 15 17:08:59 2015.
