 Gaussian 09, Revision D.01,
 Gaussian 09:  ES64L-G09RevD.01 24-Apr-2013

 -----------------------
 #P AM1(Input,print) Opt
 -----------------------

 -----------------
 AM1-Reparam Input
 -----------------
 Symbolic Z-matrix:
 Charge =  0 Multiplicity = 1

 SCF Done:  E(RAM1) =  -2.20778674864     A.U. after   13 cycles
 SCF Done:  E(RAM1) =  -2.22122615894     A.U. after   13 cycles
 SCF Done:  E(RAM1) =  -2.22093570200     A.U. after   12 cycles
 SCF Done:  E(RAM1) =  -2.22219183052     A.U. after   10 cycles
 SCF Done:  E(RAM1) =  -2.22262248053     A.U. after   12 cycles
 SCF Done:  E(RAM1) =  -2.22275978816     A.U. after   11 cycles
 SCF Done:  E(RAM1) =  -2.22275175948     A.U. after   11 cycles
 SCF Done:  E(RAM1) =  -2.22276958160     A.U. after   10 cycles
 Optimization completed.
    -- Stationary point found.

                         Standard orientation:
 ---------------------------------------------------------------------
 Center     Atomic      Atomic             Coordinates (Angstroms)
 Number     Number       Type             X           Y           Z
 ---------------------------------------------------------------------
      1          6           0        0.707965    0.961725    0.000362
      2          6           0        1.098927   -0.352818   -0.000168
      3          8           0       -0.003845   -1.187519   -0.000026
      4          6           0       -1.101065   -0.345930   -0.000052
      5          6           0       -0.701802    0.965947   -0.000075
      6          1           0       -1.320429    1.849335   -0.000274
      7          1           0       -2.092704   -0.775249    0.000510
      8          1           0        2.087601   -0.788780    0.000253
      9          1           0        1.332140    1.841306   -0.000688
 ---------------------------------------------------------------------

 The electronic state is 1-A.
 Alpha  occ. eigenvalues --   -1.54112  -1.12508  -1.09744  -0.86223  -0.82762
 Alpha  occ. eigenvalues --   -0.79448  -0.73517  -0.49107  -0.44010  -0.42798
 Alpha  occ. eigenvalues --   -0.42644  -0.39764  -0.32874
 Alpha virt. eigenvalues --    0.17401   0.19057   0.26817   0.29319   0.30758
 Alpha virt. eigenvalues --    0.32544   0.34394   0.36016   0.40428   0.41779
 Alpha virt. eigenvalues --    0.44842

 Mulliken charges:
               1
     1  C   -0.292311
     2  C   -0.052329
     3  O    0.109220
     4  C   -0.052068
     5  C   -0.292553
     6  H    0.150904
     7  H    0.139107
     8  H    0.139127
     9  H    0.150902
 Sum of Mulliken charges =   0.00000

 Dipole moment (field-independent basis, Debye):
    X=             -0.0038    Y=             -0.9434    Z=             -0.0006  Tot=              0.9434
 N-N= 1.012014193048D+02 E-N=-1.696828762600D+02  KE=-1.817532142005D+01
 Leave Link  601 at Mon Nov 23 13:23:35 2015, MaxMem=    33554432 cpu:         0.0
 (Enter /home/Applications/g09/g09/l9999.exe)
 1\1\GINC-DUSTIN-DESKTOP\FOpt\RAM1\ZDO\C4H4O1\DUSTIN\23-Nov-2015\0\\#P
 AM1(Input,print) Opt\\AM1-Reparam Input\\0,1\C,0.9627331041,-0.7078711
 113,-0.0018617107\C,-0.3523620816,-1.0969686482,-0.0005404262\O,-1.185
 5001807,0.006980813,-0.0035856554\C,-0.342357812,1.1030010969,-0.00753
 08405\C,0.9689527819,0.7018798638,-0.0068526296\H,1.8532159325,1.31924
 94635,-0.0094450739\H,-0.7702708034,2.095243969,-0.009978149\H,-0.7897
 244564,-2.0850168163,0.003267709\H,1.8414285157,-1.3332936305,-0.00129

 Normal termination of Gaussian 09 at Mon Nov 23 13:23:35 2015.
