 Gaussian 09, Revision D.01,
 Gaussian 09:  ES64L-G09RevD.01 24-Apr-2013

 ------------------------------------------------------------
 #P AM1(Input,print) CIS(Singlets,NStates=15) pop(full) force
 ------------------------------------------------------------

 -----------------
 AM1-Reparam Input
 -----------------
 Symbolic Z-matrix:
 Charge =  0 Multiplicity = 1

                         Standard orientation:
 ---------------------------------------------------------------------
 Center     Atomic      Atomic             Coordinates (Angstroms)
 Number     Number       Type             X           Y           Z
 ---------------------------------------------------------------------
      1          6           0       -0.019172    1.188053   -0.031530
      2          6           0        1.098895    0.359700    0.031743
      3          8           0        0.727362   -0.947149    0.002160
      4          6           0       -0.659023   -0.891027   -0.032035
      5          6           0       -1.176731    0.335006    0.033046
      6          1           0       -2.218232    0.574251    0.032953
      7          1           0       -1.151457   -1.871327   -0.002203
      8          1           0        2.139430    0.634543   -0.023351
      9          1           0       -0.052447    2.289335   -0.032020
 ---------------------------------------------------------------------

 SCF Done:  E(RAM1) =   2.53279363589     A.U. after   14 cycles

 Excitation energies and oscillator strengths:

 Excited State   1:      Singlet-A      5.3124 eV  233.38 nm  f=0.3394  <S**2>=0.000
      13 -> 14         0.69565
 This state for optimization and/or second-order correction.
 Total Energy, E(CIS) =   2.72802240284
 Copying the excited state density for this state as the 1-particle RhoCI density.

 Excited State   2:      Singlet-A      6.2659 eV  197.87 nm  f=0.0008  <S**2>=0.000
      11 -> 15         0.12073
      13 -> 15         0.66937
      13 -> 17        -0.13145

 Excited State   3:      Singlet-A      6.4919 eV  190.98 nm  f=0.0030  <S**2>=0.000
      11 -> 16        -0.10936
      13 -> 16         0.66103
      13 -> 17        -0.13576
      13 -> 18        -0.11590
      13 -> 19        -0.11738

 Excited State   4:      Singlet-A      6.8176 eV  181.86 nm  f=0.0013  <S**2>=0.000
      12 -> 14         0.69661

 Excited State   5:      Singlet-A      7.8535 eV  157.87 nm  f=0.0043  <S**2>=0.000
      10 -> 14         0.21910
      13 -> 15        -0.12140
      13 -> 17        -0.37558
      13 -> 18         0.44778
      13 -> 20        -0.10858
      13 -> 21         0.25638

 Excited State   6:      Singlet-A      7.9855 eV  155.26 nm  f=0.0061  <S**2>=0.000
      10 -> 14         0.62948
      11 -> 14        -0.10194
      13 -> 18        -0.24202
      13 -> 21        -0.12079

 Excited State   7:      Singlet-A      8.2823 eV  149.70 nm  f=0.0082  <S**2>=0.000
      10 -> 14         0.18782
      11 -> 16        -0.12476
      13 -> 16         0.14225
      13 -> 17         0.55444
      13 -> 18         0.28788
      13 -> 21         0.14533

 Excited State   8:      Singlet-A      8.7440 eV  141.79 nm  f=0.0921  <S**2>=0.000
      10 -> 14         0.11013
      11 -> 14         0.65328
      12 -> 15         0.13283
      13 -> 19         0.12558

 Excited State   9:      Singlet-A      8.8198 eV  140.57 nm  f=0.0061  <S**2>=0.000
      11 -> 14        -0.12091
      13 -> 18        -0.10410
      13 -> 19         0.66238

 Excited State  10:      Singlet-A      9.2525 eV  134.00 nm  f=0.0648  <S**2>=0.000
       8 -> 15         0.15688
      10 -> 16         0.11455
      10 -> 17        -0.17339
      11 -> 14        -0.12817
      12 -> 15         0.47277
      12 -> 16        -0.21583
      12 -> 18         0.22251
      13 -> 20         0.13102

 Excited State  11:      Singlet-A      9.3713 eV  132.30 nm  f=0.0201  <S**2>=0.000
      12 -> 15         0.11245
      13 -> 18        -0.33319
      13 -> 20        -0.34656
      13 -> 21         0.47746

 Excited State  12:      Singlet-A      9.7396 eV  127.30 nm  f=0.0395  <S**2>=0.000
      11 -> 15         0.10438
      11 -> 16         0.21338
      12 -> 15         0.27865
      12 -> 16         0.41622
      12 -> 18        -0.14491
      13 -> 20        -0.27374
      13 -> 21        -0.16765

 Excited State  13:      Singlet-A      9.8074 eV  126.42 nm  f=0.1126  <S**2>=0.000
      10 -> 16         0.13365
      12 -> 16         0.38314
      12 -> 17        -0.12778
      13 -> 20         0.40805
      13 -> 21         0.31025

 Excited State  14:      Singlet-A      9.8597 eV  125.75 nm  f=0.1547  <S**2>=0.000
       9 -> 16        -0.14040
      10 -> 15         0.20954
      10 -> 16         0.22863
      10 -> 17        -0.21483
      11 -> 15        -0.19895
      12 -> 15        -0.23278
      12 -> 16         0.12723
      12 -> 17        -0.17593
      12 -> 18         0.23858
      12 -> 19        -0.11035
      13 -> 20        -0.22455
      13 -> 21        -0.14488

 Excited State  15:      Singlet-A      9.9668 eV  124.40 nm  f=0.0178  <S**2>=0.000
      10 -> 15         0.12815
      11 -> 15         0.44612
      11 -> 16         0.39470
      12 -> 15        -0.13242
      12 -> 16        -0.14201
      12 -> 18         0.11451

 The electronic state is 1-A.
 Alpha  occ. eigenvalues --   -1.72243  -1.15299  -0.93767  -0.80051  -0.75740
 Alpha  occ. eigenvalues --   -0.67045  -0.63463  -0.53406  -0.49647  -0.43747
 Alpha  occ. eigenvalues --   -0.42985  -0.39978  -0.27972
 Alpha virt. eigenvalues --    0.12129   0.17864   0.18771   0.26322   0.27901
 Alpha virt. eigenvalues --    0.29662   0.31580   0.33200   0.39062   0.48837
 Alpha virt. eigenvalues --    0.52428

 Mulliken charges:
               1
     1  C   -0.088145
     2  C   -1.941590
     3  O    3.217730
     4  C   -1.904550
     5  C   -0.023882
     6  H    0.109086
     7  H    0.249249
     8  H    0.268843
     9  H    0.113261
 Sum of Mulliken charges =   0.00000

 Dipole moment (field-independent basis, Debye):
    X=              6.4270    Y=             -8.9920    Z=             -0.0015  Tot=             11.0527
 N-N= 1.033519231822D+02 E-N=-1.681385401589D+02  KE=-1.499286335221D+01
 Orbital energies and kinetic energies (alpha):
                                 1                 2
   1         O                -1.722432         -1.215361
   2         O                -1.152990         -1.020982
   3         O                -0.937665         -0.867683
   4         O                -0.800509         -0.602807
   5         O                -0.757403         -0.682498
   6         O                -0.670453         -0.569538
   7         O                -0.634628         -0.520323

 Normal termination of Gaussian 09 at Tue Dec 15 17:06:15 2015.
