 Gaussian 09, Revision D.01,
 Gaussian 09:  ES64L-G09RevD.01 24-Apr-2013

 ------------------------------------------------------------
 #P AM1(Input,print) CIS(Singlets,NStates=15) pop(full) force
 ------------------------------------------------------------

 -----------------
 AM1-Reparam Input
 -----------------
 Symbolic Z-matrix:
 Charge =  0 Multiplicity = 1

                         Standard orientation:
 ---------------------------------------------------------------------
 Center     Atomic      Atomic             Coordinates (Angstroms)
 Number     Number       Type             X           Y           Z
 ---------------------------------------------------------------------
      1          6           0       -0.970438    0.756641   -0.000216
      2          6           0       -0.964119   -0.659446    0.018662
      3          8           0        0.356775   -1.098251   -0.032885
      4          6           0        1.120594   -0.024233    0.048534
      5          6           0        0.427731    1.087000   -0.030332
      6          1           0        0.845592    2.120693   -0.014245
      7          1           0        2.155566   -0.269430    0.017029
      8          1           0       -1.711403   -1.383731    0.010699
      9          1           0       -1.826562    1.358707    0.029712
 ---------------------------------------------------------------------

 SCF Done:  E(RAM1) =   2.83662627723     A.U. after   14 cycles

 Excitation energies and oscillator strengths:

 Excited State   1:      Singlet-A      5.2889 eV  234.42 nm  f=0.3382  <S**2>=0.000
      13 -> 14         0.69532
 This state for optimization and/or second-order correction.
 Total Energy, E(CIS) =   3.03098886054
 Copying the excited state density for this state as the 1-particle RhoCI density.

 Excited State   2:      Singlet-A      6.2732 eV  197.64 nm  f=0.0015  <S**2>=0.000
      11 -> 15         0.12047
      13 -> 15         0.66384
      13 -> 17         0.14089
      13 -> 18        -0.13222

 Excited State   3:      Singlet-A      6.7538 eV  183.58 nm  f=0.0005  <S**2>=0.000
       9 -> 14        -0.11574
      12 -> 14         0.69265

 Excited State   4:      Singlet-A      6.8221 eV  181.74 nm  f=0.0061  <S**2>=0.000
      13 -> 16         0.63049
      13 -> 17         0.18575
      13 -> 18         0.18273

 Excited State   5:      Singlet-A      7.7845 eV  159.27 nm  f=0.0098  <S**2>=0.000
      10 -> 14         0.64997
      13 -> 17        -0.20819

 Excited State   6:      Singlet-A      7.8598 eV  157.74 nm  f=0.0036  <S**2>=0.000
      13 -> 15         0.12049
      13 -> 16        -0.12655
      13 -> 17        -0.13306
      13 -> 18         0.44893
      13 -> 19        -0.12026
      13 -> 20         0.10385
      13 -> 21         0.44852

 Excited State   7:      Singlet-A      7.9786 eV  155.40 nm  f=0.0061  <S**2>=0.000
      10 -> 14         0.22907
      11 -> 16         0.12146
      13 -> 15        -0.10770
      13 -> 16        -0.13114
      13 -> 17         0.58227
      13 -> 19        -0.17045
      13 -> 21         0.15775

 Excited State   8:      Singlet-A      8.4976 eV  145.90 nm  f=0.0963  <S**2>=0.000
      11 -> 14         0.67668
      12 -> 15         0.11944

 Excited State   9:      Singlet-A      8.6966 eV  142.57 nm  f=0.0037  <S**2>=0.000
      11 -> 16         0.13722
      13 -> 16        -0.15516
      13 -> 17         0.16321
      13 -> 18         0.31912
      13 -> 19         0.50863
      13 -> 20        -0.14272
      13 -> 21        -0.18377

 Excited State  10:      Singlet-A      9.0020 eV  137.73 nm  f=0.0137  <S**2>=0.000
      13 -> 18        -0.35756
      13 -> 19         0.40628
      13 -> 21         0.43133

 Excited State  11:      Singlet-A      9.2253 eV  134.40 nm  f=0.1108  <S**2>=0.000
       8 -> 15         0.13081
      11 -> 14        -0.12301
      12 -> 15         0.60820
      12 -> 16        -0.12962
      12 -> 18        -0.18134

 Excited State  12:      Singlet-A      9.4657 eV  130.98 nm  f=0.0642  <S**2>=0.000
      10 -> 15         0.11236
      10 -> 17         0.11648
      11 -> 15        -0.10616
      12 -> 15         0.15012
      12 -> 16         0.12351
      12 -> 17         0.11008
      13 -> 20         0.57322
      13 -> 21        -0.15986

 Excited State  13:      Singlet-A      9.5161 eV  130.29 nm  f=0.0441  <S**2>=0.000
       9 -> 15        -0.16585
       9 -> 18         0.10967
      10 -> 15        -0.21609
      10 -> 16        -0.10851
      10 -> 17        -0.22511
      12 -> 15        -0.16567
      12 -> 16        -0.24200
      12 -> 17        -0.20564
      12 -> 18        -0.14166
      12 -> 19         0.11752
      12 -> 21        -0.12662
      13 -> 20         0.33613

 Excited State  14:      Singlet-A      9.7862 eV  126.69 nm  f=0.0007  <S**2>=0.000
       7 -> 15        -0.14294
      11 -> 15         0.62285
      11 -> 16         0.13336
      11 -> 17         0.10067
      13 -> 15        -0.14253

 Excited State  15:      Singlet-A      9.9280 eV  124.88 nm  f=0.0003  <S**2>=0.000
       9 -> 14         0.67687
      12 -> 14         0.11385

 The electronic state is 1-A.
 Alpha  occ. eigenvalues --   -1.72484  -1.11566  -0.93024  -0.79469  -0.75057
 Alpha  occ. eigenvalues --   -0.66614  -0.63844  -0.53745  -0.49824  -0.43753
 Alpha  occ. eigenvalues --   -0.42727  -0.40201  -0.28627
 Alpha virt. eigenvalues --    0.11292   0.16878   0.20659   0.24724   0.27105
 Alpha virt. eigenvalues --    0.28200   0.29906   0.30220   0.37398   0.46367
 Alpha virt. eigenvalues --    0.50289

 Mulliken charges:
               1
     1  C   -0.107566
     2  C   -1.966053
     3  O    3.209472
     4  C   -1.924082
     5  C   -0.157101
     6  H    0.181204
     7  H    0.294546
     8  H    0.292843
     9  H    0.176737
 Sum of Mulliken charges =   0.00000

 Dipole moment (field-independent basis, Debye):
    X=              3.8602    Y=             -9.6420    Z=             -0.9249  Tot=             10.4271
 N-N= 1.040375670617D+02 E-N=-1.691977265090D+02  KE=-1.478551603526D+01
 Orbital energies and kinetic energies (alpha):
                                 1                 2
   1         O                -1.724838         -1.218732
   2         O                -1.115658         -0.983475
   3         O                -0.930239         -0.840660
   4         O                -0.794687         -0.608359
   5         O                -0.750571         -0.680670
   6         O                -0.666135         -0.565676
   7         O                -0.638443         -0.520565

 Normal termination of Gaussian 09 at Tue Dec 15 17:05:53 2015.
