 Gaussian 09, Revision D.01,
 Gaussian 09:  ES64L-G09RevD.01 24-Apr-2013

 ------------------------------------------------------------
 #P AM1(Input,print) CIS(Singlets,NStates=15) pop(full) force
 ------------------------------------------------------------

 -----------------
 AM1-Reparam Input
 -----------------
 Symbolic Z-matrix:
 Charge =  0 Multiplicity = 1

                         Standard orientation:
 ---------------------------------------------------------------------
 Center     Atomic      Atomic             Coordinates (Angstroms)
 Number     Number       Type             X           Y           Z
 ---------------------------------------------------------------------
      1          6           0       -0.743755    0.928976   -0.008493
      2          6           0       -1.092569   -0.362042   -0.008402
      3          8           0       -0.006767   -1.137432    0.000742
      4          6           0        1.131052   -0.315910   -0.016647
      5          6           0        0.702879    0.929417    0.010949
      6          1           0        1.371381    1.803845    0.032348
      7          1           0        2.052946   -0.811230    0.032611
      8          1           0       -1.994924   -0.820840    0.078009
      9          1           0       -1.360904    1.845042   -0.013350
 ---------------------------------------------------------------------

 SCF Done:  E(RAM1) =   2.85564279754     A.U. after   13 cycles

 Excitation energies and oscillator strengths:

 Excited State   1:      Singlet-A      5.1450 eV  240.98 nm  f=0.3440  <S**2>=0.000
      13 -> 14         0.69616
 This state for optimization and/or second-order correction.
 Total Energy, E(CIS) =   3.04471647687
 Copying the excited state density for this state as the 1-particle RhoCI density.

 Excited State   2:      Singlet-A      6.3444 eV  195.42 nm  f=0.0044  <S**2>=0.000
      13 -> 15         0.64938
      13 -> 17        -0.17845
      13 -> 18         0.13369
      13 -> 19         0.10276

 Excited State   3:      Singlet-A      6.5771 eV  188.51 nm  f=0.0006  <S**2>=0.000
       9 -> 14         0.10495
      12 -> 14         0.65970
      13 -> 16        -0.18955

 Excited State   4:      Singlet-A      6.6602 eV  186.16 nm  f=0.0023  <S**2>=0.000
      12 -> 14         0.21861
      13 -> 16         0.60122
      13 -> 17        -0.15035
      13 -> 18        -0.18354

 Excited State   5:      Singlet-A      7.5699 eV  163.79 nm  f=0.0011  <S**2>=0.000
      11 -> 14        -0.11465
      13 -> 15        -0.13364
      13 -> 16         0.14295
      13 -> 17        -0.15842
      13 -> 18         0.46062
      13 -> 19        -0.13917
      13 -> 20         0.16037
      13 -> 21        -0.38819

 Excited State   6:      Singlet-A      7.7051 eV  160.91 nm  f=0.0082  <S**2>=0.000
      11 -> 14         0.63730
      13 -> 16         0.11029
      13 -> 17         0.21266
      13 -> 18         0.13813

 Excited State   7:      Singlet-A      7.9218 eV  156.51 nm  f=0.0061  <S**2>=0.000
      11 -> 14        -0.26656
      13 -> 15         0.14580
      13 -> 16         0.13372
      13 -> 17         0.60027

 Excited State   8:      Singlet-A      8.4906 eV  146.03 nm  f=0.0003  <S**2>=0.000
      13 -> 16         0.13839
      13 -> 18         0.14710
      13 -> 19         0.65075

 Excited State   9:      Singlet-A      8.7170 eV  142.23 nm  f=0.0892  <S**2>=0.000
      10 -> 14         0.67303

 Excited State  10:      Singlet-A      8.8407 eV  140.24 nm  f=0.0078  <S**2>=0.000
      13 -> 18         0.42012
      13 -> 19        -0.12470
      13 -> 20        -0.28744
      13 -> 21         0.46323

 Excited State  11:      Singlet-A      9.2450 eV  134.11 nm  f=0.0752  <S**2>=0.000
      11 -> 17         0.10536
      12 -> 15        -0.17206
      12 -> 16         0.12067
      12 -> 18        -0.15406
      13 -> 20         0.53755
      13 -> 21         0.28404

 Excited State  12:      Singlet-A      9.2750 eV  133.68 nm  f=0.0327  <S**2>=0.000
      11 -> 16         0.10783
      11 -> 17        -0.20012
      12 -> 15         0.33490
      12 -> 16        -0.23093
      12 -> 18         0.29512
      12 -> 21        -0.12619
      13 -> 20         0.27614
      13 -> 21         0.15543

 Excited State  13:      Singlet-A      9.7067 eV  127.73 nm  f=0.0361  <S**2>=0.000
      10 -> 14         0.12979
      11 -> 15        -0.20541
      11 -> 17         0.10293
      12 -> 15         0.44869
      12 -> 16         0.37450
      12 -> 17        -0.11908
      12 -> 18        -0.10361
      12 -> 20        -0.13601

 Excited State  14:      Singlet-A      9.7955 eV  126.57 nm  f=0.2161  <S**2>=0.000
       9 -> 16        -0.11469
      11 -> 15         0.21577
      11 -> 16         0.22801
      11 -> 17        -0.20902
      12 -> 15        -0.19422
      12 -> 16         0.43069
      12 -> 17        -0.11108
      12 -> 18         0.12638
      12 -> 19        -0.21781

 Excited State  15:      Singlet-A      9.9299 eV  124.86 nm  f=0.0032  <S**2>=0.000
       9 -> 14         0.68206
      12 -> 14        -0.10827

 The electronic state is 1-A.
 Alpha  occ. eigenvalues --   -1.72582  -1.11792  -0.94275  -0.79456  -0.76223
 Alpha  occ. eigenvalues --   -0.66393  -0.64064  -0.55074  -0.49945  -0.43895
 Alpha  occ. eigenvalues --   -0.43405  -0.39560  -0.27909
 Alpha virt. eigenvalues --    0.11280   0.18802   0.20033   0.24905   0.26971
 Alpha virt. eigenvalues --    0.28098   0.29594   0.30065   0.36522   0.45262
 Alpha virt. eigenvalues --    0.49705

 Mulliken charges:
               1
     1  C   -0.192000
     2  C   -1.955116
     3  O    3.220747
     4  C   -1.923685
     5  C   -0.114989
     6  H    0.180171
     7  H    0.291972
     8  H    0.306624
     9  H    0.186276
 Sum of Mulliken charges =   0.00000

 Dipole moment (field-independent basis, Debye):
    X=             -0.1449    Y=            -10.2886    Z=              0.4576  Tot=             10.2998
 N-N= 1.042490615890D+02 E-N=-1.694940858129D+02  KE=-1.480129127949D+01
 Orbital energies and kinetic energies (alpha):
                                 1                 2
   1         O                -1.725819         -1.218603
   2         O                -1.117923         -0.974948
   3         O                -0.942748         -0.858721
   4         O                -0.794562         -0.599521
   5         O                -0.762232         -0.691445
   6         O                -0.663929         -0.556017
   7         O                -0.640641         -0.524983

 Normal termination of Gaussian 09 at Tue Dec 15 17:06:07 2015.
