 Gaussian 09, Revision D.01,
 Gaussian 09:  ES64L-G09RevD.01 24-Apr-2013

 ------------------------------------------------------------
 #P AM1(Input,print) CIS(Singlets,NStates=15) pop(full) force
 ------------------------------------------------------------

 -----------------
 AM1-Reparam Input
 -----------------
 Symbolic Z-matrix:
 Charge =  0 Multiplicity = 1

                         Standard orientation:
 ---------------------------------------------------------------------
 Center     Atomic      Atomic             Coordinates (Angstroms)
 Number     Number       Type             X           Y           Z
 ---------------------------------------------------------------------
      1          6           0       -1.158379    0.268987    0.024399
      2          6           0       -0.594766   -0.916088    0.019218
      3          8           0        0.769663   -0.928633   -0.014536
      4          6           0        1.047387    0.466421   -0.002715
      5          6           0       -0.099143    1.174056   -0.022885
      6          1           0       -0.130116    2.278516    0.031869
      7          1           0        2.082167    0.677807    0.071047
      8          1           0       -1.035090   -1.957870   -0.020945
      9          1           0       -2.244857    0.470356   -0.073788
 ---------------------------------------------------------------------

 SCF Done:  E(RAM1) =   1.75766729615     A.U. after   14 cycles

 Excitation energies and oscillator strengths:

 Excited State   1:      Singlet-A      5.4568 eV  227.21 nm  f=0.3039  <S**2>=0.000
      10 -> 17        -0.10573
      13 -> 14         0.68587
 This state for optimization and/or second-order correction.
 Total Energy, E(CIS) =   1.95820005104
 Copying the excited state density for this state as the 1-particle RhoCI density.

 Excited State   2:      Singlet-A      5.7165 eV  216.89 nm  f=0.0098  <S**2>=0.000
      11 -> 15         0.12761
      13 -> 15         0.67392

 Excited State   3:      Singlet-A      6.5564 eV  189.10 nm  f=0.0029  <S**2>=0.000
      11 -> 16        -0.13954
      13 -> 16         0.64919
      13 -> 17        -0.16345
      13 -> 20        -0.11333

 Excited State   4:      Singlet-A      7.2347 eV  171.37 nm  f=0.0007  <S**2>=0.000
      12 -> 14         0.67158
      13 -> 21         0.16501

 Excited State   5:      Singlet-A      7.4760 eV  165.84 nm  f=0.0211  <S**2>=0.000
      13 -> 15         0.10375
      13 -> 16         0.11266
      13 -> 17         0.63679
      13 -> 19        -0.12790
      13 -> 21        -0.16496

 Excited State   6:      Singlet-A      7.7857 eV  159.25 nm  f=0.0016  <S**2>=0.000
      12 -> 14        -0.16126
      13 -> 16         0.12503
      13 -> 17         0.19531
      13 -> 19         0.21883
      13 -> 21         0.59229

 Excited State   7:      Singlet-A      8.1245 eV  152.61 nm  f=0.0020  <S**2>=0.000
      10 -> 14         0.67259
      13 -> 18         0.13425
      13 -> 19         0.11079

 Excited State   8:      Singlet-A      8.3109 eV  149.18 nm  f=0.0022  <S**2>=0.000
      10 -> 14        -0.15506
      13 -> 18         0.62808
      13 -> 19         0.17776
      13 -> 20         0.12539
      13 -> 21        -0.11358

 Excited State   9:      Singlet-A      8.4401 eV  146.90 nm  f=0.0001  <S**2>=0.000
      13 -> 18        -0.27114
      13 -> 19         0.48825
      13 -> 20         0.33295
      13 -> 21        -0.24724

 Excited State  10:      Singlet-A      8.7115 eV  142.32 nm  f=0.0398  <S**2>=0.000
       9 -> 15        -0.13588
      11 -> 14         0.59209
      12 -> 15        -0.27803
      13 -> 22        -0.10971

 Excited State  11:      Singlet-A      8.9485 eV  138.55 nm  f=0.0960  <S**2>=0.000
      12 -> 15         0.10075
      13 -> 19        -0.33854
      13 -> 20         0.56301

 Excited State  12:      Singlet-A      9.0301 eV  137.30 nm  f=0.1212  <S**2>=0.000
       9 -> 15         0.20544
      10 -> 17        -0.16099
      11 -> 14         0.26396
      12 -> 15         0.47254
      12 -> 16        -0.17306
      12 -> 21         0.11414
      13 -> 20        -0.14601

 Excited State  13:      Singlet-A      9.2227 eV  134.43 nm  f=0.0017  <S**2>=0.000
       7 -> 15        -0.14002
      11 -> 15         0.65258
      13 -> 15        -0.14826

 Excited State  14:      Singlet-A      9.6377 eV  128.64 nm  f=0.1662  <S**2>=0.000
       8 -> 16         0.10746
      10 -> 15         0.32481
      10 -> 16         0.12704
      10 -> 17        -0.30389
      11 -> 14        -0.17066
      12 -> 15        -0.25156
      12 -> 16        -0.20370
      12 -> 18         0.20054
      12 -> 21         0.19782

 Excited State  15:      Singlet-A      9.8498 eV  125.88 nm  f=0.0640  <S**2>=0.000
       9 -> 15         0.22295
      10 -> 15         0.45720
      10 -> 19         0.19785
      11 -> 14         0.12090
      12 -> 16         0.22398
      12 -> 17         0.20102
      12 -> 18        -0.11914

 The electronic state is 1-A.
 Alpha  occ. eigenvalues --   -1.90058  -1.23528  -0.97890  -0.81056  -0.80309
 Alpha  occ. eigenvalues --   -0.67892  -0.62670  -0.52105  -0.50558  -0.41547
 Alpha  occ. eigenvalues --   -0.40762  -0.39005  -0.26245
 Alpha virt. eigenvalues --    0.14994   0.16733   0.20581   0.26294   0.28299
 Alpha virt. eigenvalues --    0.30109   0.30634   0.31977   0.34677   0.44648
 Alpha virt. eigenvalues --    0.47527

 Mulliken charges:
               1
     1  C   -0.144777
     2  C   -1.897898
     3  O    3.158167
     4  C   -1.901529
     5  C   -0.098754
     6  H    0.161978
     7  H    0.272843
     8  H    0.282852
     9  H    0.167119
 Sum of Mulliken charges =   0.00000

 Dipole moment (field-independent basis, Debye):
    X=              6.9262    Y=             -9.3197    Z=             -0.2804  Tot=             11.6149
 N-N= 1.038567522278D+02 E-N=-1.694020332039D+02  KE=-1.572361971996D+01
 Orbital energies and kinetic energies (alpha):
                                 1                 2
   1         O                -1.900579         -1.354410
   2         O                -1.235277         -1.125283
   3         O                -0.978901         -0.922587
   4         O                -0.810556         -0.646357
   5         O                -0.803092         -0.665689
   6         O                -0.678922         -0.586931
   7         O                -0.626702         -0.520093

 Normal termination of Gaussian 09 at Tue Dec 15 17:07:01 2015.
