 Gaussian 09, Revision D.01,
 Gaussian 09:  ES64L-G09RevD.01 24-Apr-2013

 ------------------------------------------------------------
 #P AM1(Input,print) CIS(Singlets,NStates=15) pop(full) force
 ------------------------------------------------------------

 -----------------
 AM1-Reparam Input
 -----------------
 Symbolic Z-matrix:
 Charge =  0 Multiplicity = 1

                         Standard orientation:
 ---------------------------------------------------------------------
 Center     Atomic      Atomic             Coordinates (Angstroms)
 Number     Number       Type             X           Y           Z
 ---------------------------------------------------------------------
      1          6           0        0.906798    0.776835   -0.013504
      2          6           0        1.034385   -0.574751    0.020855
      3          8           0       -0.305036   -1.109669   -0.002194
      4          6           0       -1.147473   -0.105361   -0.002074
      5          6           0       -0.458687    1.060529   -0.015200
      6          1           0       -0.909003    2.133576    0.071905
      7          1           0       -2.221451   -0.316488    0.014679
      8          1           0        1.834847   -1.276483   -0.028184
      9          1           0        1.725766    1.393239    0.018693
 ---------------------------------------------------------------------

 SCF Done:  E(RAM1) =  -7.09075651421     A.U. after   14 cycles

 Excitation energies and oscillator strengths:

 Excited State   1:      Singlet-A      7.5337 eV  164.57 nm  f=0.0810  <S**2>=0.000
      12 -> 14        -0.14769
      13 -> 14         0.47436
      13 -> 15         0.43504
      13 -> 16         0.16126
 This state for optimization and/or second-order correction.
 Total Energy, E(CIS) =  -6.81389719112
 Copying the excited state density for this state as the 1-particle RhoCI density.

 Excited State   2:      Singlet-A      7.5757 eV  163.66 nm  f=0.0886  <S**2>=0.000
      12 -> 14         0.24994
      13 -> 14        -0.39456
      13 -> 15         0.48727

 Excited State   3:      Singlet-A      7.9342 eV  156.26 nm  f=0.0533  <S**2>=0.000
      12 -> 14         0.62878
      13 -> 14         0.25998

 Excited State   4:      Singlet-A      8.4289 eV  147.09 nm  f=0.0062  <S**2>=0.000
      11 -> 14        -0.46530
      13 -> 15        -0.14235
      13 -> 16         0.48101

 Excited State   5:      Singlet-A      8.4994 eV  145.87 nm  f=0.0072  <S**2>=0.000
      11 -> 14         0.51411
      13 -> 15        -0.10237
      13 -> 16         0.44332

 Excited State   6:      Singlet-A      9.2617 eV  133.87 nm  f=0.0001  <S**2>=0.000
      11 -> 15        -0.17576
      12 -> 15         0.63182
      12 -> 16         0.10682
      12 -> 18         0.16568

 Excited State   7:      Singlet-A      9.6612 eV  128.33 nm  f=0.0241  <S**2>=0.000
      13 -> 17         0.67454

 Excited State   8:      Singlet-A      9.8642 eV  125.69 nm  f=0.0274  <S**2>=0.000
       8 -> 15         0.16200
       9 -> 15        -0.13831
      11 -> 15         0.42861
      11 -> 16         0.21272
      11 -> 17        -0.18549
      12 -> 15         0.16994
      12 -> 16        -0.23845
      12 -> 17         0.13927
      12 -> 21         0.11821
      13 -> 14        -0.11651

 Excited State   9:      Singlet-A      9.9879 eV  124.13 nm  f=0.0459  <S**2>=0.000
      10 -> 15         0.13695
      10 -> 16        -0.11601
      13 -> 15        -0.10208
      13 -> 18         0.65327

 Excited State  10:      Singlet-A     10.1077 eV  122.66 nm  f=0.0888  <S**2>=0.000
       8 -> 16        -0.10628
       9 -> 15        -0.11524
      10 -> 14         0.38330
      12 -> 16         0.24936
      12 -> 17         0.23953
      13 -> 19         0.35836

 Excited State  11:      Singlet-A     10.2975 eV  120.40 nm  f=0.1542  <S**2>=0.000
       8 -> 15        -0.11525
       9 -> 15         0.10827
      10 -> 14        -0.24997
      11 -> 15         0.11071
      11 -> 16         0.27886
      11 -> 17        -0.10653
      12 -> 16         0.44152
      12 -> 18         0.21582
      12 -> 21        -0.11214
      13 -> 19        -0.14964

 Excited State  12:      Singlet-A     10.4036 eV  119.17 nm  f=0.1726  <S**2>=0.000
      11 -> 15        -0.15733
      11 -> 16        -0.26693
      11 -> 17        -0.10694
      11 -> 18        -0.10539
      12 -> 16        -0.11256
      12 -> 17         0.41798
      12 -> 18         0.26806
      13 -> 19        -0.24111

 Excited State  13:      Singlet-A     10.6099 eV  116.86 nm  f=0.0228  <S**2>=0.000
      10 -> 15         0.54014
      10 -> 16         0.19017
      13 -> 18        -0.12984
      13 -> 21         0.28789
      13 -> 22         0.12513

 Excited State  14:      Singlet-A     10.8011 eV  114.79 nm  f=0.0133  <S**2>=0.000
      13 -> 19        -0.11220
      13 -> 20         0.59616
      13 -> 21        -0.27044
      13 -> 22        -0.10619

 Excited State  15:      Singlet-A     10.8556 eV  114.21 nm  f=0.0734  <S**2>=0.000
       8 -> 15        -0.11802
       8 -> 16         0.11209
       9 -> 15         0.15651
      11 -> 17        -0.14687
      11 -> 18         0.11401
      11 -> 20        -0.30628
      12 -> 16        -0.10527
      12 -> 17        -0.13417
      12 -> 18         0.25532
      12 -> 20        -0.14656
      13 -> 19         0.35699
      13 -> 20         0.19118

 The electronic state is 1-A.
 Alpha  occ. eigenvalues --   -4.55608  -1.35823  -1.02635  -0.98420  -0.97823
 Alpha  occ. eigenvalues --   -0.90315  -0.77054  -0.59291  -0.56197  -0.53598
 Alpha  occ. eigenvalues --   -0.48646  -0.46190  -0.40444
 Alpha virt. eigenvalues --    0.10402   0.10863   0.14553   0.18838   0.20102
 Alpha virt. eigenvalues --    0.21710   0.23192   0.28802   0.30321   0.34170
 Alpha virt. eigenvalues --    0.40564

 Mulliken charges:
               1
     1  C   -0.220508
     2  C   -1.363032
     3  O    2.468140
     4  C   -1.369881
     5  C   -0.276285
     6  H    0.154171
     7  H    0.232577
     8  H    0.210823
     9  H    0.163996
 Sum of Mulliken charges =   0.00000

 Dipole moment (field-independent basis, Debye):
    X=             -3.0199    Y=             -8.9658    Z=             -0.0691  Tot=              9.4610
 N-N= 1.046197523215D+02 E-N=-1.708596237922D+02  KE=-2.532051489377D+01
 Orbital energies and kinetic energies (alpha):
                                 1                 2
   1         O                -4.556083         -3.899758
   2         O                -1.358232         -1.284401
   3         O                -1.026346         -0.950641
   4         O                -0.984205         -1.003967
   5         O                -0.978228         -0.924735
   6         O                -0.903155         -0.896466
   7         O                -0.770537         -0.712631

 Normal termination of Gaussian 09 at Fri Dec 11 13:41:24 2015.
