 Gaussian 09, Revision D.01,
 Gaussian 09:  ES64L-G09RevD.01 24-Apr-2013

 ------------------------------------------------------------
 #P AM1(Input,print) CIS(Singlets,NStates=15) pop(full) force
 ------------------------------------------------------------

 -----------------
 AM1-Reparam Input
 -----------------
 Symbolic Z-matrix:
 Charge =  0 Multiplicity = 1

                         Standard orientation:
 ---------------------------------------------------------------------
 Center     Atomic      Atomic             Coordinates (Angstroms)
 Number     Number       Type             X           Y           Z
 ---------------------------------------------------------------------
      1          6           0       -0.873396    0.885094    0.037995
      2          6           0       -1.056651   -0.514862   -0.031016
      3          8           0        0.187870   -1.157394    0.029963
      4          6           0        1.139993   -0.180627   -0.018536
      5          6           0        0.583327    1.030721   -0.014062
      6          1           0        1.102784    1.990162    0.006108
      7          1           0        2.125937   -0.480355   -0.009790
      8          1           0       -1.858154   -1.182478   -0.058149
      9          1           0       -1.633164    1.609865   -0.024166
 ---------------------------------------------------------------------

 SCF Done:  E(RAM1) =   1.40299266577     A.U. after   13 cycles

 Excitation energies and oscillator strengths:

 Excited State   1:      Singlet-A      5.8198 eV  213.04 nm  f=0.3165  <S**2>=0.000
      13 -> 14         0.69202
 This state for optimization and/or second-order correction.
 Total Energy, E(CIS) =   1.61686455387
 Copying the excited state density for this state as the 1-particle RhoCI density.

 Excited State   2:      Singlet-A      6.3627 eV  194.86 nm  f=0.0011  <S**2>=0.000
      13 -> 15         0.66130
      13 -> 17        -0.16903

 Excited State   3:      Singlet-A      6.6831 eV  185.52 nm  f=0.0012  <S**2>=0.000
      12 -> 15        -0.11096
      13 -> 16         0.63445
      13 -> 17        -0.13987
      13 -> 20         0.11324
      13 -> 21         0.13808
      13 -> 22        -0.11041

 Excited State   4:      Singlet-A      7.3268 eV  169.22 nm  f=0.0020  <S**2>=0.000
      11 -> 14         0.66492
      12 -> 14        -0.18892

 Excited State   5:      Singlet-A      7.6516 eV  162.04 nm  f=0.0072  <S**2>=0.000
      12 -> 16        -0.12042
      13 -> 15         0.12674
      13 -> 16         0.16034
      13 -> 17         0.62374
      13 -> 22         0.18542

 Excited State   6:      Singlet-A      8.0043 eV  154.90 nm  f=0.0024  <S**2>=0.000
      12 -> 15        -0.14164
      13 -> 17        -0.18239
      13 -> 19        -0.31124
      13 -> 21        -0.12411
      13 -> 22         0.54745

 Excited State   7:      Singlet-A      8.1589 eV  151.96 nm  f=0.0069  <S**2>=0.000
      11 -> 14         0.15265
      12 -> 14         0.49969
      13 -> 18         0.45622

 Excited State   8:      Singlet-A      8.4163 eV  147.31 nm  f=0.0010  <S**2>=0.000
      10 -> 14         0.68627

 Excited State   9:      Singlet-A      8.5882 eV  144.37 nm  f=0.0053  <S**2>=0.000
      12 -> 16        -0.10824
      13 -> 19         0.50481
      13 -> 20        -0.27297
      13 -> 21        -0.33623
      13 -> 22         0.11822

 Excited State  10:      Singlet-A      8.7393 eV  141.87 nm  f=0.0040  <S**2>=0.000
      13 -> 16        -0.10071
      13 -> 19         0.35940
      13 -> 20         0.34640
      13 -> 21         0.33678
      13 -> 22         0.31988

 Excited State  11:      Singlet-A      8.9785 eV  138.09 nm  f=0.1919  <S**2>=0.000
      11 -> 14        -0.10387
      12 -> 14        -0.37590
      13 -> 18         0.44261
      13 -> 20         0.17986
      13 -> 21        -0.27076

 Excited State  12:      Singlet-A      9.1179 eV  135.98 nm  f=0.1172  <S**2>=0.000
      12 -> 14         0.21947
      12 -> 15        -0.20923
      12 -> 16         0.13446
      13 -> 18        -0.25418
      13 -> 20         0.43625
      13 -> 21        -0.30370

 Excited State  13:      Singlet-A      9.2879 eV  133.49 nm  f=0.0046  <S**2>=0.000
      12 -> 15         0.55178
      12 -> 16         0.20513
      12 -> 17        -0.12726
      13 -> 16         0.17614
      13 -> 21        -0.20981
      13 -> 22         0.10227

 Excited State  14:      Singlet-A      9.6870 eV  127.99 nm  f=0.0078  <S**2>=0.000
      12 -> 15        -0.17425
      12 -> 16         0.56894
      13 -> 15         0.13155
      13 -> 16         0.10011
      13 -> 20        -0.21775
      13 -> 21         0.10928
      13 -> 23         0.13824

 Excited State  15:      Singlet-A      9.8416 eV  125.98 nm  f=0.0773  <S**2>=0.000
       8 -> 15        -0.19775
      10 -> 15         0.11804
      10 -> 17        -0.17805
      11 -> 15         0.37686
      11 -> 16        -0.33918
      11 -> 17         0.16541
      11 -> 19        -0.19052
      11 -> 22         0.12785
      12 -> 18         0.10799

 The electronic state is 1-A.
 Alpha  occ. eigenvalues --   -1.88063  -1.17112  -0.95799  -0.78539  -0.77495
 Alpha  occ. eigenvalues --   -0.67721  -0.60701  -0.50054  -0.48194  -0.41113
 Alpha  occ. eigenvalues --   -0.37851  -0.36688  -0.24379
 Alpha virt. eigenvalues --    0.16932   0.22082   0.23610   0.28833   0.29049
 Alpha virt. eigenvalues --    0.31177   0.33178   0.33827   0.34798   0.39672
 Alpha virt. eigenvalues --    0.44799

 Mulliken charges:
               1
     1  C   -0.068079
     2  C   -1.541726
     3  O    2.774783
     4  C   -1.535330
     5  C   -0.061103
     6  H    0.060363
     7  H    0.162186
     8  H    0.140676
     9  H    0.068230
 Sum of Mulliken charges =   0.00000

 Dipole moment (field-independent basis, Debye):
    X=              1.9964    Y=             -9.5637    Z=              0.5887  Tot=              9.7876
 N-N= 1.030820298304D+02 E-N=-1.690673239416D+02  KE=-1.581657588573D+01
 Orbital energies and kinetic energies (alpha):
                                 1                 2
   1         O                -1.880626         -1.361121
   2         O                -1.171124         -1.062782
   3         O                -0.957992         -0.879955
   4         O                -0.785387         -0.640730
   5         O                -0.774947         -0.703599
   6         O                -0.677208         -0.622163
   7         O                -0.607013         -0.532048

 Normal termination of Gaussian 09 at Tue Dec 15 17:08:07 2015.
