 Gaussian 09, Revision D.01,
 Gaussian 09:  ES64L-G09RevD.01 24-Apr-2013

 ------------------------------------------------------------
 #P AM1(Input,print) CIS(Singlets,NStates=15) pop(full) force
 ------------------------------------------------------------

 -----------------
 AM1-Reparam Input
 -----------------
 Symbolic Z-matrix:
 Charge =  0 Multiplicity = 1

                         Standard orientation:
 ---------------------------------------------------------------------
 Center     Atomic      Atomic             Coordinates (Angstroms)
 Number     Number       Type             X           Y           Z
 ---------------------------------------------------------------------
      1          6           0        0.962296    0.749562    0.007155
      2          6           0        0.974707   -0.643081   -0.023719
      3          8           0       -0.345927   -1.140192    0.028641
      4          6           0       -1.173187   -0.023624   -0.018379
      5          6           0       -0.399275    1.114596   -0.003523
      6          1           0       -0.804527    2.105082    0.016803
      7          1           0       -2.203463   -0.163177   -0.018833
      8          1           0        1.747143   -1.331401   -0.043330
      9          1           0        1.841019    1.326315    0.047029
 ---------------------------------------------------------------------

 SCF Done:  E(RAM1) =   2.52727636434     A.U. after   13 cycles

 Excitation energies and oscillator strengths:

 Excited State   1:      Singlet-A      5.4616 eV  227.01 nm  f=0.3339  <S**2>=0.000
      13 -> 14         0.69388
 This state for optimization and/or second-order correction.
 Total Energy, E(CIS) =   2.72798649373
 Copying the excited state density for this state as the 1-particle RhoCI density.

 Excited State   2:      Singlet-A      6.6821 eV  185.55 nm  f=0.0058  <S**2>=0.000
      13 -> 15         0.62820
      13 -> 16         0.20858
      13 -> 17         0.20187

 Excited State   3:      Singlet-A      6.9137 eV  179.33 nm  f=0.0002  <S**2>=0.000
      11 -> 15        -0.11691
      13 -> 15        -0.20740
      13 -> 16         0.62041
      13 -> 18        -0.12291
      13 -> 19         0.17647

 Excited State   4:      Singlet-A      7.0964 eV  174.71 nm  f=0.0002  <S**2>=0.000
       9 -> 14         0.11240
      12 -> 14         0.69407

 Excited State   5:      Singlet-A      7.8526 eV  157.89 nm  f=0.0048  <S**2>=0.000
      10 -> 14         0.65419
      11 -> 14        -0.24165

 Excited State   6:      Singlet-A      8.1973 eV  151.25 nm  f=0.0001  <S**2>=0.000
      13 -> 16         0.11153
      13 -> 17        -0.20158
      13 -> 18         0.54678
      13 -> 21        -0.35332

 Excited State   7:      Singlet-A      8.5532 eV  144.96 nm  f=0.0096  <S**2>=0.000
      11 -> 16         0.14631
      13 -> 15        -0.15450
      13 -> 17         0.62073
      13 -> 18         0.18409

 Excited State   8:      Singlet-A      8.7440 eV  141.79 nm  f=0.1077  <S**2>=0.000
      10 -> 14         0.23937
      11 -> 14         0.65220

 Excited State   9:      Singlet-A      9.1232 eV  135.90 nm  f=0.0003  <S**2>=0.000
      11 -> 15         0.14002
      13 -> 16        -0.12034
      13 -> 19         0.65237

 Excited State  10:      Singlet-A      9.5681 eV  129.58 nm  f=0.0240  <S**2>=0.000
       8 -> 15         0.11984
       9 -> 16        -0.14520
       9 -> 19        -0.10682
      10 -> 15         0.32477
      10 -> 17         0.25270
      12 -> 16        -0.29313
      12 -> 17        -0.13995
      12 -> 18         0.29416

 Excited State  11:      Singlet-A      9.6596 eV  128.35 nm  f=0.0009  <S**2>=0.000
      13 -> 18         0.36820
      13 -> 19        -0.11430
      13 -> 20        -0.10028
      13 -> 21         0.56990

 Excited State  12:      Singlet-A      9.9746 eV  124.30 nm  f=0.1026  <S**2>=0.000
      10 -> 15        -0.10737
      11 -> 15         0.11478
      12 -> 15         0.57614
      12 -> 16        -0.23471
      12 -> 17         0.14610
      12 -> 19        -0.11688

 Excited State  13:      Singlet-A     10.0566 eV  123.29 nm  f=0.1030  <S**2>=0.000
      11 -> 15         0.13957
      11 -> 16        -0.13229
      13 -> 20         0.65723

 Excited State  14:      Singlet-A     10.1239 eV  122.47 nm  f=0.0303  <S**2>=0.000
      11 -> 15         0.52735
      11 -> 16         0.23016
      12 -> 15        -0.13064
      12 -> 16        -0.18989
      13 -> 16         0.15108
      13 -> 19        -0.10674

 Excited State  15:      Singlet-A     10.2590 eV  120.85 nm  f=0.0830  <S**2>=0.000
       9 -> 14         0.41667
      10 -> 15        -0.20300
      10 -> 16        -0.21536
      11 -> 15        -0.13714
      11 -> 16         0.10688
      12 -> 15        -0.12521
      12 -> 16        -0.35418

 The electronic state is 1-A.
 Alpha  occ. eigenvalues --   -1.70837  -1.15274  -0.94386  -0.79945  -0.76891
 Alpha  occ. eigenvalues --   -0.67697  -0.62700  -0.54840  -0.50445  -0.43647
 Alpha  occ. eigenvalues --   -0.42905  -0.41201  -0.29071
 Alpha virt. eigenvalues --    0.11856   0.19210   0.19973   0.25953   0.28114
 Alpha virt. eigenvalues --    0.29401   0.31678   0.32494   0.37294   0.46707
 Alpha virt. eigenvalues --    0.50896

 Mulliken charges:
               1
     1  C   -0.041207
     2  C   -1.936085
     3  O    3.234326
     4  C   -1.933574
     5  C   -0.065108
     6  H    0.117346
     7  H    0.257655
     8  H    0.250319
     9  H    0.116329
 Sum of Mulliken charges =   0.00000

 Dipole moment (field-independent basis, Debye):
    X=             -3.2254    Y=            -10.4198    Z=              0.6856  Tot=             10.9291
 N-N= 1.031215795117D+02 E-N=-1.675906184070D+02  KE=-1.500119268578D+01
 Orbital energies and kinetic energies (alpha):
                                 1                 2
   1         O                -1.708373         -1.188184
   2         O                -1.152735         -1.016945
   3         O                -0.943862         -0.877326
   4         O                -0.799454         -0.608612
   5         O                -0.768909         -0.689692
   6         O                -0.676972         -0.577015
   7         O                -0.627005         -0.514745

 Normal termination of Gaussian 09 at Tue Dec 15 17:06:26 2015.
