 Gaussian 09, Revision D.01,
 Gaussian 09:  ES64L-G09RevD.01 24-Apr-2013

 ------------------------------------------------------------
 #P AM1(Input,print) CIS(Singlets,NStates=15) pop(full) force
 ------------------------------------------------------------

 -----------------
 AM1-Reparam Input
 -----------------
 Symbolic Z-matrix:
 Charge =  0 Multiplicity = 1

                         Standard orientation:
 ---------------------------------------------------------------------
 Center     Atomic      Atomic             Coordinates (Angstroms)
 Number     Number       Type             X           Y           Z
 ---------------------------------------------------------------------
      1          6           0       -0.649419    0.961871   -0.002631
      2          6           0       -1.095568   -0.246318    0.001723
      3          8           0       -0.104229   -1.154401    0.000617
      4          6           0        1.085947   -0.418762   -0.000511
      5          6           0        0.768999    0.916622    0.000003
      6          1           0        1.440928    1.691179    0.031100
      7          1           0        2.021488   -0.928274   -0.019471
      8          1           0       -2.054341   -0.701881    0.012815
      9          1           0       -1.233998    1.893702   -0.020884
 ---------------------------------------------------------------------

 SCF Done:  E(RAM1) =   2.87065576012     A.U. after   13 cycles

 Excitation energies and oscillator strengths:

 Excited State   1:      Singlet-A      5.2787 eV  234.88 nm  f=0.3356  <S**2>=0.000
      13 -> 14         0.69535
 This state for optimization and/or second-order correction.
 Total Energy, E(CIS) =   3.06464357180
 Copying the excited state density for this state as the 1-particle RhoCI density.

 Excited State   2:      Singlet-A      6.2116 eV  199.60 nm  f=0.0011  <S**2>=0.000
      11 -> 15         0.11182
      13 -> 15         0.66716
      13 -> 17         0.12082
      13 -> 18         0.13969

 Excited State   3:      Singlet-A      6.6911 eV  185.30 nm  f=0.0041  <S**2>=0.000
      11 -> 16        -0.10078
      13 -> 16         0.63312
      13 -> 17         0.19588
      13 -> 18        -0.15722

 Excited State   4:      Singlet-A      6.7429 eV  183.87 nm  f=0.0003  <S**2>=0.000
       9 -> 14        -0.10475
      12 -> 14         0.69257

 Excited State   5:      Singlet-A      7.7656 eV  159.66 nm  f=0.0005  <S**2>=0.000
      13 -> 16         0.14783
      13 -> 18         0.49106
      13 -> 19         0.17165
      13 -> 20         0.21387
      13 -> 21        -0.35208

 Excited State   6:      Singlet-A      7.7775 eV  159.41 nm  f=0.0141  <S**2>=0.000
      10 -> 14         0.56300
      11 -> 14        -0.20942
      13 -> 17        -0.30988
      13 -> 18        -0.12426

 Excited State   7:      Singlet-A      7.9418 eV  156.12 nm  f=0.0063  <S**2>=0.000
      10 -> 14         0.32419
      11 -> 14        -0.12259
      13 -> 15        -0.10752
      13 -> 16        -0.11067
      13 -> 17         0.56644
      13 -> 19        -0.10572

 Excited State   8:      Singlet-A      8.6101 eV  144.00 nm  f=0.0024  <S**2>=0.000
      13 -> 16        -0.14910
      13 -> 17         0.11883
      13 -> 18        -0.24937
      13 -> 19         0.58850
      13 -> 20         0.15549

 Excited State   9:      Singlet-A      8.6706 eV  142.99 nm  f=0.0734  <S**2>=0.000
      10 -> 14         0.23198
      11 -> 14         0.61854
      12 -> 15         0.17920

 Excited State  10:      Singlet-A      9.0706 eV  136.69 nm  f=0.0153  <S**2>=0.000
      13 -> 18         0.34698
      13 -> 19         0.29484
      13 -> 20        -0.29468
      13 -> 21         0.44007

 Excited State  11:      Singlet-A      9.1676 eV  135.24 nm  f=0.1149  <S**2>=0.000
       8 -> 15        -0.13056
      10 -> 17        -0.14001
      11 -> 14        -0.16568
      12 -> 15         0.53599
      12 -> 16        -0.19695
      12 -> 18         0.23549

 Excited State  12:      Singlet-A      9.4998 eV  130.51 nm  f=0.0680  <S**2>=0.000
      10 -> 15         0.11648
      12 -> 15         0.14049
      13 -> 20         0.52098
      13 -> 21         0.35697

 Excited State  13:      Singlet-A      9.5177 eV  130.27 nm  f=0.0422  <S**2>=0.000
       9 -> 15         0.15112
      10 -> 15         0.21367
      10 -> 17         0.20523
      12 -> 15         0.30558
      12 -> 16         0.22169
      12 -> 17         0.19464
      12 -> 18        -0.16679
      12 -> 19        -0.11817
      12 -> 20        -0.11560
      13 -> 20        -0.22829
      13 -> 21        -0.16418

 Excited State  14:      Singlet-A      9.9557 eV  124.54 nm  f=0.0039  <S**2>=0.000
       7 -> 15        -0.14459
      10 -> 15         0.18853
      11 -> 15         0.60047
      11 -> 16         0.15320
      11 -> 17         0.10903
      13 -> 15        -0.13729

 Excited State  15:      Singlet-A     10.0612 eV  123.23 nm  f=0.1736  <S**2>=0.000
      10 -> 16        -0.28855
      10 -> 17        -0.15913
      11 -> 16         0.15416
      12 -> 16         0.49955
      12 -> 19         0.22294

 The electronic state is 1-A.
 Alpha  occ. eigenvalues --   -1.71976  -1.13010  -0.93198  -0.79320  -0.75418
 Alpha  occ. eigenvalues --   -0.66712  -0.64077  -0.53479  -0.49749  -0.43085
 Alpha  occ. eigenvalues --   -0.42843  -0.39512  -0.27846
 Alpha virt. eigenvalues --    0.12189   0.17543   0.20518   0.25471   0.27729
 Alpha virt. eigenvalues --    0.28928   0.30763   0.31429   0.36486   0.45712
 Alpha virt. eigenvalues --    0.49338

 Mulliken charges:
               1
     1  C   -0.154416
     2  C   -1.913282
     3  O    3.209554
     4  C   -1.958557
     5  C   -0.130110
     6  H    0.175397
     7  H    0.301291
     8  H    0.291095
     9  H    0.179028
 Sum of Mulliken charges =   0.00000

 Dipole moment (field-independent basis, Debye):
    X=             -1.4675    Y=            -10.6355    Z=             -0.0056  Tot=             10.7363
 N-N= 1.043478501261D+02 E-N=-1.697315412304D+02  KE=-1.481835370014D+01
 Orbital energies and kinetic energies (alpha):
                                 1                 2
   1         O                -1.719763         -1.213499
   2         O                -1.130102         -0.995715
   3         O                -0.931977         -0.859985
   4         O                -0.793203         -0.596006
   5         O                -0.754183         -0.679998
   6         O                -0.667115         -0.567779
   7         O                -0.640771         -0.527264

 Normal termination of Gaussian 09 at Tue Dec 15 17:05:52 2015.
