 Gaussian 09, Revision D.01,
 Gaussian 09:  ES64L-G09RevD.01 24-Apr-2013

 ------------------------------------------------------------
 #P AM1(Input,print) CIS(Singlets,NStates=15) pop(full) force
 ------------------------------------------------------------

 -----------------
 AM1-Reparam Input
 -----------------
 Symbolic Z-matrix:
 Charge =  0 Multiplicity = 1

                         Standard orientation:
 ---------------------------------------------------------------------
 Center     Atomic      Atomic             Coordinates (Angstroms)
 Number     Number       Type             X           Y           Z
 ---------------------------------------------------------------------
      1          6           0       -0.649209    0.952741   -0.010527
      2          6           0       -1.125689   -0.286260   -0.018166
      3          8           0       -0.016815   -1.185070    0.020537
      4          6           0        1.071734   -0.378041   -0.018015
      5          6           0        0.715134    0.952553    0.003449
      6          1           0        1.405952    1.806359    0.024339
      7          1           0        1.996069   -0.867944    0.000200
      8          1           0       -2.049384   -0.749091    0.004314
      9          1           0       -1.289940    1.845278    0.066410
 ---------------------------------------------------------------------

 SCF Done:  E(RAM1) =   1.41469652355     A.U. after   13 cycles

 Excitation energies and oscillator strengths:

 Excited State   1:      Singlet-A      6.2390 eV  198.72 nm  f=0.2784  <S**2>=0.000
      13 -> 14         0.68562
 This state for optimization and/or second-order correction.
 Total Energy, E(CIS) =   1.64397545828
 Copying the excited state density for this state as the 1-particle RhoCI density.

 Excited State   2:      Singlet-A      6.4350 eV  192.67 nm  f=0.0059  <S**2>=0.000
      12 -> 15        -0.12309
      13 -> 15         0.64585
      13 -> 17        -0.18258
      13 -> 20         0.10014

 Excited State   3:      Singlet-A      6.9386 eV  178.69 nm  f=0.0000  <S**2>=0.000
      12 -> 15         0.11140
      12 -> 16         0.13915
      13 -> 16         0.64862
      13 -> 21         0.11939

 Excited State   4:      Singlet-A      7.6614 eV  161.83 nm  f=0.0035  <S**2>=0.000
      11 -> 14         0.62018
      12 -> 14         0.16731
      13 -> 17         0.24396

 Excited State   5:      Singlet-A      7.7279 eV  160.44 nm  f=0.0073  <S**2>=0.000
      10 -> 14        -0.11659
      11 -> 14        -0.23856
      13 -> 15         0.15085
      13 -> 17         0.59761
      13 -> 18        -0.10923

 Excited State   6:      Singlet-A      8.2437 eV  150.40 nm  f=0.0001  <S**2>=0.000
      12 -> 15         0.11651
      13 -> 19         0.54923
      13 -> 22        -0.39411

 Excited State   7:      Singlet-A      8.2961 eV  149.45 nm  f=0.0012  <S**2>=0.000
      10 -> 14        -0.26831
      12 -> 14         0.41777
      13 -> 18         0.47777

 Excited State   8:      Singlet-A      8.4022 eV  147.56 nm  f=0.0043  <S**2>=0.000
      10 -> 14         0.61701
      11 -> 14        -0.11233
      13 -> 17         0.13226
      13 -> 18         0.25082

 Excited State   9:      Singlet-A      8.8422 eV  140.22 nm  f=0.0065  <S**2>=0.000
      12 -> 15         0.35753
      13 -> 19        -0.15254
      13 -> 20         0.46927
      13 -> 21        -0.25550
      13 -> 22        -0.17527

 Excited State  10:      Singlet-A      8.9650 eV  138.30 nm  f=0.0076  <S**2>=0.000
      10 -> 14         0.10812
      12 -> 15        -0.12978
      13 -> 19         0.38313
      13 -> 20         0.30472
      13 -> 21        -0.16245
      13 -> 22         0.40826

 Excited State  11:      Singlet-A      9.1398 eV  135.65 nm  f=0.0934  <S**2>=0.000
      12 -> 14         0.35062
      12 -> 15        -0.30214
      12 -> 16         0.11631
      13 -> 15        -0.10369
      13 -> 18        -0.27846
      13 -> 21        -0.28794
      13 -> 22        -0.17657

 Excited State  12:      Singlet-A      9.1820 eV  135.03 nm  f=0.1033  <S**2>=0.000
      10 -> 14         0.10172
      11 -> 15        -0.12110
      11 -> 17         0.11113
      12 -> 14         0.35298
      12 -> 15         0.32137
      13 -> 15         0.10520
      13 -> 18        -0.28734
      13 -> 21         0.19897
      13 -> 22         0.20441

 Excited State  13:      Singlet-A      9.3838 eV  132.13 nm  f=0.0393  <S**2>=0.000
      12 -> 15        -0.22127
      12 -> 16        -0.22163
      13 -> 20         0.34732
      13 -> 21         0.45771
      13 -> 22        -0.17452
      13 -> 23         0.10978

 Excited State  14:      Singlet-A      9.6881 eV  127.98 nm  f=0.0722  <S**2>=0.000
       8 -> 15        -0.11350
       9 -> 15         0.15669
      10 -> 16        -0.18096
      10 -> 17         0.28318
      10 -> 19         0.14839
      11 -> 15         0.29479
      11 -> 16        -0.14206
      11 -> 17        -0.23042
      11 -> 19         0.22677
      12 -> 14         0.12768
      12 -> 17        -0.10776
      13 -> 18        -0.10032

 Excited State  15:      Singlet-A      9.8896 eV  125.37 nm  f=0.0116  <S**2>=0.000
      12 -> 16         0.55199
      12 -> 21         0.12750
      13 -> 16        -0.16401
      13 -> 20         0.17725
      13 -> 21         0.20763
      13 -> 23        -0.14534

 The electronic state is 1-A.
 Alpha  occ. eigenvalues --   -1.88234  -1.20624  -0.95579  -0.79032  -0.77582
 Alpha  occ. eigenvalues --   -0.67467  -0.61585  -0.49711  -0.47712  -0.39309
 Alpha  occ. eigenvalues --   -0.37293  -0.36264  -0.24877
 Alpha virt. eigenvalues --    0.19070   0.22066   0.24397   0.28484   0.28795
 Alpha virt. eigenvalues --    0.30830   0.33487   0.35073   0.36999   0.39810
 Alpha virt. eigenvalues --    0.44267

 Mulliken charges:
               1
     1  C   -0.010192
     2  C   -1.521611
     3  O    2.766120
     4  C   -1.554189
     5  C   -0.089488
     6  H    0.061630
     7  H    0.155725
     8  H    0.139541
     9  H    0.052463
 Sum of Mulliken charges =   0.00000

 Dipole moment (field-independent basis, Debye):
    X=              0.0255    Y=             -9.9919    Z=              0.5369  Tot=             10.0063
 N-N= 1.036889593440D+02 E-N=-1.701581567867D+02  KE=-1.588497960474D+01
 Orbital energies and kinetic energies (alpha):
                                 1                 2
   1         O                -1.882338         -1.366032
   2         O                -1.206239         -1.093509
   3         O                -0.955788         -0.889659
   4         O                -0.790322         -0.696605
   5         O                -0.775821         -0.638564
   6         O                -0.674674         -0.629211
   7         O                -0.615851         -0.548977

 Normal termination of Gaussian 09 at Tue Dec 15 17:08:04 2015.
