 Gaussian 09, Revision D.01,
 Gaussian 09:  ES64L-G09RevD.01 24-Apr-2013

 ------------------------------------------------------------
 #P AM1(Input,print) CIS(Singlets,NStates=15) pop(full) force
 ------------------------------------------------------------

 -----------------
 AM1-Reparam Input
 -----------------
 Symbolic Z-matrix:
 Charge =  0 Multiplicity = 1

                         Standard orientation:
 ---------------------------------------------------------------------
 Center     Atomic      Atomic             Coordinates (Angstroms)
 Number     Number       Type             X           Y           Z
 ---------------------------------------------------------------------
      1          6           0       -0.197900    1.156390    0.043568
      2          6           0       -1.108520    0.162563   -0.029677
      3          8           0       -0.565897   -1.014703   -0.009038
      4          6           0        0.806026   -0.773399    0.040957
      5          6           0        1.094403    0.493035   -0.035791
      6          1           0        2.056486    1.014981   -0.046533
      7          1           0        1.469283   -1.654014   -0.007324
      8          1           0       -2.224715    0.233390    0.020765
      9          1           0       -0.337938    2.291729   -0.008945
 ---------------------------------------------------------------------

 SCF Done:  E(RAM1) =  0.349587950687E-01 A.U. after   14 cycles

 Excitation energies and oscillator strengths:

 Excited State   1:      Singlet-A      4.6110 eV  268.89 nm  f=0.0778  <S**2>=0.000
      12 -> 15         0.19527
      13 -> 14         0.66900
 This state for optimization and/or second-order correction.
 Total Energy, E(CIS) =  0.204409835066
 Copying the excited state density for this state as the 1-particle RhoCI density.

 Excited State   2:      Singlet-A      4.9670 eV  249.62 nm  f=0.0043  <S**2>=0.000
      12 -> 14        -0.13482
      13 -> 15         0.33041
      13 -> 16         0.58182

 Excited State   3:      Singlet-A      5.2583 eV  235.79 nm  f=0.0120  <S**2>=0.000
      12 -> 14        -0.35239
      13 -> 15         0.49373
      13 -> 16        -0.34702

 Excited State   4:      Singlet-A      5.8835 eV  210.73 nm  f=0.0003  <S**2>=0.000
      12 -> 18         0.12941
      12 -> 22         0.11594
      13 -> 18         0.51550
      13 -> 21         0.17921
      13 -> 22         0.29623
      13 -> 23        -0.20196

 Excited State   5:      Singlet-A      6.0013 eV  206.60 nm  f=0.0060  <S**2>=0.000
       7 -> 16        -0.13840
      12 -> 15         0.21874
      12 -> 16         0.60689
      12 -> 22        -0.14810

 Excited State   6:      Singlet-A      6.3506 eV  195.23 nm  f=0.0177  <S**2>=0.000
      12 -> 14        -0.13313
      12 -> 15        -0.11863
      13 -> 17         0.55578
      13 -> 18        -0.15765
      13 -> 19        -0.18191
      13 -> 20         0.20019

 Excited State   7:      Singlet-A      6.3860 eV  194.15 nm  f=0.2695  <S**2>=0.000
      12 -> 14         0.49020
      12 -> 15         0.21512
      13 -> 15         0.29343
      13 -> 17         0.20299

 Excited State   8:      Singlet-A      6.4665 eV  191.73 nm  f=0.1040  <S**2>=0.000
      12 -> 14        -0.23267
      12 -> 15         0.26625
      12 -> 18        -0.16438
      12 -> 20         0.17489
      12 -> 23         0.12874
      13 -> 15        -0.15390
      13 -> 17         0.16437
      13 -> 18         0.14028
      13 -> 19         0.15142
      13 -> 20        -0.15333
      13 -> 21        -0.15709
      13 -> 22        -0.23242
      13 -> 23        -0.17755

 Excited State   9:      Singlet-A      6.5659 eV  188.83 nm  f=0.1033  <S**2>=0.000
      12 -> 15         0.51069
      12 -> 16        -0.24035
      12 -> 20        -0.10704
      13 -> 14        -0.15031
      13 -> 18        -0.11941
      13 -> 19        -0.11038
      13 -> 22         0.12974
      13 -> 23         0.11717

 Excited State  10:      Singlet-A      7.0470 eV  175.94 nm  f=0.0023  <S**2>=0.000
      11 -> 14         0.16527
      11 -> 15        -0.13037
      12 -> 17         0.41954
      12 -> 18        -0.27701
      12 -> 20         0.13695
      13 -> 17        -0.12729
      13 -> 19        -0.35897

 Excited State  11:      Singlet-A      7.1718 eV  172.88 nm  f=0.0010  <S**2>=0.000
      10 -> 14         0.56269
      10 -> 15         0.29313
      11 -> 15         0.21374
      13 -> 22         0.10107

 Excited State  12:      Singlet-A      7.2760 eV  170.40 nm  f=0.0070  <S**2>=0.000
      11 -> 14        -0.11554
      11 -> 15         0.27089
      12 -> 17         0.29690
      12 -> 19         0.21624
      12 -> 20         0.10632
      12 -> 21        -0.14833
      12 -> 22        -0.12782
      12 -> 23        -0.16766
      13 -> 19         0.23565
      13 -> 20         0.26304
      13 -> 24        -0.12317

 Excited State  13:      Singlet-A      7.3243 eV  169.28 nm  f=0.0027  <S**2>=0.000
       9 -> 14         0.13947
       9 -> 15        -0.10259
      11 -> 14         0.45692
      11 -> 15        -0.22865
      12 -> 18         0.14640
      13 -> 17         0.18476
      13 -> 18         0.16270
      13 -> 19         0.20971
      13 -> 22        -0.19250

 Excited State  14:      Singlet-A      7.4172 eV  167.16 nm  f=0.0048  <S**2>=0.000
      11 -> 14         0.14199
      11 -> 15        -0.16944
      12 -> 18        -0.11104
      12 -> 20         0.14675
      13 -> 16         0.10139
      13 -> 18        -0.19698
      13 -> 19         0.25054
      13 -> 20         0.16955
      13 -> 21        -0.23123
      13 -> 22         0.33658
      13 -> 23        -0.24897

 Excited State  15:      Singlet-A      7.5933 eV  163.28 nm  f=0.0019  <S**2>=0.000
       9 -> 14        -0.21211
      10 -> 14        -0.16287
      11 -> 14         0.40701
      11 -> 15         0.42117
      12 -> 19        -0.10017
      13 -> 20        -0.11603

 The electronic state is 1-A.
 Alpha  occ. eigenvalues --   -1.59215  -1.24558  -1.09774  -0.82436  -0.80388
 Alpha  occ. eigenvalues --   -0.68411  -0.61390  -0.55839  -0.51901  -0.49614
 Alpha  occ. eigenvalues --   -0.48124  -0.39706  -0.34956
 Alpha virt. eigenvalues --    0.03866   0.06567   0.09448   0.13639   0.14274
 Alpha virt. eigenvalues --    0.15402   0.17859   0.17922   0.18943   0.20514
 Alpha virt. eigenvalues --    0.22830

 Mulliken charges:
               1
     1  C   -0.257049
     2  C   -0.082772
     3  O   -0.062493
     4  C   -0.114831
     5  C   -0.183160
     6  H    0.166224
     7  H    0.182288
     8  H    0.187082
     9  H    0.164712
 Sum of Mulliken charges =   0.00000

 Dipole moment (field-independent basis, Debye):
    X=              0.1870    Y=              0.3993    Z=             -0.0911  Tot=              0.4502
 N-N= 1.037582086461D+02 E-N=-1.715494320818D+02  KE=-1.657081860397D+01
 Orbital energies and kinetic energies (alpha):
                                 1                 2
   1         O                -1.592147         -1.332139
   2         O                -1.245585         -1.055906
   3         O                -1.097735         -0.955545
   4         O                -0.824356         -0.695152
   5         O                -0.803881         -0.719298
   6         O                -0.684112         -0.601872
   7         O                -0.613899         -0.495740

 Normal termination of Gaussian 09 at Tue Dec 15 16:23:58 2015.
