 Gaussian 09, Revision D.01,
 Gaussian 09:  ES64L-G09RevD.01 24-Apr-2013

 ------------------------------------------------------------
 #P AM1(Input,print) CIS(Singlets,NStates=15) pop(full) force
 ------------------------------------------------------------

 -----------------
 AM1-Reparam Input
 -----------------
 Symbolic Z-matrix:
 Charge =  0 Multiplicity = 1

                         Standard orientation:
 ---------------------------------------------------------------------
 Center     Atomic      Atomic             Coordinates (Angstroms)
 Number     Number       Type             X           Y           Z
 ---------------------------------------------------------------------
      1          6           0       -0.197900    1.156390    0.043568
      2          6           0       -1.108520    0.162563   -0.029677
      3          8           0       -0.565897   -1.014703   -0.009038
      4          6           0        0.806026   -0.773399    0.040957
      5          6           0        1.094403    0.493035   -0.035791
      6          1           0        2.056486    1.014981   -0.046533
      7          1           0        1.469283   -1.654014   -0.007324
      8          1           0       -2.224715    0.233390    0.020765
      9          1           0       -0.337938    2.291729   -0.008945
 ---------------------------------------------------------------------

 SCF Done:  E(RAM1) =   1.82191342637     A.U. after   14 cycles

 Excitation energies and oscillator strengths:

 Excited State   1:      Singlet-A      5.3105 eV  233.47 nm  f=0.3542  <S**2>=0.000
      13 -> 14         0.69474
 This state for optimization and/or second-order correction.
 Total Energy, E(CIS) =   2.01707106851
 Copying the excited state density for this state as the 1-particle RhoCI density.

 Excited State   2:      Singlet-A      6.2059 eV  199.78 nm  f=0.0028  <S**2>=0.000
      13 -> 15         0.67728
      13 -> 17        -0.10939
      13 -> 18         0.10720

 Excited State   3:      Singlet-A      6.6495 eV  186.46 nm  f=0.0029  <S**2>=0.000
      13 -> 16         0.67278
      13 -> 17        -0.11176

 Excited State   4:      Singlet-A      7.2066 eV  172.04 nm  f=0.0004  <S**2>=0.000
      12 -> 14         0.70095

 Excited State   5:      Singlet-A      7.8962 eV  157.02 nm  f=0.0001  <S**2>=0.000
      13 -> 16         0.11401
      13 -> 17         0.11136
      13 -> 18         0.63567
      13 -> 21        -0.22158

 Excited State   6:      Singlet-A      8.3152 eV  149.11 nm  f=0.0103  <S**2>=0.000
      10 -> 14        -0.17428
      11 -> 14         0.64187
      13 -> 17        -0.21295

 Excited State   7:      Singlet-A      8.6091 eV  144.01 nm  f=0.0068  <S**2>=0.000
      11 -> 14         0.21262
      13 -> 15         0.11682
      13 -> 17         0.63208
      13 -> 18        -0.10166

 Excited State   8:      Singlet-A      9.1296 eV  135.80 nm  f=0.0769  <S**2>=0.000
      10 -> 14         0.60554
      11 -> 14         0.16356
      12 -> 16         0.16578
      12 -> 18        -0.11249

 Excited State   9:      Singlet-A      9.3064 eV  133.22 nm  f=0.0035  <S**2>=0.000
      13 -> 19         0.67329

 Excited State  10:      Singlet-A      9.4575 eV  131.10 nm  f=0.0419  <S**2>=0.000
       8 -> 15         0.10131
      10 -> 14         0.18177
      11 -> 17         0.15281
      12 -> 15         0.46437
      12 -> 16        -0.23762
      12 -> 18         0.30909

 Excited State  11:      Singlet-A      9.8838 eV  125.44 nm  f=0.0696  <S**2>=0.000
       9 -> 15        -0.10198
      10 -> 14        -0.11291
      11 -> 15         0.26172
      11 -> 17        -0.13960
      12 -> 15         0.42096
      12 -> 16         0.17201
      12 -> 17        -0.16276
      12 -> 18        -0.15060
      13 -> 20        -0.24952
      13 -> 21         0.15240

 Excited State  12:      Singlet-A      9.9765 eV  124.28 nm  f=0.0446  <S**2>=0.000
      10 -> 15        -0.10035
      11 -> 15         0.10649
      12 -> 15         0.15455
      12 -> 16         0.15536
      12 -> 18        -0.10643
      13 -> 18        -0.16901
      13 -> 20         0.46727
      13 -> 21        -0.36169

 Excited State  13:      Singlet-A     10.2084 eV  121.45 nm  f=0.1487  <S**2>=0.000
       8 -> 16        -0.10332
      10 -> 15        -0.29810
      11 -> 15        -0.22991
      11 -> 16        -0.21621
      11 -> 17         0.12600
      12 -> 16         0.42562
      12 -> 18         0.17441
      13 -> 21         0.13739

 Excited State  14:      Singlet-A     10.2947 eV  120.43 nm  f=0.0820  <S**2>=0.000
      10 -> 15         0.43268
      11 -> 15         0.15866
      11 -> 16        -0.16632
      12 -> 16         0.28641
      12 -> 18         0.18210
      13 -> 20        -0.17140
      13 -> 21        -0.22952

 Excited State  15:      Singlet-A     10.4013 eV  119.20 nm  f=0.0522  <S**2>=0.000
      10 -> 15         0.25104
      10 -> 16         0.10710
      11 -> 15         0.16295
      13 -> 20         0.38100
      13 -> 21         0.46345

 The electronic state is 1-A.
 Alpha  occ. eigenvalues --   -2.00450  -1.27521  -1.00130  -0.89292  -0.84186
 Alpha  occ. eigenvalues --   -0.76140  -0.75252  -0.62316  -0.60600  -0.52409
 Alpha  occ. eigenvalues --   -0.51565  -0.48144  -0.35367
 Alpha virt. eigenvalues --    0.04943   0.10028   0.12264   0.20063   0.20234
 Alpha virt. eigenvalues --    0.23390   0.25621   0.27817   0.30555   0.38803
 Alpha virt. eigenvalues --    0.43491

 Mulliken charges:
               1
     1  C   -0.219392
     2  C   -1.906879
     3  O    3.157608
     4  C   -1.873836
     5  C   -0.058086
     6  H    0.141469
     7  H    0.287167
     8  H    0.308948
     9  H    0.163001
 Sum of Mulliken charges =   0.00000

 Dipole moment (field-independent basis, Debye):
    X=             -5.2650    Y=             -9.3368    Z=             -0.2807  Tot=             10.7226
 N-N= 1.058490874755D+02 E-N=-1.711420544230D+02  KE=-1.564490198022D+01
 Orbital energies and kinetic energies (alpha):
                                 1                 2
   1         O                -2.004498         -1.396300
   2         O                -1.275206         -1.054518
   3         O                -1.001302         -0.883105
   4         O                -0.892916         -0.573564
   5         O                -0.841857         -0.703001
   6         O                -0.761397         -0.583190
   7         O                -0.752523         -0.549670

 Normal termination of Gaussian 09 at Tue Dec 15 17:09:04 2015.
