 Gaussian 09, Revision D.01,
 Gaussian 09:  ES64L-G09RevD.01 24-Apr-2013

 ------------------------------------------------------------
 #P AM1(Input,print) CIS(Singlets,NStates=15) pop(full) force
 ------------------------------------------------------------

 -----------------
 AM1-Reparam Input
 -----------------
 Symbolic Z-matrix:
 Charge =  0 Multiplicity = 1

                         Standard orientation:
 ---------------------------------------------------------------------
 Center     Atomic      Atomic             Coordinates (Angstroms)
 Number     Number       Type             X           Y           Z
 ---------------------------------------------------------------------
      1          6           0        1.010083    0.697276   -0.032860
      2          6           0        0.930391   -0.687172    0.030939
      3          8           0       -0.399434   -1.105088   -0.013396
      4          6           0       -1.135891   -0.028866    0.008723
      5          6           0       -0.380748    1.193153    0.008364
      6          1           0       -0.733018    2.149220   -0.013539
      7          1           0       -2.233786   -0.150229    0.002140
      8          1           0        1.729140   -1.456914   -0.030691
      9          1           0        1.890128    1.252281    0.058256
 ---------------------------------------------------------------------

 SCF Done:  E(RAM1) =  0.242677418582E-01 A.U. after   14 cycles

 Excitation energies and oscillator strengths:

 Excited State   1:      Singlet-A      4.1982 eV  295.33 nm  f=0.0807  <S**2>=0.000
      12 -> 15         0.20374
      13 -> 14         0.66864
 This state for optimization and/or second-order correction.
 Total Energy, E(CIS) =  0.178549030579
 Copying the excited state density for this state as the 1-particle RhoCI density.

 Excited State   2:      Singlet-A      4.5914 eV  270.04 nm  f=0.0012  <S**2>=0.000
      13 -> 15         0.16147
      13 -> 16         0.65908

 Excited State   3:      Singlet-A      4.7286 eV  262.20 nm  f=0.0183  <S**2>=0.000
      12 -> 14        -0.35787
      13 -> 15         0.57555
      13 -> 16        -0.18396

 Excited State   4:      Singlet-A      5.4258 eV  228.51 nm  f=0.0006  <S**2>=0.000
      12 -> 18         0.17794
      12 -> 21         0.10811
      13 -> 17        -0.25957
      13 -> 18         0.52452
      13 -> 21         0.25887
      13 -> 23         0.15241

 Excited State   5:      Singlet-A      5.8541 eV  211.79 nm  f=0.0038  <S**2>=0.000
      12 -> 16         0.45760
      12 -> 19        -0.14396
      12 -> 21        -0.17482
      13 -> 17         0.24355
      13 -> 19         0.26770
      13 -> 21         0.17822
      13 -> 23        -0.10070

 Excited State   6:      Singlet-A      5.9732 eV  207.57 nm  f=0.1437  <S**2>=0.000
      12 -> 14         0.34565
      12 -> 15         0.24707
      12 -> 16         0.29390
      12 -> 19         0.18316
      13 -> 15         0.20532
      13 -> 17        -0.11942
      13 -> 19        -0.24396
      13 -> 21        -0.13144
      13 -> 23         0.10344

 Excited State   7:      Singlet-A      6.0119 eV  206.23 nm  f=0.2031  <S**2>=0.000
      12 -> 14         0.42372
      12 -> 16        -0.33724
      12 -> 19        -0.15172
      13 -> 15         0.25058
      13 -> 17         0.10396
      13 -> 19         0.18542
      13 -> 21         0.10143

 Excited State   8:      Singlet-A      6.0782 eV  203.98 nm  f=0.1666  <S**2>=0.000
      12 -> 14        -0.15783
      12 -> 15         0.60549
      12 -> 16        -0.14133
      13 -> 14        -0.17409
      13 -> 15        -0.12647

 Excited State   9:      Singlet-A      6.2357 eV  198.83 nm  f=0.0048  <S**2>=0.000
      12 -> 17         0.10706
      12 -> 20        -0.10328
      13 -> 17         0.46577
      13 -> 18         0.27691
      13 -> 19        -0.34953
      13 -> 20        -0.10737

 Excited State  10:      Singlet-A      6.7585 eV  183.45 nm  f=0.0032  <S**2>=0.000
       9 -> 14         0.15499
      10 -> 14         0.20642
      10 -> 15         0.14092
      11 -> 14         0.51115
      11 -> 15         0.30293
      12 -> 17        -0.13115
      12 -> 20         0.10325

 Excited State  11:      Singlet-A      6.7910 eV  182.57 nm  f=0.0017  <S**2>=0.000
      10 -> 14         0.10294
      11 -> 14         0.12095
      12 -> 17         0.36319
      12 -> 18         0.35577
      12 -> 20        -0.20636
      13 -> 17        -0.11769
      13 -> 18        -0.17915
      13 -> 20        -0.16369
      13 -> 21         0.18467
      13 -> 22        -0.12642

 Excited State  12:      Singlet-A      7.0502 eV  175.86 nm  f=0.0049  <S**2>=0.000
      10 -> 15        -0.13189
      11 -> 14        -0.11597
      11 -> 15         0.11893
      12 -> 19        -0.18194
      12 -> 20         0.19878
      13 -> 16         0.10180
      13 -> 18        -0.15826
      13 -> 19        -0.31031
      13 -> 20         0.25720
      13 -> 21         0.34451
      13 -> 24        -0.10927

 Excited State  13:      Singlet-A      7.1864 eV  172.53 nm  f=0.0003  <S**2>=0.000
       9 -> 14        -0.23386
      10 -> 14         0.37334
      10 -> 15        -0.28351
      11 -> 14        -0.17118
      11 -> 15         0.33640
      13 -> 19         0.13224
      13 -> 21        -0.13025

 Excited State  14:      Singlet-A      7.3261 eV  169.24 nm  f=0.0049  <S**2>=0.000
      12 -> 19         0.36444
      12 -> 21         0.17876
      12 -> 22        -0.12580
      13 -> 17         0.20804
      13 -> 19         0.17175
      13 -> 21         0.21626
      13 -> 22        -0.23623
      13 -> 23         0.20656
      13 -> 24         0.21920

 Excited State  15:      Singlet-A      7.4365 eV  166.72 nm  f=0.0047  <S**2>=0.000
      12 -> 17         0.26589
      12 -> 18        -0.24758
      12 -> 19        -0.12748
      12 -> 20        -0.27280
      13 -> 18         0.10740
      13 -> 20         0.40433
      13 -> 23         0.15679
      13 -> 24        -0.12475

 The electronic state is 1-A.
 Alpha  occ. eigenvalues --   -1.55968  -1.22611  -1.07979  -0.83244  -0.80618
 Alpha  occ. eigenvalues --   -0.68284  -0.60661  -0.57559  -0.51538  -0.50130
 Alpha  occ. eigenvalues --   -0.48401  -0.38524  -0.33577
 Alpha virt. eigenvalues --    0.02919   0.05541   0.09099   0.13569   0.14528
 Alpha virt. eigenvalues --    0.15812   0.17629   0.18103   0.19244   0.21069
 Alpha virt. eigenvalues --    0.22520

 Mulliken charges:
               1
     1  C   -0.175473
     2  C   -0.146591
     3  O   -0.046357
     4  C   -0.102513
     5  C   -0.228813
     6  H    0.161639
     7  H    0.187340
     8  H    0.193990
     9  H    0.156779
 Sum of Mulliken charges =   0.00000

 Dipole moment (field-independent basis, Debye):
    X=              0.0501    Y=              0.1321    Z=             -0.0295  Tot=              0.1444
 N-N= 1.028181064849D+02 E-N=-1.699083564510D+02  KE=-1.649747204446D+01
 Orbital energies and kinetic energies (alpha):
                                 1                 2
   1         O                -1.559683         -1.293878
   2         O                -1.226112         -1.055965
   3         O                -1.079787         -0.945412
   4         O                -0.832445         -0.714170
   5         O                -0.806176         -0.721280
   6         O                -0.682840         -0.600287
   7         O                -0.606607         -0.486129

 Normal termination of Gaussian 09 at Tue Dec 15 16:14:40 2015.
