 Gaussian 09, Revision D.01,
 Gaussian 09:  ES64L-G09RevD.01 24-Apr-2013

 ------------------------------------------------------------
 #P AM1(Input,print) CIS(Singlets,NStates=15) pop(full) force
 ------------------------------------------------------------

 -----------------
 AM1-Reparam Input
 -----------------
 Symbolic Z-matrix:
 Charge =  0 Multiplicity = 1

                         Standard orientation:
 ---------------------------------------------------------------------
 Center     Atomic      Atomic             Coordinates (Angstroms)
 Number     Number       Type             X           Y           Z
 ---------------------------------------------------------------------
      1          6           0       -0.680242    0.948863   -0.013063
      2          6           0       -1.083726   -0.310280    0.007307
      3          8           0       -0.016349   -1.107750    0.006145
      4          6           0        1.040856   -0.382702    0.006055
      5          6           0        0.727086    0.908568   -0.010395
      6          1           0        1.462002    1.801478    0.044368
      7          1           0        2.026513   -0.922641   -0.039495
      8          1           0       -2.094448   -0.811625   -0.032368
      9          1           0       -1.287123    1.808097    0.038915
 ---------------------------------------------------------------------

 SCF Done:  E(RAM1) =   2.56240162404     A.U. after   13 cycles

 Excitation energies and oscillator strengths:

 Excited State   1:      Singlet-A      5.4228 eV  228.64 nm  f=0.3383  <S**2>=0.000
      13 -> 14         0.69447
 This state for optimization and/or second-order correction.
 Total Energy, E(CIS) =   2.76168529001
 Copying the excited state density for this state as the 1-particle RhoCI density.

 Excited State   2:      Singlet-A      6.1430 eV  201.83 nm  f=0.0015  <S**2>=0.000
      10 -> 15         0.10760
      13 -> 15         0.67011
      13 -> 17        -0.12833

 Excited State   3:      Singlet-A      6.4535 eV  192.12 nm  f=0.0012  <S**2>=0.000
      10 -> 16        -0.11617
      13 -> 16         0.66443
      13 -> 17        -0.13681
      13 -> 19         0.12304

 Excited State   4:      Singlet-A      6.8577 eV  180.79 nm  f=0.0007  <S**2>=0.000
       9 -> 14         0.13876
      12 -> 14         0.69016

 Excited State   5:      Singlet-A      7.7964 eV  159.03 nm  f=0.0084  <S**2>=0.000
      10 -> 14         0.12441
      11 -> 14         0.61711
      13 -> 17         0.28823

 Excited State   6:      Singlet-A      7.8853 eV  157.24 nm  f=0.0003  <S**2>=0.000
      11 -> 14         0.17901
      13 -> 17        -0.21798
      13 -> 18         0.54386
      13 -> 20        -0.18073
      13 -> 21         0.26929

 Excited State   7:      Singlet-A      8.0619 eV  153.79 nm  f=0.0044  <S**2>=0.000
      11 -> 14        -0.24911
      13 -> 15         0.12817
      13 -> 17         0.56554
      13 -> 18         0.25547

 Excited State   8:      Singlet-A      8.8309 eV  140.40 nm  f=0.0019  <S**2>=0.000
      13 -> 16        -0.10211
      13 -> 19         0.67322

 Excited State   9:      Singlet-A      8.8967 eV  139.36 nm  f=0.0470  <S**2>=0.000
      10 -> 14         0.60131
      11 -> 14        -0.11792
      12 -> 15        -0.26675
      12 -> 16        -0.12735

 Excited State  10:      Singlet-A      9.0337 eV  137.25 nm  f=0.0796  <S**2>=0.000
       8 -> 16        -0.10039
      10 -> 14         0.19195
      11 -> 17        -0.10309
      12 -> 15         0.55320
      12 -> 16        -0.25519
      12 -> 18        -0.16996

 Excited State  11:      Singlet-A      9.3523 eV  132.57 nm  f=0.0244  <S**2>=0.000
       9 -> 15        -0.19609
      10 -> 14         0.18741
      11 -> 15        -0.29116
      11 -> 17         0.19828
      12 -> 15         0.17522
      12 -> 16         0.29938
      12 -> 17        -0.16765
      12 -> 18         0.16202
      13 -> 18         0.12642
      13 -> 20         0.17515
      13 -> 21        -0.16234

 Excited State  12:      Singlet-A      9.4090 eV  131.77 nm  f=0.0278  <S**2>=0.000
       9 -> 14         0.11135
      11 -> 15         0.11142
      12 -> 16        -0.17736
      13 -> 18         0.29332
      13 -> 20         0.39669
      13 -> 21        -0.37876

 Excited State  13:      Singlet-A      9.4814 eV  130.77 nm  f=0.1197  <S**2>=0.000
       9 -> 16        -0.15453
      11 -> 15         0.13874
      11 -> 16         0.33729
      11 -> 17        -0.21312
      12 -> 16         0.43785
      12 -> 18        -0.20518

 Excited State  14:      Singlet-A      9.7475 eV  127.20 nm  f=0.0113  <S**2>=0.000
       9 -> 14         0.62021
      10 -> 15        -0.18554
      12 -> 14        -0.12599
      13 -> 20        -0.21260

 Excited State  15:      Singlet-A      9.7970 eV  126.55 nm  f=0.0114  <S**2>=0.000
       6 -> 15        -0.12255
       9 -> 14         0.23549
      10 -> 15         0.57791
      11 -> 15        -0.12655
      13 -> 15        -0.12375
      13 -> 20         0.11417
      13 -> 21         0.11018

 The electronic state is 1-A.
 Alpha  occ. eigenvalues --   -1.78628  -1.17525  -0.96732  -0.82150  -0.75556
 Alpha  occ. eigenvalues --   -0.67324  -0.66936  -0.55683  -0.49096  -0.44912
 Alpha  occ. eigenvalues --   -0.43894  -0.40615  -0.29532
 Alpha virt. eigenvalues --    0.11365   0.15447   0.16924   0.24294   0.26462
 Alpha virt. eigenvalues --    0.28431   0.30397   0.32249   0.43072   0.51850
 Alpha virt. eigenvalues --    0.57057

 Mulliken charges:
               1
     1  C   -0.044187
     2  C   -1.927789
     3  O    3.222508
     4  C   -1.944907
     5  C   -0.105913
     6  H    0.127110
     7  H    0.282388
     8  H    0.270460
     9  H    0.120329
 Sum of Mulliken charges =   0.00000

 Dipole moment (field-independent basis, Debye):
    X=              0.0886    Y=             -9.8874    Z=             -0.1004  Tot=              9.8883
 N-N= 1.048983294960D+02 E-N=-1.705884914149D+02  KE=-1.511168652025D+01
 Orbital energies and kinetic energies (alpha):
                                 1                 2
   1         O                -1.786284         -1.309403
   2         O                -1.175252         -1.015469
   3         O                -0.967317         -0.861265
   4         O                -0.821500         -0.615729
   5         O                -0.755565         -0.683933
   6         O                -0.673242         -0.539937
   7         O                -0.669361         -0.569266

 Normal termination of Gaussian 09 at Tue Dec 15 17:06:12 2015.
