 Gaussian 09, Revision D.01,
 Gaussian 09:  ES64L-G09RevD.01 24-Apr-2013

 ------------------------------------------------------------
 #P AM1(Input,print) CIS(Singlets,NStates=15) pop(full) force
 ------------------------------------------------------------

 -----------------
 AM1-Reparam Input
 -----------------
 Symbolic Z-matrix:
 Charge =  0 Multiplicity = 1

                         Standard orientation:
 ---------------------------------------------------------------------
 Center     Atomic      Atomic             Coordinates (Angstroms)
 Number     Number       Type             X           Y           Z
 ---------------------------------------------------------------------
      1          6           0        0.757171    0.896867   -0.007864
      2          6           0        1.115852   -0.438017   -0.018797
      3          8           0       -0.113448   -1.144788    0.022470
      4          6           0       -1.135647   -0.256853   -0.027972
      5          6           0       -0.613125    0.984238    0.020463
      6          1           0       -1.228986    1.966866   -0.028794
      7          1           0       -2.111270   -0.674049    0.012461
      8          1           0        1.989501   -0.939612   -0.011258
      9          1           0        1.512834    1.687690    0.052856
 ---------------------------------------------------------------------

 SCF Done:  E(RAM1) =   1.70375867953     A.U. after   13 cycles

 Excitation energies and oscillator strengths:

 Excited State   1:      Singlet-A      5.5653 eV  222.78 nm  f=0.3081  <S**2>=0.000
      13 -> 14         0.68914
 This state for optimization and/or second-order correction.
 Total Energy, E(CIS) =   1.90828055256
 Copying the excited state density for this state as the 1-particle RhoCI density.

 Excited State   2:      Singlet-A      6.5098 eV  190.46 nm  f=0.0066  <S**2>=0.000
      11 -> 15         0.10218
      13 -> 15         0.61937
      13 -> 16         0.21071
      13 -> 17        -0.19301

 Excited State   3:      Singlet-A      7.0278 eV  176.42 nm  f=0.0052  <S**2>=0.000
      13 -> 15        -0.19820
      13 -> 16         0.61038
      13 -> 21        -0.21008

 Excited State   4:      Singlet-A      7.3245 eV  169.27 nm  f=0.0004  <S**2>=0.000
      12 -> 14         0.64710
      13 -> 19        -0.10019
      13 -> 21        -0.18108

 Excited State   5:      Singlet-A      7.7454 eV  160.07 nm  f=0.0003  <S**2>=0.000
      12 -> 14         0.25074
      13 -> 19         0.31036
      13 -> 20        -0.23734
      13 -> 21         0.50495

 Excited State   6:      Singlet-A      7.8326 eV  158.29 nm  f=0.0094  <S**2>=0.000
      10 -> 14         0.46393
      11 -> 14        -0.27098
      13 -> 15         0.11286
      13 -> 17         0.40381
      13 -> 21        -0.10220

 Excited State   7:      Singlet-A      7.9664 eV  155.63 nm  f=0.0015  <S**2>=0.000
      10 -> 14        -0.38267
      11 -> 14         0.22850
      13 -> 15         0.12595
      13 -> 17         0.49066
      13 -> 19         0.11742

 Excited State   8:      Singlet-A      8.4612 eV  146.53 nm  f=0.0116  <S**2>=0.000
      13 -> 18         0.68022

 Excited State   9:      Singlet-A      8.7531 eV  141.65 nm  f=0.0112  <S**2>=0.000
      10 -> 14         0.15847
      11 -> 14         0.20627
      13 -> 16        -0.12510
      13 -> 17        -0.12413
      13 -> 19         0.55249
      13 -> 20         0.13900
      13 -> 21        -0.20905

 Excited State  10:      Singlet-A      8.7733 eV  141.32 nm  f=0.0801  <S**2>=0.000
      10 -> 14         0.31191
      11 -> 14         0.55128
      13 -> 19        -0.22304

 Excited State  11:      Singlet-A      9.1886 eV  134.93 nm  f=0.0888  <S**2>=0.000
      11 -> 16        -0.12178
      13 -> 20         0.61344
      13 -> 21         0.26719

 Excited State  12:      Singlet-A      9.3988 eV  131.91 nm  f=0.1174  <S**2>=0.000
      10 -> 15        -0.20964
      10 -> 16        -0.23011
      10 -> 17         0.26794
      11 -> 16         0.11488
      11 -> 17        -0.16100
      12 -> 15         0.11605
      12 -> 16        -0.20269
      12 -> 17         0.12078
      12 -> 18         0.19266
      12 -> 19         0.16202
      12 -> 21         0.20824
      13 -> 14         0.11135
      13 -> 20         0.12655

 Excited State  13:      Singlet-A      9.8180 eV  126.28 nm  f=0.0434  <S**2>=0.000
      10 -> 15         0.32795
      10 -> 18         0.10454
      11 -> 15         0.34531
      11 -> 16         0.12278
      12 -> 15         0.38828
      12 -> 18         0.11170
      13 -> 15        -0.12326

 Excited State  14:      Singlet-A      9.8415 eV  125.98 nm  f=0.0882  <S**2>=0.000
      11 -> 15        -0.42525
      11 -> 16        -0.13823
      12 -> 15         0.42789
      12 -> 18         0.13222
      12 -> 20        -0.10146

 Excited State  15:      Singlet-A     10.1457 eV  122.20 nm  f=0.1555  <S**2>=0.000
       8 -> 16         0.10246
      10 -> 16         0.18760
      10 -> 18         0.16806
      10 -> 19         0.20817
      11 -> 16        -0.10597
      11 -> 19        -0.12373
      12 -> 15        -0.14640
      12 -> 17         0.39822
      12 -> 18         0.23384
      12 -> 21        -0.22388

 The electronic state is 1-A.
 Alpha  occ. eigenvalues --   -1.90786  -1.22851  -0.99946  -0.81908  -0.80914
 Alpha  occ. eigenvalues --   -0.68588  -0.63246  -0.55509  -0.52329  -0.42615
 Alpha  occ. eigenvalues --   -0.42174  -0.41263  -0.28847
 Alpha virt. eigenvalues --    0.12952   0.18086   0.21392   0.24002   0.25937
 Alpha virt. eigenvalues --    0.28214   0.28380   0.29336   0.35122   0.43815
 Alpha virt. eigenvalues --    0.49043

 Mulliken charges:
               1
     1  C   -0.103878
     2  C   -1.964068
     3  O    3.199707
     4  C   -1.947141
     5  C   -0.148715
     6  H    0.181687
     7  H    0.302947
     8  H    0.299408
     9  H    0.180053
 Sum of Mulliken charges =   0.00000

 Dipole moment (field-independent basis, Debye):
    X=             -1.4769    Y=             -9.9718    Z=              0.7190  Tot=             10.1062
 N-N= 1.038348820296D+02 E-N=-1.691128099543D+02  KE=-1.572989082326D+01
 Orbital energies and kinetic energies (alpha):
                                 1                 2
   1         O                -1.907859         -1.366015
   2         O                -1.228507         -1.096458
   3         O                -0.999465         -0.918448
   4         O                -0.819080         -0.694536
   5         O                -0.809135         -0.649459
   6         O                -0.685883         -0.582153
   7         O                -0.632460         -0.514594

 Normal termination of Gaussian 09 at Tue Dec 15 17:07:03 2015.
