 Gaussian 09, Revision D.01,
 Gaussian 09:  ES64L-G09RevD.01 24-Apr-2013

 -------------------------------------------------------
 #P B3LYP/3-21G CIS(Singlets,NStates=15) pop(full) force
 -------------------------------------------------------

 --------
 FuranDFT
 --------
 Symbolic Z-matrix:
 Charge =  0 Multiplicity = 1

                         Standard orientation:
 ---------------------------------------------------------------------
 Center     Atomic      Atomic             Coordinates (Angstroms)
 Number     Number       Type             X           Y           Z
 ---------------------------------------------------------------------
      1          6           0       -0.791361    0.865569   -0.019063
      2          6           0       -1.080120   -0.487728    0.038010
      3          8           0        0.150444   -1.116339   -0.018479
      4          6           0        1.149966   -0.213091   -0.005149
      5          6           0        0.564242    0.995773    0.007387
      6          1           0        1.120018    1.939580    0.030739
      7          1           0        2.137831   -0.601887    0.036199
      8          1           0       -1.978883   -1.080538   -0.012795
      9          1           0       -1.538885    1.710418   -0.033425
 ---------------------------------------------------------------------

 SCF Done:  E(RB3LYP) =  -228.739801849     A.U. after   14 cycles

 Excitation energies and oscillator strengths:

 Excited State   1:      Singlet-A      7.2325 eV  171.43 nm  f=0.1918  <S**2>=0.000
      17 -> 19         0.27999
      18 -> 19         0.58602
      18 -> 20         0.21764
 This state for optimization and/or second-order correction.
 Total Energy, E(CIS) =  -228.474011803
 Copying the excited state density for this state as the 1-particle RhoCI density.

 Excited State   2:      Singlet-A      7.3748 eV  168.12 nm  f=0.0736  <S**2>=0.000
      17 -> 19         0.45862
      18 -> 19        -0.34497
      18 -> 20         0.39087

 Excited State   3:      Singlet-A      8.3235 eV  148.96 nm  f=0.0042  <S**2>=0.000
      16 -> 19         0.70246

 Excited State   4:      Singlet-A      8.3882 eV  147.81 nm  f=0.0007  <S**2>=0.000
      18 -> 21         0.69013
      18 -> 22        -0.12041

 Excited State   5:      Singlet-A      9.0407 eV  137.14 nm  f=0.0161  <S**2>=0.000
      18 -> 20        -0.13241
      18 -> 21         0.13145
      18 -> 22         0.66309

 Excited State   6:      Singlet-A      9.6238 eV  128.83 nm  f=0.0208  <S**2>=0.000
      17 -> 20         0.10462
      17 -> 21         0.42742
      18 -> 23         0.50818
      18 -> 24         0.10438

 Excited State   7:      Singlet-A      9.6889 eV  127.97 nm  f=0.3981  <S**2>=0.000
      15 -> 19        -0.20332
      17 -> 19        -0.35329
      17 -> 20        -0.15555
      18 -> 20         0.43468
      18 -> 22         0.16625
      18 -> 23         0.16276

 Excited State   8:      Singlet-A      9.7682 eV  126.93 nm  f=0.0064  <S**2>=0.000
      15 -> 19        -0.15578
      17 -> 20         0.15612
      17 -> 21         0.50125
      17 -> 22        -0.11224
      18 -> 23        -0.41762

 Excited State   9:      Singlet-A      9.9135 eV  125.07 nm  f=0.0865  <S**2>=0.000
      15 -> 19         0.60993
      16 -> 20        -0.16847
      17 -> 19        -0.15566
      18 -> 20         0.18483

 Excited State  10:      Singlet-A     10.0502 eV  123.36 nm  f=0.1939  <S**2>=0.000
      15 -> 19        -0.11393
      17 -> 20         0.59752
      17 -> 21        -0.20518
      17 -> 22        -0.16916
      18 -> 20         0.10352

 Excited State  11:      Singlet-A     10.2238 eV  121.27 nm  f=0.0032  <S**2>=0.000
      14 -> 19         0.63913
      18 -> 24         0.27093

 Excited State  12:      Singlet-A     10.3061 eV  120.30 nm  f=0.0023  <S**2>=0.000
      14 -> 19        -0.26151
      18 -> 23        -0.11113
      18 -> 24         0.63117

 Excited State  13:      Singlet-A     10.4403 eV  118.76 nm  f=0.0319  <S**2>=0.000
      17 -> 20         0.18909
      17 -> 22         0.66789

 Excited State  14:      Singlet-A     10.6550 eV  116.36 nm  f=0.0049  <S**2>=0.000
      15 -> 19         0.17459
      16 -> 20         0.66882

 Excited State  15:      Singlet-A     10.7895 eV  114.91 nm  f=0.0006  <S**2>=0.000
      18 -> 25         0.68973

 The electronic state is 1-A.
 Alpha  occ. eigenvalues --  -19.10778 -10.17771 -10.17168 -10.12583 -10.11615
 Alpha  occ. eigenvalues --   -1.12471  -0.80815  -0.75206  -0.59239  -0.57873
 Alpha  occ. eigenvalues --   -0.53984  -0.45853  -0.44684  -0.41243  -0.40085
 Alpha  occ. eigenvalues --   -0.34949  -0.28063  -0.22980
 Alpha virt. eigenvalues --    0.01668   0.09192   0.12530   0.14452   0.17300
 Alpha virt. eigenvalues --    0.18837   0.21594   0.23955   0.35688   0.42172
 Alpha virt. eigenvalues --    0.50147   0.67501   0.69842   0.72273   0.75067

 Mulliken charges:
               1
     1  C   -0.241984
     2  C    0.074130
     3  O   -0.495876
     4  C    0.114983
     5  C   -0.262808
     6  H    0.183058
     7  H    0.224330
     8  H    0.221476
     9  H    0.182689
 Sum of Mulliken charges =   0.00000

 Dipole moment (field-independent basis, Debye):
    X=             -0.0670    Y=              0.5956    Z=              0.0246  Tot=              0.5998
 Quadrupole moment (field-independent basis, Debye-Ang):
   XX=            -23.3474   YY=            -28.1152   ZZ=            -31.7569
   XY=              0.4675   XZ=              0.2517   YZ=             -0.0070

 Normal termination of Gaussian 09 at Tue Dec 15 16:19:39 2015.
