 Gaussian 09, Revision D.01,
 Gaussian 09:  ES64L-G09RevD.01 24-Apr-2013

 ------------------------------------------------------------
 #P AM1(Input,print) CIS(Singlets,NStates=15) pop(full) force
 ------------------------------------------------------------

 -----------------
 AM1-Reparam Input
 -----------------
 Symbolic Z-matrix:
 Charge =  0 Multiplicity = 1

                         Standard orientation:
 ---------------------------------------------------------------------
 Center     Atomic      Atomic             Coordinates (Angstroms)
 Number     Number       Type             X           Y           Z
 ---------------------------------------------------------------------
      1          6           0        0.269649    1.157506   -0.027083
      2          6           0        1.157473    0.128801    0.036511
      3          8           0        0.480125   -1.103581   -0.017696
      4          6           0       -0.879646   -0.711124    0.014942
      5          6           0       -1.066506    0.611417   -0.011165
      6          1           0       -1.941303    1.097651    0.039832
      7          1           0       -1.572960   -1.579756    0.011849
      8          1           0        2.206221    0.002054   -0.027439
      9          1           0        0.581217    2.189097    0.038100
 ---------------------------------------------------------------------

 SCF Done:  E(RAM1) =   2.64200259841     A.U. after   14 cycles

 Excitation energies and oscillator strengths:

 Excited State   1:      Singlet-A      4.9725 eV  249.34 nm  f=0.3557  <S**2>=0.000
      13 -> 14         0.69856
 This state for optimization and/or second-order correction.
 Total Energy, E(CIS) =   2.82473812252
 Copying the excited state density for this state as the 1-particle RhoCI density.

 Excited State   2:      Singlet-A      5.9479 eV  208.45 nm  f=0.0003  <S**2>=0.000
      13 -> 15         0.66609
      13 -> 17        -0.12933
      13 -> 19         0.12035

 Excited State   3:      Singlet-A      6.3270 eV  195.96 nm  f=0.0021  <S**2>=0.000
      13 -> 15         0.10342
      13 -> 16         0.66628
      13 -> 18         0.12832

 Excited State   4:      Singlet-A      6.5604 eV  188.99 nm  f=0.0006  <S**2>=0.000
      12 -> 14         0.69152

 Excited State   5:      Singlet-A      7.4534 eV  166.35 nm  f=0.0061  <S**2>=0.000
      10 -> 14         0.55385
      11 -> 14        -0.42057

 Excited State   6:      Singlet-A      7.7590 eV  159.79 nm  f=0.0001  <S**2>=0.000
      13 -> 15         0.11288
      13 -> 17         0.66684
      13 -> 21        -0.11567

 Excited State   7:      Singlet-A      8.4739 eV  146.31 nm  f=0.1227  <S**2>=0.000
      10 -> 14         0.42091
      11 -> 14         0.55417

 Excited State   8:      Singlet-A      9.0385 eV  137.17 nm  f=0.0108  <S**2>=0.000
       7 -> 16         0.11141
      10 -> 15        -0.12062
      11 -> 15        -0.23872
      11 -> 16         0.13613
      13 -> 18         0.61061

 Excited State   9:      Singlet-A      9.2152 eV  134.54 nm  f=0.1145  <S**2>=0.000
       9 -> 15         0.11665
       9 -> 16         0.13675
      10 -> 16         0.10730
      10 -> 18         0.11792
      12 -> 15         0.56863
      12 -> 17        -0.24428

 Excited State  10:      Singlet-A      9.3080 eV  133.20 nm  f=0.0033  <S**2>=0.000
       7 -> 15         0.10307
      11 -> 15        -0.13419
      11 -> 16        -0.20004
      13 -> 19         0.63796

 Excited State  11:      Singlet-A      9.6707 eV  128.21 nm  f=0.1726  <S**2>=0.000
      10 -> 16         0.25689
      10 -> 18         0.13301
      11 -> 16        -0.21343
      12 -> 15        -0.15487
      12 -> 16         0.45633
      12 -> 17        -0.23952
      12 -> 18         0.12408

 Excited State  12:      Singlet-A      9.8632 eV  125.70 nm  f=0.1048  <S**2>=0.000
      10 -> 15        -0.23956
      10 -> 16        -0.14781
      11 -> 15         0.31874
      11 -> 16         0.14568
      12 -> 15         0.19332
      12 -> 16         0.34255
      12 -> 17         0.24902

 Excited State  13:      Singlet-A     10.0367 eV  123.53 nm  f=0.0043  <S**2>=0.000
      10 -> 15         0.29790
      11 -> 15         0.47550
      12 -> 16        -0.16244
      12 -> 17        -0.11275
      13 -> 15        -0.10573
      13 -> 16        -0.10841
      13 -> 18         0.22448
      13 -> 19         0.14810

 Excited State  14:      Singlet-A     10.1549 eV  122.09 nm  f=0.0067  <S**2>=0.000
      10 -> 16         0.35159
      11 -> 16         0.48644
      13 -> 15        -0.10777
      13 -> 16         0.11103
      13 -> 18        -0.17522
      13 -> 19         0.18175

 Excited State  15:      Singlet-A     10.2946 eV  120.44 nm  f=0.0193  <S**2>=0.000
       8 -> 16        -0.15639
       9 -> 15         0.26306
      10 -> 15         0.45718
      10 -> 19         0.18010
      11 -> 15        -0.12879
      12 -> 16         0.21687
      12 -> 17         0.17691

 The electronic state is 1-A.
 Alpha  occ. eigenvalues --   -1.83003  -1.11867  -0.86550  -0.78645  -0.74872
 Alpha  occ. eigenvalues --   -0.66585  -0.61432  -0.54722  -0.53493  -0.44076
 Alpha  occ. eigenvalues --   -0.43480  -0.41161  -0.28147
 Alpha virt. eigenvalues --    0.10027   0.16986   0.18303   0.26925   0.29225
 Alpha virt. eigenvalues --    0.30862   0.37629   0.41960   0.45072   0.53457
 Alpha virt. eigenvalues --    0.56116

 Mulliken charges:
               1
     1  C   -0.203736
     2  C   -1.961878
     3  O    3.437384
     4  C   -1.968630
     5  C   -0.165991
     6  H    0.170861
     7  H    0.261274
     8  H    0.243355
     9  H    0.187361
 Sum of Mulliken charges =   0.00000

 Dipole moment (field-independent basis, Debye):
    X=              4.8482    Y=            -11.9443    Z=             -0.6471  Tot=             12.9070
 N-N= 1.034005722118D+02 E-N=-1.686282369329D+02  KE=-1.432824449097D+01
 Orbital energies and kinetic energies (alpha):
                                 1                 2
   1         O                -1.830029         -1.198796
   2         O                -1.118667         -0.980087
   3         O                -0.865495         -0.808298
   4         O                -0.786447         -0.530825
   5         O                -0.748725         -0.605732
   6         O                -0.665847         -0.554606
   7         O                -0.614323         -0.492305

 Normal termination of Gaussian 09 at Tue Dec 15 17:07:39 2015.
