 Gaussian 09, Revision D.01,
 Gaussian 09:  ES64L-G09RevD.01 24-Apr-2013

 ------------------------------------------------------------
 #P AM1(Input,print) CIS(Singlets,NStates=15) pop(full) force
 ------------------------------------------------------------

 -----------------
 AM1-Reparam Input
 -----------------
 Symbolic Z-matrix:
 Charge =  0 Multiplicity = 1

                         Standard orientation:
 ---------------------------------------------------------------------
 Center     Atomic      Atomic             Coordinates (Angstroms)
 Number     Number       Type             X           Y           Z
 ---------------------------------------------------------------------
      1          6           0        0.788970    0.885096   -0.003663
      2          6           0        1.102359   -0.368707    0.027840
      3          8           0       -0.079589   -1.151040   -0.021614
      4          6           0       -1.150744   -0.252078    0.029135
      5          6           0       -0.671583    0.959252   -0.022512
      6          1           0       -1.227418    1.853659    0.035861
      7          1           0       -2.037413   -0.689635   -0.014642
      8          1           0        2.007510   -1.003691   -0.013128
      9          1           0        1.480020    1.706611   -0.019980
 ---------------------------------------------------------------------

 SCF Done:  E(RAM1) =   2.13118171677     A.U. after   14 cycles

 Excitation energies and oscillator strengths:

 Excited State   1:      Singlet-A      5.0281 eV  246.58 nm  f=0.3465  <S**2>=0.000
      13 -> 14         0.69588
 This state for optimization and/or second-order correction.
 Total Energy, E(CIS) =   2.31596137183
 Copying the excited state density for this state as the 1-particle RhoCI density.

 Excited State   2:      Singlet-A      6.3844 eV  194.20 nm  f=0.0005  <S**2>=0.000
      13 -> 15         0.59276
      13 -> 16        -0.19960
      13 -> 17         0.17457
      13 -> 18        -0.23765

 Excited State   3:      Singlet-A      6.5712 eV  188.68 nm  f=0.0027  <S**2>=0.000
      12 -> 14         0.60407
      13 -> 15         0.18932
      13 -> 16         0.27548

 Excited State   4:      Singlet-A      6.6027 eV  187.78 nm  f=0.0069  <S**2>=0.000
      12 -> 14        -0.34420
      13 -> 15         0.16071
      13 -> 16         0.55396
      13 -> 17         0.12375
      13 -> 18         0.14716

 Excited State   5:      Singlet-A      7.4654 eV  166.08 nm  f=0.0015  <S**2>=0.000
      13 -> 15         0.19143
      13 -> 16        -0.13976
      13 -> 17        -0.23716
      13 -> 18         0.47931
      13 -> 19         0.34580
      13 -> 20         0.10553
      13 -> 21        -0.10670

 Excited State   6:      Singlet-A      7.6634 eV  161.79 nm  f=0.0075  <S**2>=0.000
      11 -> 14         0.69899

 Excited State   7:      Singlet-A      8.2710 eV  149.90 nm  f=0.0209  <S**2>=0.000
      13 -> 15        -0.15146
      13 -> 16        -0.10423
      13 -> 17         0.60564
      13 -> 18         0.15271
      13 -> 19         0.23316

 Excited State   8:      Singlet-A      8.7106 eV  142.34 nm  f=0.0010  <S**2>=0.000
      13 -> 16         0.16419
      13 -> 17        -0.10437
      13 -> 18        -0.34810
      13 -> 19         0.56037

 Excited State   9:      Singlet-A      8.8838 eV  139.56 nm  f=0.0788  <S**2>=0.000
      10 -> 14         0.66042
      12 -> 15        -0.11189
      13 -> 22        -0.12852

 Excited State  10:      Singlet-A      9.3153 eV  133.10 nm  f=0.0479  <S**2>=0.000
      11 -> 16         0.11864
      11 -> 17         0.18792
      12 -> 15        -0.34425
      12 -> 16         0.25129
      12 -> 17        -0.15547
      12 -> 18         0.39080
      12 -> 19         0.15942

 Excited State  11:      Singlet-A      9.4795 eV  130.79 nm  f=0.0023  <S**2>=0.000
      13 -> 18        -0.16389
      13 -> 20         0.47657
      13 -> 21        -0.47080
      13 -> 22        -0.10508

 Excited State  12:      Singlet-A      9.6566 eV  128.39 nm  f=0.0726  <S**2>=0.000
      13 -> 20         0.47778
      13 -> 21         0.40458
      13 -> 22         0.29684

 Excited State  13:      Singlet-A      9.9636 eV  124.44 nm  f=0.0896  <S**2>=0.000
      10 -> 14         0.12697
      11 -> 15         0.28046
      11 -> 17         0.14216
      12 -> 15         0.48154
      12 -> 16         0.25037
      12 -> 17         0.11290
      12 -> 18         0.16176
      12 -> 19         0.13012

 Excited State  14:      Singlet-A     10.0114 eV  123.84 nm  f=0.1851  <S**2>=0.000
      11 -> 15        -0.10279
      11 -> 16        -0.29701
      11 -> 17        -0.13116
      11 -> 18        -0.10073
      12 -> 15        -0.13071
      12 -> 16         0.47545
      12 -> 17         0.16483
      12 -> 19        -0.23418
      13 -> 22         0.11682

 Excited State  15:      Singlet-A     10.1341 eV  122.34 nm  f=0.0731  <S**2>=0.000
      10 -> 14         0.14004
      11 -> 16         0.12572
      13 -> 20        -0.13223
      13 -> 21        -0.26874
      13 -> 22         0.58647

 The electronic state is 1-A.
 Alpha  occ. eigenvalues --   -1.93695  -1.20660  -0.97860  -0.82207  -0.79681
 Alpha  occ. eigenvalues --   -0.69188  -0.64696  -0.55288  -0.53862  -0.44782
 Alpha  occ. eigenvalues --   -0.43168  -0.39922  -0.27325
 Alpha virt. eigenvalues --    0.11322   0.19144   0.20924   0.26710   0.27948
 Alpha virt. eigenvalues --    0.29274   0.31541   0.31978   0.32420   0.41486
 Alpha virt. eigenvalues --    0.45480

 Mulliken charges:
               1
     1  C   -0.222722
     2  C   -1.950328
     3  O    3.187178
     4  C   -1.954933
     5  C   -0.272814
     6  H    0.260463
     7  H    0.344959
     8  H    0.351409
     9  H    0.256787
 Sum of Mulliken charges =   0.00000

 Dipole moment (field-independent basis, Debye):
    X=             -0.3588    Y=            -11.1861    Z=             -0.7937  Tot=             11.2200
 N-N= 1.044792594283D+02 E-N=-1.697369075861D+02  KE=-1.551254558051D+01
 Orbital energies and kinetic energies (alpha):
                                 1                 2
   1         O                -1.936950         -1.359845
   2         O                -1.206603         -1.068252
   3         O                -0.978601         -0.900830
   4         O                -0.822072         -0.604194
   5         O                -0.796807         -0.684156
   6         O                -0.691884         -0.563184
   7         O                -0.646963         -0.524656

 Normal termination of Gaussian 09 at Tue Dec 15 17:07:18 2015.
