 Gaussian 09, Revision D.01,
 Gaussian 09:  ES64L-G09RevD.01 24-Apr-2013

 ------------------------------------------------------------
 #P AM1(Input,print) CIS(Singlets,NStates=15) pop(full) force
 ------------------------------------------------------------

 -----------------
 AM1-Reparam Input
 -----------------
 Symbolic Z-matrix:
 Charge =  0 Multiplicity = 1

                         Standard orientation:
 ---------------------------------------------------------------------
 Center     Atomic      Atomic             Coordinates (Angstroms)
 Number     Number       Type             X           Y           Z
 ---------------------------------------------------------------------
      1          6           0        0.760338    0.887249   -0.009021
      2          6           0        1.077972   -0.418550    0.017701
      3          8           0       -0.077139   -1.163490   -0.014097
      4          6           0       -1.145988   -0.238772    0.027431
      5          6           0       -0.613710    0.982587   -0.024102
      6          1           0       -1.233499    1.867463    0.041784
      7          1           0       -2.067250   -0.683119   -0.020846
      8          1           0        1.969513   -0.900513   -0.005957
      9          1           0        1.476681    1.749002    0.025739
 ---------------------------------------------------------------------

 SCF Done:  E(RAM1) =   2.62042384606     A.U. after   13 cycles

 Excitation energies and oscillator strengths:

 Excited State   1:      Singlet-A      5.1978 eV  238.53 nm  f=0.3388  <S**2>=0.000
      13 -> 14         0.69695
 This state for optimization and/or second-order correction.
 Total Energy, E(CIS) =   2.81144093612
 Copying the excited state density for this state as the 1-particle RhoCI density.

 Excited State   2:      Singlet-A      6.4172 eV  193.21 nm  f=0.0007  <S**2>=0.000
      13 -> 15         0.66250
      13 -> 16        -0.11534
      13 -> 17         0.10240
      13 -> 19        -0.13772

 Excited State   3:      Singlet-A      6.6350 eV  186.86 nm  f=0.0044  <S**2>=0.000
      12 -> 14         0.12849
      13 -> 15         0.12496
      13 -> 16         0.65483

 Excited State   4:      Singlet-A      6.7563 eV  183.51 nm  f=0.0008  <S**2>=0.000
      12 -> 14         0.68154
      13 -> 16        -0.12005

 Excited State   5:      Singlet-A      7.2336 eV  171.40 nm  f=0.0038  <S**2>=0.000
      11 -> 14         0.68593
      13 -> 16        -0.11177

 Excited State   6:      Singlet-A      7.9181 eV  156.58 nm  f=0.0003  <S**2>=0.000
      13 -> 17         0.67655
      13 -> 21        -0.11819

 Excited State   7:      Singlet-A      8.6036 eV  144.11 nm  f=0.1125  <S**2>=0.000
      10 -> 14         0.69270

 Excited State   8:      Singlet-A      9.2995 eV  133.32 nm  f=0.0302  <S**2>=0.000
       9 -> 15        -0.13064
      11 -> 16         0.37233
      11 -> 18        -0.21052
      12 -> 15         0.30617
      12 -> 17         0.35155
      13 -> 18        -0.11977

 Excited State   9:      Singlet-A      9.3198 eV  133.03 nm  f=0.0054  <S**2>=0.000
       7 -> 16        -0.10397
      10 -> 15         0.29089
      10 -> 16        -0.10695
      11 -> 15         0.10754
      13 -> 18         0.59446

 Excited State  10:      Singlet-A      9.6554 eV  128.41 nm  f=0.1315  <S**2>=0.000
      10 -> 16         0.23097
      11 -> 15         0.10066
      11 -> 16         0.20633
      12 -> 15        -0.31856
      12 -> 16         0.22521
      13 -> 19         0.43733

 Excited State  11:      Singlet-A      9.7542 eV  127.11 nm  f=0.2047  <S**2>=0.000
      10 -> 16         0.21974
      11 -> 16        -0.19271
      12 -> 15         0.35190
      12 -> 16        -0.28401
      13 -> 19         0.38916

 Excited State  12:      Singlet-A      9.8122 eV  126.36 nm  f=0.0203  <S**2>=0.000
      11 -> 15         0.50795
      11 -> 19        -0.16046
      12 -> 15        -0.17618
      12 -> 16        -0.37780

 Excited State  13:      Singlet-A     10.4105 eV  119.10 nm  f=0.0317  <S**2>=0.000
       8 -> 15        -0.14092
       8 -> 16         0.12700
       9 -> 15         0.17500
       9 -> 16         0.10999
      10 -> 15        -0.13012
      11 -> 15        -0.19446
      11 -> 16         0.10046
      11 -> 17         0.33323
      11 -> 19         0.13179
      12 -> 15        -0.17519
      12 -> 16        -0.31097
      12 -> 17         0.14643
      12 -> 18        -0.13908
      12 -> 20         0.10606

 Excited State  14:      Singlet-A     10.4251 eV  118.93 nm  f=0.0113  <S**2>=0.000
      10 -> 15         0.53626
      10 -> 16         0.14910
      11 -> 17         0.11523
      13 -> 15        -0.13301
      13 -> 18        -0.24139
      13 -> 19        -0.19402

 Excited State  15:      Singlet-A     10.5468 eV  117.56 nm  f=0.0027  <S**2>=0.000
       9 -> 14        -0.13948
      10 -> 15        -0.18157
      10 -> 16         0.52904
      13 -> 16         0.12807
      13 -> 18         0.19152
      13 -> 19        -0.25826

 The electronic state is 1-A.
 Alpha  occ. eigenvalues --   -1.84265  -1.14140  -0.89031  -0.78821  -0.76341
 Alpha  occ. eigenvalues --   -0.67139  -0.63238  -0.56272  -0.55020  -0.44637
 Alpha  occ. eigenvalues --   -0.43224  -0.42321  -0.29936
 Alpha virt. eigenvalues --    0.09750   0.17910   0.18493   0.25336   0.28213
 Alpha virt. eigenvalues --    0.30679   0.36273   0.41085   0.46289   0.54073
 Alpha virt. eigenvalues --    0.57838

 Mulliken charges:
               1
     1  C   -0.211878
     2  C   -2.006590
     3  O    3.446824
     4  C   -1.963154
     5  C   -0.185122
     6  H    0.201819
     7  H    0.245357
     8  H    0.269815
     9  H    0.202928
 Sum of Mulliken charges =   0.00000

 Dipole moment (field-independent basis, Debye):
    X=             -0.5902    Y=            -11.5685    Z=             -0.5702  Tot=             11.5975
 N-N= 1.042265890219D+02 E-N=-1.699175525050D+02  KE=-1.440707907321D+01
 Orbital energies and kinetic energies (alpha):
                                 1                 2
   1         O                -1.842652         -1.229627
   2         O                -1.141396         -0.977200
   3         O                -0.890306         -0.814825
   4         O                -0.788211         -0.529728
   5         O                -0.763407         -0.636500
   6         O                -0.671390         -0.546862
   7         O                -0.632379         -0.502878

 Normal termination of Gaussian 09 at Tue Dec 15 17:07:38 2015.
