 Gaussian 09, Revision D.01,
 Gaussian 09:  ES64L-G09RevD.01 24-Apr-2013

 ------------------------------------------------------------
 #P AM1(Input,print) CIS(Singlets,NStates=15) pop(full) force
 ------------------------------------------------------------

 -----------------
 AM1-Reparam Input
 -----------------
 Symbolic Z-matrix:
 Charge =  0 Multiplicity = 1

                         Standard orientation:
 ---------------------------------------------------------------------
 Center     Atomic      Atomic             Coordinates (Angstroms)
 Number     Number       Type             X           Y           Z
 ---------------------------------------------------------------------
      1          6           0        0.924730    0.802116   -0.001519
      2          6           0        0.978904   -0.505533   -0.017753
      3          8           0       -0.216221   -1.150469    0.005277
      4          6           0       -1.100722   -0.163239    0.001189
      5          6           0       -0.573084    1.091656    0.000874
      6          1           0       -1.070051    1.991082   -0.016060
      7          1           0       -2.123968   -0.465702    0.005121
      8          1           0        1.856634   -1.238558    0.028856
      9          1           0        1.688186    1.566931    0.043121
 ---------------------------------------------------------------------

 SCF Done:  E(RAM1) =   1.77169244105     A.U. after   13 cycles

 Excitation energies and oscillator strengths:

 Excited State   1:      Singlet-A      5.0547 eV  245.29 nm  f=0.3824  <S**2>=0.000
      13 -> 14         0.69795
 This state for optimization and/or second-order correction.
 Total Energy, E(CIS) =   1.95744880758
 Copying the excited state density for this state as the 1-particle RhoCI density.

 Excited State   2:      Singlet-A      6.3183 eV  196.23 nm  f=0.0000  <S**2>=0.000
      13 -> 15         0.65673
      13 -> 16        -0.17257
      13 -> 17        -0.12333

 Excited State   3:      Singlet-A      6.6375 eV  186.79 nm  f=0.0011  <S**2>=0.000
      12 -> 14         0.53510
      13 -> 15        -0.13931
      13 -> 16        -0.41928

 Excited State   4:      Singlet-A      6.6487 eV  186.48 nm  f=0.0009  <S**2>=0.000
      12 -> 14         0.45620
      13 -> 15         0.12721
      13 -> 16         0.50223

 Excited State   5:      Singlet-A      8.1642 eV  151.86 nm  f=0.0001  <S**2>=0.000
      11 -> 14         0.11355
      13 -> 15         0.11020
      13 -> 16        -0.11617
      13 -> 17         0.57366
      13 -> 18        -0.29220
      13 -> 22        -0.19480

 Excited State   6:      Singlet-A      8.1967 eV  151.26 nm  f=0.0077  <S**2>=0.000
      11 -> 14         0.68690
      13 -> 18         0.12652

 Excited State   7:      Singlet-A      8.9242 eV  138.93 nm  f=0.0120  <S**2>=0.000
      13 -> 16        -0.10085
      13 -> 17         0.31769
      13 -> 18         0.60500

 Excited State   8:      Singlet-A      9.1582 eV  135.38 nm  f=0.0907  <S**2>=0.000
       8 -> 15         0.11239
      10 -> 14         0.54287
      12 -> 15         0.37140
      12 -> 17        -0.13688

 Excited State   9:      Singlet-A      9.4133 eV  131.71 nm  f=0.0016  <S**2>=0.000
      13 -> 19         0.68383

 Excited State  10:      Singlet-A      9.4518 eV  131.18 nm  f=0.2248  <S**2>=0.000
       9 -> 16        -0.11634
      10 -> 14        -0.37932
      12 -> 15         0.44141
      12 -> 16        -0.25876
      12 -> 17        -0.16480
      12 -> 18         0.11388

 Excited State  11:      Singlet-A     10.0601 eV  123.24 nm  f=0.0420  <S**2>=0.000
       9 -> 15        -0.10566
      10 -> 14        -0.15718
      11 -> 15        -0.12280
      11 -> 18        -0.11437
      12 -> 15         0.31906
      12 -> 16         0.50836
      12 -> 17         0.21995

 Excited State  12:      Singlet-A     10.3937 eV  119.29 nm  f=0.0574  <S**2>=0.000
      13 -> 17        -0.12699
      13 -> 19         0.12328
      13 -> 20         0.50371
      13 -> 22        -0.43207

 Excited State  13:      Singlet-A     10.4190 eV  119.00 nm  f=0.0326  <S**2>=0.000
       9 -> 14        -0.10104
      13 -> 17         0.11650
      13 -> 20         0.44340
      13 -> 22         0.50758

 Excited State  14:      Singlet-A     10.5472 eV  117.55 nm  f=0.0820  <S**2>=0.000
       8 -> 16         0.10942
      11 -> 16        -0.27300
      11 -> 17        -0.12010
      11 -> 18        -0.18886
      12 -> 15         0.12174
      12 -> 16        -0.32339
      12 -> 17         0.34286
      12 -> 18        -0.18455
      12 -> 19        -0.17908
      12 -> 22        -0.12337

 Excited State  15:      Singlet-A     10.8186 eV  114.60 nm  f=0.0197  <S**2>=0.000
       7 -> 15        -0.10579
       8 -> 15        -0.19033
      10 -> 15         0.47390
      11 -> 15        -0.35396
      12 -> 18         0.15500
      13 -> 21        -0.12477

 The electronic state is 1-A.
 Alpha  occ. eigenvalues --   -1.91543  -1.16137  -0.92292  -0.82498  -0.77184
 Alpha  occ. eigenvalues --   -0.70199  -0.67657  -0.54566  -0.54076  -0.46857
 Alpha  occ. eigenvalues --   -0.45755  -0.40443  -0.28059
 Alpha virt. eigenvalues --    0.10510   0.16977   0.18720   0.28237   0.29326
 Alpha virt. eigenvalues --    0.31170   0.34093   0.35053   0.36127   0.44259
 Alpha virt. eigenvalues --    0.47040

 Mulliken charges:
               1
     1  C   -0.134895
     2  C   -1.964098
     3  O    3.269722
     4  C   -2.004946
     5  C   -0.223416
     6  H    0.202714
     7  H    0.333280
     8  H    0.324817
     9  H    0.196820
 Sum of Mulliken charges =   0.00000

 Dipole moment (field-independent basis, Debye):
    X=             -1.7590    Y=            -11.2720    Z=              0.3052  Tot=             11.4125
 N-N= 1.038754536485D+02 E-N=-1.693778401561D+02  KE=-1.548440066860D+01
 Orbital energies and kinetic energies (alpha):
                                 1                 2
   1         O                -1.915429         -1.382394
   2         O                -1.161373         -1.050004
   3         O                -0.922919         -0.887084
   4         O                -0.824979         -0.574934
   5         O                -0.771844         -0.686684
   6         O                -0.701990         -0.570811
   7         O                -0.676566         -0.534875

 Normal termination of Gaussian 09 at Tue Dec 15 17:09:42 2015.
