 Gaussian 09, Revision D.01,
 Gaussian 09:  ES64L-G09RevD.01 24-Apr-2013

 ------------------------------------------------------------
 #P AM1(Input,print) CIS(Singlets,NStates=15) pop(full) force
 ------------------------------------------------------------

 -----------------
 AM1-Reparam Input
 -----------------
 Symbolic Z-matrix:
 Charge =  0 Multiplicity = 1

                         Standard orientation:
 ---------------------------------------------------------------------
 Center     Atomic      Atomic             Coordinates (Angstroms)
 Number     Number       Type             X           Y           Z
 ---------------------------------------------------------------------
      1          6           0       -0.791361    0.865569   -0.019063
      2          6           0       -1.080120   -0.487728    0.038010
      3          8           0        0.150444   -1.116339   -0.018479
      4          6           0        1.149966   -0.213091   -0.005149
      5          6           0        0.564242    0.995773    0.007387
      6          1           0        1.120018    1.939580    0.030739
      7          1           0        2.137831   -0.601887    0.036199
      8          1           0       -1.978883   -1.080538   -0.012795
      9          1           0       -1.538885    1.710418   -0.033425
 ---------------------------------------------------------------------

 SCF Done:  E(RAM1) =  0.247928496700E-01 A.U. after   14 cycles

 Excitation energies and oscillator strengths:

 Excited State   1:      Singlet-A      4.3888 eV  282.50 nm  f=0.1193  <S**2>=0.000
      12 -> 15         0.18601
      13 -> 14         0.67035
 This state for optimization and/or second-order correction.
 Total Energy, E(CIS) =  0.186077303537
 Copying the excited state density for this state as the 1-particle RhoCI density.

 Excited State   2:      Singlet-A      4.6311 eV  267.72 nm  f=0.0020  <S**2>=0.000
      13 -> 15        -0.20255
      13 -> 16         0.65646

 Excited State   3:      Singlet-A      5.0654 eV  244.76 nm  f=0.0078  <S**2>=0.000
      12 -> 14        -0.41312
      13 -> 15         0.53197
      13 -> 16         0.19921

 Excited State   4:      Singlet-A      5.8828 eV  210.76 nm  f=0.0009  <S**2>=0.000
      12 -> 17         0.11499
      12 -> 18         0.12275
      12 -> 22        -0.10434
      13 -> 17         0.29320
      13 -> 18         0.43036
      13 -> 19         0.18309
      13 -> 22        -0.25024
      13 -> 23        -0.18639

 Excited State   5:      Singlet-A      5.9463 eV  208.51 nm  f=0.0019  <S**2>=0.000
       7 -> 16        -0.18247
      12 -> 15        -0.16990
      12 -> 16         0.62569
      12 -> 22         0.10170

 Excited State   6:      Singlet-A      6.0637 eV  204.47 nm  f=0.0009  <S**2>=0.000
      11 -> 14        -0.10707
      12 -> 17        -0.12088
      12 -> 18         0.11531
      12 -> 22        -0.11942
      12 -> 23         0.10791
      13 -> 17         0.36557
      13 -> 18        -0.30757
      13 -> 19         0.16089
      13 -> 20        -0.16621
      13 -> 21        -0.10587
      13 -> 22         0.21563
      13 -> 23        -0.23656

 Excited State   7:      Singlet-A      6.2015 eV  199.93 nm  f=0.3391  <S**2>=0.000
      11 -> 16        -0.13050
      12 -> 14         0.52531
      13 -> 15         0.39381

 Excited State   8:      Singlet-A      6.6169 eV  187.38 nm  f=0.0006  <S**2>=0.000
      13 -> 17        -0.30424
      13 -> 19         0.58438
      13 -> 21        -0.15201

 Excited State   9:      Singlet-A      6.6736 eV  185.78 nm  f=0.1407  <S**2>=0.000
      11 -> 14         0.11306
      12 -> 15         0.63663
      12 -> 16         0.15166
      13 -> 14        -0.16671

 Excited State  10:      Singlet-A      6.8199 eV  181.80 nm  f=0.0115  <S**2>=0.000
      10 -> 14         0.21697
      10 -> 15         0.20084
      11 -> 14         0.58312
      12 -> 15        -0.12815

 Excited State  11:      Singlet-A      7.2491 eV  171.03 nm  f=0.0009  <S**2>=0.000
      10 -> 14        -0.29176
      11 -> 15        -0.13325
      12 -> 19         0.38594
      12 -> 21        -0.12346
      13 -> 18        -0.32659
      13 -> 20         0.11630
      13 -> 22        -0.27376

 Excited State  12:      Singlet-A      7.3046 eV  169.73 nm  f=0.0021  <S**2>=0.000
      10 -> 14         0.46114
      11 -> 14        -0.18278
      11 -> 15         0.21043
      12 -> 17        -0.13331
      12 -> 19         0.18469
      12 -> 21        -0.13123
      13 -> 22        -0.28097

 Excited State  13:      Singlet-A      7.4658 eV  166.07 nm  f=0.0012  <S**2>=0.000
      10 -> 14         0.16705
      12 -> 17         0.19790
      12 -> 18        -0.29433
      12 -> 20         0.10873
      12 -> 22         0.20012
      13 -> 17         0.32123
      13 -> 19         0.13167
      13 -> 20         0.18728
      13 -> 23         0.24938
      13 -> 24         0.12926

 Excited State  14:      Singlet-A      7.5796 eV  163.58 nm  f=0.0034  <S**2>=0.000
       9 -> 15         0.16037
      12 -> 17         0.35798
      12 -> 18         0.18053
      12 -> 21         0.22392
      12 -> 22        -0.10192
      12 -> 23        -0.14110
      13 -> 17        -0.14532
      13 -> 18        -0.16105
      13 -> 20         0.28967
      13 -> 23        -0.17461
      13 -> 24        -0.11600

 Excited State  15:      Singlet-A      7.6153 eV  162.81 nm  f=0.0024  <S**2>=0.000
      12 -> 18         0.16015
      12 -> 19         0.23225
      12 -> 21        -0.23555
      12 -> 23         0.23586
      13 -> 18         0.11561
      13 -> 20         0.24453
      13 -> 21        -0.23525
      13 -> 22         0.34149
      13 -> 23         0.12947

 The electronic state is 1-A.
 Alpha  occ. eigenvalues --   -1.57349  -1.23753  -1.10149  -0.82373  -0.81204
 Alpha  occ. eigenvalues --   -0.68501  -0.60280  -0.57082  -0.50786  -0.49604
 Alpha  occ. eigenvalues --   -0.49320  -0.40059  -0.34100
 Alpha virt. eigenvalues --    0.02800   0.06954   0.09128   0.14196   0.14597
 Alpha virt. eigenvalues --    0.15380   0.17706   0.18746   0.19392   0.20708
 Alpha virt. eigenvalues --    0.22674

 Mulliken charges:
               1
     1  C   -0.197128
     2  C   -0.108758
     3  O   -0.093801
     4  C   -0.087834
     5  C   -0.213192
     6  H    0.149023
     7  H    0.192892
     8  H    0.199277
     9  H    0.159520
 Sum of Mulliken charges =   0.00000

 Dipole moment (field-independent basis, Debye):
    X=             -0.0913    Y=              0.3307    Z=              0.0000  Tot=              0.3430
 N-N= 1.037527781266D+02 E-N=-1.715966917470D+02  KE=-1.656806044185D+01
 Orbital energies and kinetic energies (alpha):
                                 1                 2
   1         O                -1.573492         -1.324208
   2         O                -1.237532         -1.048600
   3         O                -1.101492         -0.961651
   4         O                -0.823731         -0.730764
   5         O                -0.812038         -0.694086
   6         O                -0.685012         -0.604647
   7         O                -0.602801         -0.490104

 Normal termination of Gaussian 09 at Tue Dec 15 16:18:47 2015.
