 Gaussian 09, Revision D.01,
 Gaussian 09:  ES64L-G09RevD.01 24-Apr-2013

 ------------------------------------------------------------
 #P AM1(Input,print) CIS(Singlets,NStates=15) pop(full) force
 ------------------------------------------------------------

 -----------------
 AM1-Reparam Input
 -----------------
 Symbolic Z-matrix:
 Charge =  0 Multiplicity = 1

                         Standard orientation:
 ---------------------------------------------------------------------
 Center     Atomic      Atomic             Coordinates (Angstroms)
 Number     Number       Type             X           Y           Z
 ---------------------------------------------------------------------
      1          6           0       -0.665865    0.957278    0.014724
      2          6           0       -1.132175   -0.269605   -0.006172
      3          8           0       -0.098945   -1.117611    0.002424
      4          6           0        1.108963   -0.423892   -0.004289
      5          6           0        0.776661    0.915995   -0.001533
      6          1           0        1.541009    1.678498   -0.014108
      7          1           0        2.043037   -1.016907    0.012523
      8          1           0       -2.092149   -0.719377   -0.010107
      9          1           0       -1.225847    1.920021   -0.024073
 ---------------------------------------------------------------------

 SCF Done:  E(RAM1) =  0.222916575905E-01 A.U. after   13 cycles

 Excitation energies and oscillator strengths:

 Excited State   1:      Singlet-A      4.5817 eV  270.61 nm  f=0.0859  <S**2>=0.000
      12 -> 15         0.22723
      13 -> 14         0.66103
 This state for optimization and/or second-order correction.
 Total Energy, E(CIS) =  0.190664649863
 Copying the excited state density for this state as the 1-particle RhoCI density.

 Excited State   2:      Singlet-A      4.9488 eV  250.54 nm  f=0.0002  <S**2>=0.000
      13 -> 16         0.68742

 Excited State   3:      Singlet-A      5.1611 eV  240.23 nm  f=0.0021  <S**2>=0.000
      12 -> 14        -0.46013
      13 -> 15         0.53022

 Excited State   4:      Singlet-A      5.7520 eV  215.55 nm  f=0.0017  <S**2>=0.000
       7 -> 16        -0.17722
      12 -> 16         0.65437
      12 -> 22        -0.13681

 Excited State   5:      Singlet-A      5.9410 eV  208.69 nm  f=0.0008  <S**2>=0.000
      12 -> 17        -0.12035
      12 -> 18         0.18176
      12 -> 22         0.12442
      13 -> 17        -0.32430
      13 -> 18         0.38731
      13 -> 21         0.16116
      13 -> 22         0.27375
      13 -> 23        -0.16937

 Excited State   6:      Singlet-A      6.1964 eV  200.09 nm  f=0.3495  <S**2>=0.000
      11 -> 16        -0.14166
      12 -> 14         0.48398
      12 -> 15         0.12215
      13 -> 15         0.43962

 Excited State   7:      Singlet-A      6.2574 eV  198.14 nm  f=0.0007  <S**2>=0.000
      12 -> 19        -0.21809
      12 -> 20         0.10965
      12 -> 22         0.10280
      12 -> 23         0.17611
      13 -> 17        -0.21614
      13 -> 18        -0.19976
      13 -> 19         0.36416
      13 -> 20        -0.11945
      13 -> 22        -0.20934
      13 -> 23        -0.26945

 Excited State   8:      Singlet-A      6.4102 eV  193.42 nm  f=0.1589  <S**2>=0.000
      12 -> 15         0.64522
      13 -> 14        -0.21242

 Excited State   9:      Singlet-A      6.5544 eV  189.16 nm  f=0.0024  <S**2>=0.000
      12 -> 22         0.10904
      13 -> 17         0.47449
      13 -> 18         0.28384
      13 -> 19         0.35997
      13 -> 21         0.14426

 Excited State  10:      Singlet-A      6.8775 eV  180.27 nm  f=0.0018  <S**2>=0.000
       9 -> 15         0.14347
      10 -> 14         0.26969
      10 -> 15         0.19541
      11 -> 14         0.56727

 Excited State  11:      Singlet-A      6.9704 eV  177.87 nm  f=0.0001  <S**2>=0.000
      12 -> 17         0.41508
      12 -> 18         0.32792
      12 -> 19         0.22684
      12 -> 20        -0.18400
      12 -> 21         0.20522
      12 -> 23         0.13336
      13 -> 18        -0.14257
      13 -> 22         0.16940

 Excited State  12:      Singlet-A      7.3433 eV  168.84 nm  f=0.0024  <S**2>=0.000
       9 -> 14         0.15053
      10 -> 14         0.29491
      11 -> 14        -0.18195
      11 -> 15         0.22077
      12 -> 17         0.13520
      12 -> 19        -0.24807
      12 -> 20        -0.12148
      13 -> 18         0.25048
      13 -> 19        -0.24016
      13 -> 20        -0.19153
      13 -> 22        -0.13948

 Excited State  13:      Singlet-A      7.4165 eV  167.17 nm  f=0.0028  <S**2>=0.000
       8 -> 14         0.10827
       9 -> 14         0.13226
       9 -> 15        -0.14413
      10 -> 14         0.39351
      10 -> 15         0.18394
      11 -> 14        -0.20407
      11 -> 15         0.16324
      12 -> 17        -0.12562
      12 -> 19         0.19807
      12 -> 20         0.10299
      12 -> 23        -0.12434
      13 -> 18        -0.20063
      13 -> 19         0.10612
      13 -> 22         0.18967

 Excited State  14:      Singlet-A      7.5573 eV  164.06 nm  f=0.0003  <S**2>=0.000
      12 -> 17        -0.18779
      12 -> 18         0.31418
      12 -> 21        -0.20450
      12 -> 22         0.25284
      13 -> 17         0.22608
      13 -> 18        -0.12060
      13 -> 19        -0.26227
      13 -> 20        -0.14245
      13 -> 23        -0.16101
      13 -> 24         0.15994

 Excited State  15:      Singlet-A      7.6445 eV  162.19 nm  f=0.0037  <S**2>=0.000
       9 -> 14         0.11124
      12 -> 17         0.13373
      12 -> 18        -0.15097
      12 -> 19        -0.23085
      12 -> 21        -0.10194
      13 -> 21        -0.31056
      13 -> 22         0.43355
      13 -> 23        -0.15174

 The electronic state is 1-A.
 Alpha  occ. eigenvalues --   -1.56627  -1.22345  -1.10980  -0.82084  -0.80780
 Alpha  occ. eigenvalues --   -0.68268  -0.60098  -0.56810  -0.51315  -0.49285
 Alpha  occ. eigenvalues --   -0.49063  -0.39134  -0.34892
 Alpha virt. eigenvalues --    0.03336   0.06655   0.09236   0.13614   0.14626
 Alpha virt. eigenvalues --    0.15559   0.17869   0.18161   0.19350   0.20740
 Alpha virt. eigenvalues --    0.22863

 Mulliken charges:
               1
     1  C   -0.220025
     2  C   -0.063670
     3  O   -0.109886
     4  C   -0.111266
     5  C   -0.198554
     6  H    0.159037
     7  H    0.201705
     8  H    0.187401
     9  H    0.155259
 Sum of Mulliken charges =   0.00000

 Dipole moment (field-independent basis, Debye):
    X=              0.1700    Y=              0.2944    Z=             -0.0363  Tot=              0.3419
 N-N= 1.034964837142D+02 E-N=-1.711728273888D+02  KE=-1.654194502908D+01
 Orbital energies and kinetic energies (alpha):
                                 1                 2
   1         O                -1.566272         -1.316329
   2         O                -1.223450         -1.039920
   3         O                -1.109796         -0.968300
   4         O                -0.820840         -0.702258
   5         O                -0.807797         -0.723595
   6         O                -0.682682         -0.602043
   7         O                -0.600977         -0.488996

 Normal termination of Gaussian 09 at Tue Dec 15 16:18:05 2015.
