 Gaussian 09, Revision D.01,
 Gaussian 09:  ES64L-G09RevD.01 24-Apr-2013

 ------------------------------------------------------------
 #P AM1(Input,print) CIS(Singlets,NStates=15) pop(full) force
 ------------------------------------------------------------

 -----------------
 AM1-Reparam Input
 -----------------
 Symbolic Z-matrix:
 Charge =  0 Multiplicity = 1

                         Standard orientation:
 ---------------------------------------------------------------------
 Center     Atomic      Atomic             Coordinates (Angstroms)
 Number     Number       Type             X           Y           Z
 ---------------------------------------------------------------------
      1          6           0        0.891225    0.800723    0.015921
      2          6           0        1.016608   -0.509661    0.031629
      3          8           0       -0.214954   -1.150807   -0.014098
      4          6           0       -1.141199   -0.136255   -0.007561
      5          6           0       -0.532356    1.050949   -0.024795
      6          1           0       -1.111574    2.035757    0.060398
      7          1           0       -2.156911   -0.506916    0.075583
      8          1           0        1.919511   -1.151118   -0.050373
      9          1           0        1.662937    1.594196   -0.063994
 ---------------------------------------------------------------------

 SCF Done:  E(RAM1) =   1.11481381916     A.U. after   14 cycles

 Excitation energies and oscillator strengths:

 Excited State   1:      Singlet-A      5.3915 eV  229.96 nm  f=0.1924  <S**2>=0.000
      12 -> 15        -0.13906
      13 -> 14         0.67847
 This state for optimization and/or second-order correction.
 Total Energy, E(CIS) =   1.31294763799
 Copying the excited state density for this state as the 1-particle RhoCI density.

 Excited State   2:      Singlet-A      6.3869 eV  194.12 nm  f=0.0086  <S**2>=0.000
      13 -> 15        -0.17047
      13 -> 16         0.64154
      13 -> 19        -0.15349
      13 -> 20         0.10611

 Excited State   3:      Singlet-A      6.5653 eV  188.85 nm  f=0.0208  <S**2>=0.000
      12 -> 14         0.20960
      13 -> 15         0.49257
      13 -> 16         0.19737
      13 -> 17        -0.37280
      13 -> 21         0.10578

 Excited State   4:      Singlet-A      6.7259 eV  184.34 nm  f=0.0176  <S**2>=0.000
      12 -> 14         0.22691
      13 -> 15         0.34022
      13 -> 17         0.54159
      13 -> 21        -0.10519

 Excited State   5:      Singlet-A      7.2700 eV  170.54 nm  f=0.0005  <S**2>=0.000
       9 -> 14         0.13093
      11 -> 14         0.68672

 Excited State   6:      Singlet-A      7.8207 eV  158.53 nm  f=0.0055  <S**2>=0.000
      10 -> 14         0.65363
      11 -> 15         0.18788
      13 -> 20         0.10287

 Excited State   7:      Singlet-A      7.9972 eV  155.03 nm  f=0.1458  <S**2>=0.000
      12 -> 14         0.48525
      13 -> 15        -0.23511
      13 -> 18        -0.38792
      13 -> 24         0.10915

 Excited State   8:      Singlet-A      8.0316 eV  154.37 nm  f=0.0989  <S**2>=0.000
      12 -> 14         0.36926
      12 -> 16         0.12026
      13 -> 15        -0.15982
      13 -> 17        -0.13709
      13 -> 18         0.49935
      13 -> 19        -0.10950
      13 -> 24        -0.12795

 Excited State   9:      Singlet-A      8.2432 eV  150.41 nm  f=0.0005  <S**2>=0.000
      13 -> 16        -0.12122
      13 -> 20         0.65618
      13 -> 23         0.12189

 Excited State  10:      Singlet-A      8.4705 eV  146.37 nm  f=0.0343  <S**2>=0.000
       6 -> 15         0.11212
       9 -> 15        -0.22614
      10 -> 14        -0.20492
      11 -> 15         0.56313
      12 -> 15        -0.23128

 Excited State  11:      Singlet-A      8.6072 eV  144.05 nm  f=0.1275  <S**2>=0.000
       9 -> 17        -0.12102
      11 -> 15         0.21688
      12 -> 15         0.55319
      12 -> 16        -0.13454
      12 -> 17        -0.12708
      13 -> 14         0.11757
      13 -> 19         0.14006

 Excited State  12:      Singlet-A      8.7800 eV  141.21 nm  f=0.0244  <S**2>=0.000
      12 -> 15         0.14669
      12 -> 16         0.62757
      12 -> 20         0.10402
      13 -> 18        -0.10256

 Excited State  13:      Singlet-A      8.8130 eV  140.68 nm  f=0.0177  <S**2>=0.000
      12 -> 15        -0.14614
      12 -> 16         0.12259
      12 -> 17        -0.39541
      13 -> 18         0.10128
      13 -> 19         0.50059

 Excited State  14:      Singlet-A      9.2475 eV  134.07 nm  f=0.0017  <S**2>=0.000
      12 -> 17         0.22512
      13 -> 17         0.11292
      13 -> 18         0.10248
      13 -> 21         0.59847
      13 -> 22         0.17026

 Excited State  15:      Singlet-A      9.3877 eV  132.07 nm  f=0.0093  <S**2>=0.000
       9 -> 14        -0.12637
       9 -> 17        -0.10348
      10 -> 16        -0.16134
      10 -> 17        -0.13676
      10 -> 19         0.14451
      10 -> 20         0.10274
      11 -> 16         0.23682
      11 -> 17        -0.13276
      11 -> 18        -0.23879
      12 -> 15        -0.13665
      12 -> 17         0.32816
      13 -> 19         0.25346
      13 -> 21        -0.13853

 The electronic state is 1-A.
 Alpha  occ. eigenvalues --   -1.80940  -1.19049  -0.98209  -0.86707  -0.80002
 Alpha  occ. eigenvalues --   -0.72903  -0.71160  -0.59677  -0.55589  -0.50945
 Alpha  occ. eigenvalues --   -0.48771  -0.47078  -0.36986
 Alpha virt. eigenvalues --    0.04172   0.09065   0.10840   0.11221   0.18306
 Alpha virt. eigenvalues --    0.18917   0.19888   0.22167   0.26606   0.27328
 Alpha virt. eigenvalues --    0.27895

 Mulliken charges:
               1
     1  C   -0.125722
     2  C   -1.228126
     3  O    2.101017
     4  C   -1.206077
     5  C   -0.166175
     6  H    0.120166
     7  H    0.188023
     8  H    0.205323
     9  H    0.111571
 Sum of Mulliken charges =   0.00000

 Dipole moment (field-independent basis, Debye):
    X=             -1.2704    Y=             -7.3641    Z=             -0.2140  Tot=              7.4759
 N-N= 1.040720068597D+02 E-N=-1.708416599647D+02  KE=-1.491240187056D+01
 Orbital energies and kinetic energies (alpha):
                                 1                 2
   1         O                -1.809396         -1.229480
   2         O                -1.190492         -0.967301
   3         O                -0.982092         -0.825255
   4         O                -0.867073         -0.613435
   5         O                -0.800022         -0.674756
   6         O                -0.729030         -0.578278
   7         O                -0.711600         -0.515940

 Normal termination of Gaussian 09 at Tue Dec 15 17:05:46 2015.
