 Gaussian 09, Revision D.01,
 Gaussian 09:  ES64L-G09RevD.01 24-Apr-2013

 ------------------------------------------------------------
 #P AM1(Input,print) CIS(Singlets,NStates=15) pop(full) force
 ------------------------------------------------------------

 -----------------
 AM1-Reparam Input
 -----------------
 Symbolic Z-matrix:
 Charge =  0 Multiplicity = 1

                         Standard orientation:
 ---------------------------------------------------------------------
 Center     Atomic      Atomic             Coordinates (Angstroms)
 Number     Number       Type             X           Y           Z
 ---------------------------------------------------------------------
      1          6           0        0.070270    1.220215    0.033094
      2          6           0        1.095662    0.248151    0.007007
      3          8           0        0.629743   -0.973439   -0.014514
      4          6           0       -0.702132   -0.852046    0.007143
      5          6           0       -1.140103    0.409482   -0.025611
      6          1           0       -2.147956    0.807186   -0.000010
      7          1           0       -1.313116   -1.781554    0.064889
      8          1           0        2.230622    0.359411   -0.013713
      9          1           0        0.250327    2.247660   -0.064854
 ---------------------------------------------------------------------

 SCF Done:  E(RAM1) =   1.72231985834     A.U. after   14 cycles

 Excitation energies and oscillator strengths:

 Excited State   1:      Singlet-A      5.4498 eV  227.50 nm  f=0.3745  <S**2>=0.000
      13 -> 14         0.69520
 This state for optimization and/or second-order correction.
 Total Energy, E(CIS) =   1.92259801769
 Copying the excited state density for this state as the 1-particle RhoCI density.

 Excited State   2:      Singlet-A      6.9338 eV  178.81 nm  f=0.0017  <S**2>=0.000
      10 -> 15        -0.10413
      13 -> 15         0.66728
      13 -> 17        -0.17406

 Excited State   3:      Singlet-A      7.0264 eV  176.45 nm  f=0.0004  <S**2>=0.000
      12 -> 14         0.69831

 Excited State   4:      Singlet-A      7.1350 eV  173.77 nm  f=0.0029  <S**2>=0.000
      10 -> 16         0.10964
      13 -> 16         0.67350
      13 -> 18         0.13495

 Excited State   5:      Singlet-A      8.0168 eV  154.66 nm  f=0.0064  <S**2>=0.000
      11 -> 14         0.69842

 Excited State   6:      Singlet-A      8.7652 eV  141.45 nm  f=0.0005  <S**2>=0.000
      13 -> 15         0.14141
      13 -> 17         0.46387
      13 -> 18         0.43855
      13 -> 21         0.22664

 Excited State   7:      Singlet-A      9.1644 eV  135.29 nm  f=0.0167  <S**2>=0.000
      13 -> 16         0.10167
      13 -> 17         0.47712
      13 -> 18        -0.46778
      13 -> 21        -0.12010

 Excited State   8:      Singlet-A      9.2456 eV  134.10 nm  f=0.0979  <S**2>=0.000
      10 -> 14         0.66937
      12 -> 16        -0.11846

 Excited State   9:      Singlet-A      9.7206 eV  127.55 nm  f=0.0006  <S**2>=0.000
      13 -> 19         0.68687

 Excited State  10:      Singlet-A      9.8256 eV  126.18 nm  f=0.0939  <S**2>=0.000
       8 -> 15         0.13146
       8 -> 16         0.11783
      10 -> 14        -0.11985
      11 -> 16         0.13041
      11 -> 17        -0.15511
      12 -> 15         0.40808
      12 -> 16        -0.33281
      12 -> 17        -0.15399
      12 -> 18        -0.22354

 Excited State  11:      Singlet-A     10.3192 eV  120.15 nm  f=0.0362  <S**2>=0.000
      10 -> 14         0.10946
      11 -> 15        -0.21381
      12 -> 15         0.42992
      12 -> 16         0.45438
      12 -> 17        -0.11576

 Excited State  12:      Singlet-A     10.4275 eV  118.90 nm  f=0.1666  <S**2>=0.000
       9 -> 15        -0.13899
      11 -> 15         0.40636
      11 -> 16         0.20744
      11 -> 17        -0.20960
      11 -> 18         0.10996
      12 -> 15        -0.15766
      12 -> 16         0.32319
      12 -> 18        -0.13713
      12 -> 19        -0.10642

 Excited State  13:      Singlet-A     10.6532 eV  116.38 nm  f=0.0022  <S**2>=0.000
      10 -> 15        -0.38627
      13 -> 15        -0.10223
      13 -> 17        -0.11582
      13 -> 18        -0.19647
      13 -> 20         0.11546
      13 -> 21         0.48697

 Excited State  14:      Singlet-A     10.6820 eV  116.07 nm  f=0.0609  <S**2>=0.000
       8 -> 14         0.12504
      10 -> 15         0.35497
      11 -> 16        -0.10791
      13 -> 20         0.52575
      13 -> 21         0.18627

 Excited State  15:      Singlet-A     10.7598 eV  115.23 nm  f=0.0444  <S**2>=0.000
       8 -> 14         0.10392
      10 -> 15        -0.26662
      10 -> 16        -0.14398
      11 -> 15        -0.14361
      11 -> 16         0.11331
      12 -> 15        -0.10359
      12 -> 17        -0.10993
      13 -> 18         0.11224
      13 -> 20         0.37304
      13 -> 21        -0.34810

 The electronic state is 1-A.
 Alpha  occ. eigenvalues --   -1.91655  -1.16778  -0.91213  -0.82369  -0.76665
 Alpha  occ. eigenvalues --   -0.69728  -0.68013  -0.55303  -0.54461  -0.46605
 Alpha  occ. eigenvalues --   -0.45290  -0.42038  -0.30345
 Alpha virt. eigenvalues --    0.10487   0.17293   0.18295   0.27000   0.28873
 Alpha virt. eigenvalues --    0.30097   0.32966   0.35430   0.36847   0.45594
 Alpha virt. eigenvalues --    0.49184

 Mulliken charges:
               1
     1  C   -0.196365
     2  C   -2.042847
     3  O    3.281678
     4  C   -2.019834
     5  C   -0.117300
     6  H    0.199737
     7  H    0.346496
     8  H    0.342840
     9  H    0.205595
 Sum of Mulliken charges =   0.00000

 Dipole moment (field-independent basis, Debye):
    X=              5.5086    Y=             -9.0202    Z=             -0.3066  Tot=             10.5737
 N-N= 1.039146845330D+02 E-N=-1.694985281615D+02  KE=-1.547692315807D+01
 Orbital energies and kinetic energies (alpha):
                                 1                 2
   1         O                -1.916547         -1.397680
   2         O                -1.167779         -1.052668
   3         O                -0.912134         -0.879185
   4         O                -0.823687         -0.564912
   5         O                -0.766650         -0.682275
   6         O                -0.697277         -0.588746
   7         O                -0.680132         -0.536556

 Normal termination of Gaussian 09 at Tue Dec 15 17:09:47 2015.
