 Gaussian 09, Revision D.01,
 Gaussian 09:  ES64L-G09RevD.01 24-Apr-2013

 ------------------------------------------------------------
 #P AM1(Input,print) CIS(Singlets,NStates=15) pop(full) force
 ------------------------------------------------------------

 -----------------
 AM1-Reparam Input
 -----------------
 Symbolic Z-matrix:
 Charge =  0 Multiplicity = 1

                         Standard orientation:
 ---------------------------------------------------------------------
 Center     Atomic      Atomic             Coordinates (Angstroms)
 Number     Number       Type             X           Y           Z
 ---------------------------------------------------------------------
      1          6           0       -0.885000    0.851222   -0.017525
      2          6           0       -1.028314   -0.529937    0.024752
      3          8           0        0.176282   -1.125813   -0.025403
      4          6           0        1.140646   -0.185201    0.009596
      5          6           0        0.603293    1.036301    0.004514
      6          1           0        1.084755    1.957468   -0.002401
      7          1           0        2.141008   -0.531214    0.041122
      8          1           0       -1.941124   -1.084861    0.040854
      9          1           0       -1.678640    1.630808   -0.004370
 ---------------------------------------------------------------------

 SCF Done:  E(RAM1) =   2.51386172388     A.U. after   13 cycles

 Excitation energies and oscillator strengths:

 Excited State   1:      Singlet-A      5.0896 eV  243.60 nm  f=0.3659  <S**2>=0.000
      13 -> 14         0.69740
 This state for optimization and/or second-order correction.
 Total Energy, E(CIS) =   2.70090200008
 Copying the excited state density for this state as the 1-particle RhoCI density.

 Excited State   2:      Singlet-A      6.3785 eV  194.38 nm  f=0.0040  <S**2>=0.000
      13 -> 15         0.16757
      13 -> 16         0.63231
      13 -> 17        -0.16757
      13 -> 18         0.15116

 Excited State   3:      Singlet-A      6.3869 eV  194.12 nm  f=0.0017  <S**2>=0.000
      13 -> 15         0.64194
      13 -> 16        -0.15037
      13 -> 17        -0.11011
      13 -> 18        -0.14778
      13 -> 19         0.12549

 Excited State   4:      Singlet-A      6.5666 eV  188.81 nm  f=0.0004  <S**2>=0.000
       9 -> 14        -0.11672
      12 -> 14         0.69364

 Excited State   5:      Singlet-A      7.5827 eV  163.51 nm  f=0.0001  <S**2>=0.000
      13 -> 16        -0.15953
      13 -> 18         0.58743
      13 -> 20         0.25439
      13 -> 21        -0.20100

 Excited State   6:      Singlet-A      7.9424 eV  156.10 nm  f=0.0059  <S**2>=0.000
      10 -> 14         0.66998
      13 -> 17        -0.19080

 Excited State   7:      Singlet-A      8.2654 eV  150.00 nm  f=0.0034  <S**2>=0.000
      10 -> 14         0.20692
      11 -> 16        -0.10436
      13 -> 15         0.12733
      13 -> 16         0.10127
      13 -> 17         0.63972

 Excited State   8:      Singlet-A      8.6562 eV  143.23 nm  f=0.1140  <S**2>=0.000
      11 -> 14         0.68693

 Excited State   9:      Singlet-A      8.7697 eV  141.38 nm  f=0.0021  <S**2>=0.000
      13 -> 16         0.10224
      13 -> 19         0.67735

 Excited State  10:      Singlet-A      9.2032 eV  134.72 nm  f=0.0154  <S**2>=0.000
      13 -> 18        -0.30967
      13 -> 20         0.53880
      13 -> 21        -0.29766

 Excited State  11:      Singlet-A      9.3917 eV  132.01 nm  f=0.0962  <S**2>=0.000
       8 -> 15        -0.11101
      10 -> 17        -0.18847
      12 -> 15        -0.31052
      12 -> 16         0.41133
      12 -> 18         0.32996

 Excited State  12:      Singlet-A      9.5968 eV  129.19 nm  f=0.0033  <S**2>=0.000
       9 -> 14         0.67447
      12 -> 14         0.11634
      13 -> 20        -0.11637

 Excited State  13:      Singlet-A      9.6924 eV  127.92 nm  f=0.0857  <S**2>=0.000
      12 -> 15         0.14543
      13 -> 20         0.32660
      13 -> 21         0.57916

 Excited State  14:      Singlet-A      9.7287 eV  127.44 nm  f=0.0402  <S**2>=0.000
       9 -> 15         0.12280
      10 -> 15         0.19402
      10 -> 17        -0.10636
      12 -> 15         0.54468
      12 -> 16         0.21686
      12 -> 17        -0.10941
      12 -> 18         0.12025
      13 -> 21        -0.13478

 Excited State  15:      Singlet-A      9.9949 eV  124.05 nm  f=0.1118  <S**2>=0.000
       9 -> 16         0.12980
      10 -> 15        -0.18313
      10 -> 16        -0.29098
      10 -> 17         0.19352
      12 -> 16         0.44322
      12 -> 18        -0.22832
      12 -> 19        -0.14537
      12 -> 20        -0.12987

 The electronic state is 1-A.
 Alpha  occ. eigenvalues --   -1.74375  -1.13947  -0.96193  -0.81441  -0.76206
 Alpha  occ. eigenvalues --   -0.67305  -0.64602  -0.56225  -0.49587  -0.45552
 Alpha  occ. eigenvalues --   -0.44631  -0.40895  -0.28617
 Alpha virt. eigenvalues --    0.09900   0.17727   0.18213   0.25520   0.26442
 Alpha virt. eigenvalues --    0.28445   0.29858   0.31125   0.40560   0.49345
 Alpha virt. eigenvalues --    0.54698

 Mulliken charges:
               1
     1  C   -0.082910
     2  C   -1.959527
     3  O    3.231988
     4  C   -1.915158
     5  C   -0.061299
     6  H    0.119881
     7  H    0.263195
     8  H    0.280363
     9  H    0.123467
 Sum of Mulliken charges =   0.00000

 Dipole moment (field-independent basis, Debye):
    X=              1.5817    Y=             -9.9283    Z=             -0.4831  Tot=             10.0651
 N-N= 1.035827224244D+02 E-N=-1.683349868796D+02  KE=-1.501121790729D+01
 Orbital energies and kinetic energies (alpha):
                                 1                 2
   1         O                -1.743749         -1.243327
   2         O                -1.139467         -0.994126
   3         O                -0.961934         -0.865631
   4         O                -0.814413         -0.616349
   5         O                -0.762060         -0.698240
   6         O                -0.673051         -0.563699
   7         O                -0.646022         -0.515964

 Normal termination of Gaussian 09 at Tue Dec 15 17:06:23 2015.
