 Gaussian 09, Revision D.01,
 Gaussian 09:  ES64L-G09RevD.01 24-Apr-2013

 ------------------------------------------------------------
 #P AM1(Input,print) CIS(Singlets,NStates=15) pop(full) force
 ------------------------------------------------------------

 -----------------
 AM1-Reparam Input
 -----------------
 Symbolic Z-matrix:
 Charge =  0 Multiplicity = 1

                         Standard orientation:
 ---------------------------------------------------------------------
 Center     Atomic      Atomic             Coordinates (Angstroms)
 Number     Number       Type             X           Y           Z
 ---------------------------------------------------------------------
      1          6           0        0.657691    0.968838    0.044262
      2          6           0        1.142680   -0.235774   -0.032656
      3          8           0        0.098969   -1.115651    0.020825
      4          6           0       -1.072876   -0.403624   -0.016764
      5          6           0       -0.822255    0.845673   -0.004951
      6          1           0       -1.530414    1.715047   -0.027783
      7          1           0       -1.984058   -1.063644    0.006417
      8          1           0        2.122164   -0.697798   -0.032013
      9          1           0        1.169120    1.920926   -0.052563
 ---------------------------------------------------------------------

 SCF Done:  E(RAM1) =   1.90313619698     A.U. after   14 cycles

 Excitation energies and oscillator strengths:

 Excited State   1:      Singlet-A      5.2185 eV  237.58 nm  f=0.3433  <S**2>=0.000
      13 -> 14         0.69288
 This state for optimization and/or second-order correction.
 Total Energy, E(CIS) =   2.09491424082
 Copying the excited state density for this state as the 1-particle RhoCI density.

 Excited State   2:      Singlet-A      5.7344 eV  216.21 nm  f=0.0004  <S**2>=0.000
      13 -> 15         0.67405
      13 -> 18        -0.10299
      13 -> 19        -0.11046

 Excited State   3:      Singlet-A      6.0546 eV  204.78 nm  f=0.0016  <S**2>=0.000
      13 -> 16         0.66896
      13 -> 17        -0.13982

 Excited State   4:      Singlet-A      6.3082 eV  196.55 nm  f=0.0030  <S**2>=0.000
      12 -> 14         0.70119

 Excited State   5:      Singlet-A      7.4204 eV  167.08 nm  f=0.0006  <S**2>=0.000
      13 -> 15         0.10595
      13 -> 18         0.63268
      13 -> 19         0.12419
      13 -> 21        -0.24711

 Excited State   6:      Singlet-A      7.5935 eV  163.28 nm  f=0.0117  <S**2>=0.000
      11 -> 14         0.42493
      13 -> 16         0.11157
      13 -> 17         0.54502

 Excited State   7:      Singlet-A      7.7909 eV  159.14 nm  f=0.0004  <S**2>=0.000
      11 -> 14         0.55983
      13 -> 17        -0.41492

 Excited State   8:      Singlet-A      8.4186 eV  147.27 nm  f=0.1117  <S**2>=0.000
       8 -> 15        -0.10707
      11 -> 17        -0.14404
      12 -> 15         0.57033
      12 -> 16        -0.17841
      12 -> 18        -0.23429
      12 -> 19        -0.10065

 Excited State   9:      Singlet-A      8.4874 eV  146.08 nm  f=0.0007  <S**2>=0.000
      13 -> 18        -0.15683
      13 -> 19         0.67204

 Excited State  10:      Singlet-A      8.8353 eV  140.33 nm  f=0.0027  <S**2>=0.000
      10 -> 14        -0.40927
      11 -> 18         0.11486
      12 -> 15         0.15379
      12 -> 16         0.45645
      12 -> 18         0.14355
      13 -> 22        -0.10480

 Excited State  11:      Singlet-A      9.2215 eV  134.45 nm  f=0.0795  <S**2>=0.000
       9 -> 15         0.13330
      10 -> 14         0.31337
      11 -> 15        -0.26292
      11 -> 16        -0.11213
      11 -> 17         0.21509
      12 -> 15         0.27807
      12 -> 17        -0.15749
      12 -> 18         0.27959
      13 -> 20        -0.16021
      13 -> 21         0.10661

 Excited State  12:      Singlet-A      9.2895 eV  133.47 nm  f=0.0128  <S**2>=0.000
      10 -> 14        -0.16748
      12 -> 16        -0.20459
      13 -> 18         0.21658
      13 -> 21         0.56998

 Excited State  13:      Singlet-A      9.3184 eV  133.05 nm  f=0.0714  <S**2>=0.000
       9 -> 16         0.10335
      10 -> 14         0.25881
      11 -> 16         0.21178
      11 -> 17        -0.13967
      12 -> 16         0.33559
      12 -> 18        -0.24574
      13 -> 20         0.22442
      13 -> 21         0.27990

 Excited State  14:      Singlet-A      9.3788 eV  132.20 nm  f=0.0936  <S**2>=0.000
      11 -> 17         0.11081
      12 -> 18         0.15514
      13 -> 20         0.63341

 Excited State  15:      Singlet-A      9.8349 eV  126.07 nm  f=0.1350  <S**2>=0.000
       8 -> 15        -0.15577
       9 -> 15        -0.19654
      10 -> 14         0.27462
      11 -> 15         0.42030
      11 -> 19        -0.18625
      12 -> 15         0.12223
      12 -> 16         0.14491
      12 -> 17         0.18716
      12 -> 18         0.19016

 The electronic state is 1-A.
 Alpha  occ. eigenvalues --   -1.95608  -1.21659  -0.99876  -0.81360  -0.80208
 Alpha  occ. eigenvalues --   -0.69771  -0.66625  -0.52972  -0.49192  -0.43515
 Alpha  occ. eigenvalues --   -0.40840  -0.36328  -0.25578
 Alpha virt. eigenvalues --    0.13686   0.17668   0.19097   0.27003   0.28184
 Alpha virt. eigenvalues --    0.30960   0.32835   0.34811   0.35310   0.44157
 Alpha virt. eigenvalues --    0.48936

 Mulliken charges:
               1
     1  C   -0.164980
     2  C   -1.882236
     3  O    3.129816
     4  C   -1.867076
     5  C   -0.119362
     6  H    0.152845
     7  H    0.292400
     8  H    0.298046
     9  H    0.160546
 Sum of Mulliken charges =   0.00000

 Dipole moment (field-independent basis, Debye):
    X=              0.6491    Y=            -10.6554    Z=              0.5361  Tot=             10.6886
 N-N= 1.044960498519D+02 E-N=-1.702425114817D+02  KE=-1.567263714740D+01
 Orbital energies and kinetic energies (alpha):
                                 1                 2
   1         O                -1.956083         -1.425996
   2         O                -1.216589         -1.069028
   3         O                -0.998765         -0.916730
   4         O                -0.813603         -0.616310
   5         O                -0.802083         -0.700825
   6         O                -0.697713         -0.578921
   7         O                -0.666246         -0.567924

 Normal termination of Gaussian 09 at Tue Dec 15 17:09:56 2015.
