 Gaussian 09, Revision D.01,
 Gaussian 09:  ES64L-G09RevD.01 24-Apr-2013

 ------------------------------------------------------------
 #P AM1(Input,print) CIS(Singlets,NStates=15) pop(full) force
 ------------------------------------------------------------

 -----------------
 AM1-Reparam Input
 -----------------
 Symbolic Z-matrix:
 Charge =  0 Multiplicity = 1

                         Standard orientation:
 ---------------------------------------------------------------------
 Center     Atomic      Atomic             Coordinates (Angstroms)
 Number     Number       Type             X           Y           Z
 ---------------------------------------------------------------------
      1          6           0        1.041420    0.649805   -0.038434
      2          6           0        0.885524   -0.662698    0.043344
      3          8           0       -0.430291   -1.099748   -0.015550
      4          6           0       -1.099306    0.047668   -0.016891
      5          6           0       -0.381449    1.131555    0.027832
      6          1           0       -0.679998    2.150430    0.006740
      7          1           0       -2.171500   -0.081625    0.031763
      8          1           0        1.677080   -1.468754   -0.000150
      9          1           0        1.939605    1.199960   -0.009059
 ---------------------------------------------------------------------

 SCF Done:  E(RAM1) =   1.76686348611     A.U. after   14 cycles

 Excitation energies and oscillator strengths:

 Excited State   1:      Singlet-A      4.9952 eV  248.21 nm  f=0.3389  <S**2>=0.000
      13 -> 14         0.69582
 This state for optimization and/or second-order correction.
 Total Energy, E(CIS) =   1.95043395788
 Copying the excited state density for this state as the 1-particle RhoCI density.

 Excited State   2:      Singlet-A      5.5006 eV  225.40 nm  f=0.0010  <S**2>=0.000
      13 -> 15         0.67107
      13 -> 16        -0.10834
      13 -> 18         0.12581

 Excited State   3:      Singlet-A      5.7763 eV  214.64 nm  f=0.0007  <S**2>=0.000
      11 -> 16        -0.10682
      13 -> 15         0.11901
      13 -> 16         0.65881
      13 -> 17         0.12797
      13 -> 18        -0.12646

 Excited State   4:      Singlet-A      6.6544 eV  186.32 nm  f=0.0009  <S**2>=0.000
      12 -> 14         0.68684
      13 -> 19        -0.10738

 Excited State   5:      Singlet-A      7.0092 eV  176.89 nm  f=0.0009  <S**2>=0.000
      12 -> 14        -0.13844
      13 -> 16         0.14417
      13 -> 17        -0.20803
      13 -> 18         0.38399
      13 -> 19        -0.36932
      13 -> 21        -0.34247

 Excited State   6:      Singlet-A      7.4194 eV  167.11 nm  f=0.0248  <S**2>=0.000
      13 -> 15        -0.12213
      13 -> 17         0.64861
      13 -> 18         0.14841
      13 -> 19        -0.16510

 Excited State   7:      Singlet-A      8.0117 eV  154.75 nm  f=0.0001  <S**2>=0.000
      13 -> 18         0.50950
      13 -> 19         0.18747
      13 -> 21         0.42869

 Excited State   8:      Singlet-A      8.2715 eV  149.89 nm  f=0.0022  <S**2>=0.000
      13 -> 18         0.17559
      13 -> 19         0.51519
      13 -> 21        -0.43056

 Excited State   9:      Singlet-A      8.3169 eV  149.07 nm  f=0.0015  <S**2>=0.000
      10 -> 14         0.65905
      13 -> 20         0.22521

 Excited State  10:      Singlet-A      8.5692 eV  144.69 nm  f=0.0521  <S**2>=0.000
      11 -> 14         0.62384
      12 -> 15        -0.20590
      12 -> 16        -0.12571

 Excited State  11:      Singlet-A      8.6559 eV  143.24 nm  f=0.0831  <S**2>=0.000
      10 -> 14        -0.21671
      12 -> 15        -0.12092
      12 -> 16         0.12942
      13 -> 20         0.61967

 Excited State  12:      Singlet-A      8.8793 eV  139.63 nm  f=0.2680  <S**2>=0.000
       8 -> 15        -0.15240
       8 -> 16        -0.12706
      10 -> 17        -0.11533
      12 -> 15        -0.40008
      12 -> 16         0.40024
      12 -> 18        -0.17310
      13 -> 20        -0.20969

 Excited State  13:      Singlet-A      9.3128 eV  133.13 nm  f=0.1164  <S**2>=0.000
       8 -> 16        -0.14217
      11 -> 14         0.24908
      11 -> 15         0.24451
      11 -> 16         0.11380
      12 -> 15         0.40962
      12 -> 16         0.36352

 Excited State  14:      Singlet-A      9.4702 eV  130.92 nm  f=0.0378  <S**2>=0.000
       7 -> 15        -0.12837
      11 -> 14        -0.11891
      11 -> 15         0.60528
      12 -> 15        -0.15758
      12 -> 16        -0.16681

 Excited State  15:      Singlet-A      9.6764 eV  128.13 nm  f=0.0062  <S**2>=0.000
       7 -> 16         0.11515
      11 -> 15        -0.13669
      11 -> 16         0.64161
      13 -> 16         0.11823

 The electronic state is 1-A.
 Alpha  occ. eigenvalues --   -1.91589  -1.21954  -0.99578  -0.82344  -0.79199
 Alpha  occ. eigenvalues --   -0.69063  -0.63423  -0.51768  -0.50902  -0.43969
 Alpha  occ. eigenvalues --   -0.41872  -0.38399  -0.25076
 Alpha virt. eigenvalues --    0.13206   0.17109   0.18258   0.27230   0.28676
 Alpha virt. eigenvalues --    0.29287   0.30441   0.31054   0.36740   0.46470
 Alpha virt. eigenvalues --    0.49669

 Mulliken charges:
               1
     1  C   -0.116997
     2  C   -1.894877
     3  O    3.154689
     4  C   -1.883410
     5  C   -0.179359
     6  H    0.171277
     7  H    0.290436
     8  H    0.289124
     9  H    0.169116
 Sum of Mulliken charges =   0.00000

 Dipole moment (field-independent basis, Debye):
    X=             -4.1146    Y=            -10.4758    Z=             -0.3822  Tot=             11.2614
 N-N= 1.041502864021D+02 E-N=-1.698362980508D+02  KE=-1.574781350295D+01
 Orbital energies and kinetic energies (alpha):
                                 1                 2
   1         O                -1.915887         -1.384075
   2         O                -1.219545         -1.108831
   3         O                -0.995782         -0.930166
   4         O                -0.823441         -0.627143
   5         O                -0.791994         -0.687777
   6         O                -0.690631         -0.574877
   7         O                -0.634227         -0.515298

 Normal termination of Gaussian 09 at Tue Dec 15 17:07:01 2015.
