 Gaussian 09, Revision D.01,
 Gaussian 09:  ES64L-G09RevD.01 24-Apr-2013

 ------------------------------------------------------------
 #P AM1(Input,print) CIS(Singlets,NStates=15) pop(full) force
 ------------------------------------------------------------

 -----------------
 AM1-Reparam Input
 -----------------
 Symbolic Z-matrix:
 Charge =  0 Multiplicity = 1

                         Standard orientation:
 ---------------------------------------------------------------------
 Center     Atomic      Atomic             Coordinates (Angstroms)
 Number     Number       Type             X           Y           Z
 ---------------------------------------------------------------------
      1          6           0       -0.975310    0.715668   -0.009273
      2          6           0       -0.928919   -0.602198   -0.018064
      3          8           0        0.318882   -1.148367    0.018147
      4          6           0        1.166129   -0.012823   -0.013168
      5          6           0        0.405930    1.103118    0.015270
      6          1           0        0.802026    2.164230   -0.016746
      7          1           0        2.195371   -0.198491   -0.022500
      8          1           0       -1.727105   -1.367089   -0.003242
      9          1           0       -1.828327    1.365698    0.048715
 ---------------------------------------------------------------------

 SCF Done:  E(RAM1) =  -4.08336059893     A.U. after   14 cycles

 Excitation energies and oscillator strengths:

 Excited State   1:      Singlet-A      7.1653 eV  173.03 nm  f=0.0319  <S**2>=0.000
      13 -> 14         0.27630
      13 -> 15         0.61284
      13 -> 17        -0.16885
 This state for optimization and/or second-order correction.
 Total Energy, E(CIS) =  -3.82004032904
 Copying the excited state density for this state as the 1-particle RhoCI density.

 Excited State   2:      Singlet-A      7.3155 eV  169.48 nm  f=0.2496  <S**2>=0.000
      13 -> 14         0.62289
      13 -> 15        -0.28015

 Excited State   3:      Singlet-A      7.7547 eV  159.88 nm  f=0.0010  <S**2>=0.000
      12 -> 14         0.68598
      13 -> 16        -0.12049

 Excited State   4:      Singlet-A      7.9745 eV  155.48 nm  f=0.0085  <S**2>=0.000
      12 -> 14         0.13204
      13 -> 16         0.63269
      13 -> 17        -0.19918
      13 -> 21        -0.13488

 Excited State   5:      Singlet-A      8.8107 eV  140.72 nm  f=0.0086  <S**2>=0.000
      11 -> 14         0.67691
      13 -> 17        -0.13978

 Excited State   6:      Singlet-A      8.9297 eV  138.84 nm  f=0.0246  <S**2>=0.000
      11 -> 14         0.15682
      13 -> 15         0.14744
      13 -> 16         0.19432
      13 -> 17         0.62069
      13 -> 21        -0.10630

 Excited State   7:      Singlet-A      9.4989 eV  130.52 nm  f=0.0058  <S**2>=0.000
      12 -> 15        -0.11821
      13 -> 17         0.11548
      13 -> 18         0.59712
      13 -> 21         0.23300
      13 -> 22         0.16300

 Excited State   8:      Singlet-A      9.5193 eV  130.25 nm  f=0.0948  <S**2>=0.000
       9 -> 15        -0.13591
      10 -> 14        -0.19536
      12 -> 15         0.50193
      13 -> 18         0.14879
      13 -> 19         0.32321

 Excited State   9:      Singlet-A      9.8019 eV  126.49 nm  f=0.0553  <S**2>=0.000
      10 -> 14        -0.21035
      12 -> 15        -0.29468
      12 -> 16         0.29031
      12 -> 21        -0.16755
      13 -> 19         0.46057

 Excited State  10:      Singlet-A     10.0203 eV  123.73 nm  f=0.0027  <S**2>=0.000
      13 -> 16         0.12233
      13 -> 18        -0.25915
      13 -> 20         0.32967
      13 -> 21         0.50805
      13 -> 22         0.11515

 Excited State  11:      Singlet-A     10.1049 eV  122.70 nm  f=0.0285  <S**2>=0.000
      10 -> 16         0.12042
      12 -> 16        -0.17307
      13 -> 18         0.16160
      13 -> 19         0.16656
      13 -> 20         0.51869
      13 -> 21        -0.27052
      13 -> 22        -0.15328
      13 -> 23         0.10764

 Excited State  12:      Singlet-A     10.2008 eV  121.54 nm  f=0.0209  <S**2>=0.000
      10 -> 14         0.11938
      11 -> 15         0.13051
      12 -> 15         0.16476
      12 -> 16         0.49957
      12 -> 17        -0.14226
      12 -> 21        -0.15775
      13 -> 19        -0.18579
      13 -> 20         0.25477

 Excited State  13:      Singlet-A     10.4175 eV  119.01 nm  f=0.0079  <S**2>=0.000
       9 -> 15         0.14066
      11 -> 15         0.56555
      11 -> 16         0.13575
      11 -> 17        -0.25518
      12 -> 16        -0.11532

 Excited State  14:      Singlet-A     10.5074 eV  118.00 nm  f=0.1185  <S**2>=0.000
       8 -> 16        -0.16057
       9 -> 15        -0.17872
      10 -> 14        -0.24060
      11 -> 16         0.11249
      12 -> 17         0.51106
      12 -> 21        -0.13219
      13 -> 19        -0.15747

 Excited State  15:      Singlet-A     10.7284 eV  115.57 nm  f=0.1072  <S**2>=0.000
       9 -> 15         0.13371
      10 -> 14         0.11786
      11 -> 17        -0.21829
      11 -> 20        -0.15127
      12 -> 18         0.57057
      12 -> 20         0.12261

 The electronic state is 1-A.
 Alpha  occ. eigenvalues --   -2.97757  -1.32542  -1.00166  -0.99406  -0.97935
 Alpha  occ. eigenvalues --   -0.89860  -0.77646  -0.58225  -0.56221  -0.53235
 Alpha  occ. eigenvalues --   -0.49013  -0.45375  -0.37701
 Alpha virt. eigenvalues --    0.11110   0.11886   0.15222   0.19471   0.20836
 Alpha virt. eigenvalues --    0.21956   0.22980   0.26794   0.28648   0.32661
 Alpha virt. eigenvalues --    0.38611

 Mulliken charges:
               1
     1  C   -0.301194
     2  C   -1.504981
     3  O    2.659471
     4  C   -1.531037
     5  C   -0.253897
     6  H    0.193425
     7  H    0.270263
     8  H    0.264012
     9  H    0.203937
 Sum of Mulliken charges =   0.00000

 Dipole moment (field-independent basis, Debye):
    X=              2.4072    Y=            -10.2013    Z=              0.4042  Tot=             10.4893
 N-N= 1.045595921977D+02 E-N=-1.723478620657D+02  KE=-2.103639574002D+01
 Orbital energies and kinetic energies (alpha):
                                 1                 2
   1         O                -2.977566         -2.021388
   2         O                -1.325424         -1.234479
   3         O                -1.001661         -0.938474
   4         O                -0.994061         -0.951196
   5         O                -0.979347         -0.980410
   6         O                -0.898601         -0.807233
   7         O                -0.776462         -0.713483

 Normal termination of Gaussian 09 at Fri Dec 11 13:41:40 2015.
