 Gaussian 09, Revision D.01,
 Gaussian 09:  ES64L-G09RevD.01 24-Apr-2013

 ------------------------------------------------------------
 #P AM1(Input,print) CIS(Singlets,NStates=15) pop(full) force
 ------------------------------------------------------------

 -----------------
 AM1-Reparam Input
 -----------------
 Symbolic Z-matrix:
 Charge =  0 Multiplicity = 1

                         Standard orientation:
 ---------------------------------------------------------------------
 Center     Atomic      Atomic             Coordinates (Angstroms)
 Number     Number       Type             X           Y           Z
 ---------------------------------------------------------------------
      1          6           0       -0.758455    0.927988   -0.011958
      2          6           0       -1.090365   -0.318593    0.029877
      3          8           0        0.016607   -1.170386   -0.037171
      4          6           0        1.068205   -0.332823    0.042094
      5          6           0        0.758371    0.984817   -0.009150
      6          1           0        1.365174    1.773344   -0.016099
      7          1           0        2.037449   -0.902824   -0.007160
      8          1           0       -2.057556   -0.851726    0.034843
      9          1           0       -1.344462    1.775963   -0.019400
 ---------------------------------------------------------------------

 SCF Done:  E(RAM1) =   1.44267244249     A.U. after   14 cycles

 Excitation energies and oscillator strengths:

 Excited State   1:      Singlet-A      5.4245 eV  228.56 nm  f=0.0023  <S**2>=0.000
      13 -> 15         0.67266
      13 -> 18        -0.11040
 This state for optimization and/or second-order correction.
 Total Energy, E(CIS) =   1.64201926219
 Copying the excited state density for this state as the 1-particle RhoCI density.

 Excited State   2:      Singlet-A      5.4870 eV  225.96 nm  f=0.3067  <S**2>=0.000
      13 -> 14         0.68736

 Excited State   3:      Singlet-A      5.8283 eV  212.73 nm  f=0.0036  <S**2>=0.000
      13 -> 15         0.10738
      13 -> 16         0.66898
      13 -> 19        -0.10756

 Excited State   4:      Singlet-A      6.9959 eV  177.22 nm  f=0.0004  <S**2>=0.000
      12 -> 14         0.69069

 Excited State   5:      Singlet-A      7.3026 eV  169.78 nm  f=0.0033  <S**2>=0.000
      13 -> 15         0.11260
      13 -> 18         0.53366
      13 -> 19        -0.20729
      13 -> 20         0.22739
      13 -> 21        -0.19398
      13 -> 22         0.21054

 Excited State   6:      Singlet-A      7.6382 eV  162.32 nm  f=0.0092  <S**2>=0.000
      13 -> 16         0.10492
      13 -> 18         0.40929
      13 -> 19         0.42880
      13 -> 20        -0.14229
      13 -> 21         0.20935
      13 -> 22        -0.23444

 Excited State   7:      Singlet-A      7.9950 eV  155.08 nm  f=0.0115  <S**2>=0.000
      11 -> 14         0.38648
      13 -> 17         0.57041

 Excited State   8:      Singlet-A      8.3506 eV  148.47 nm  f=0.0011  <S**2>=0.000
      13 -> 19         0.12856
      13 -> 20         0.59604
      13 -> 22        -0.30533

 Excited State   9:      Singlet-A      8.5943 eV  144.26 nm  f=0.0002  <S**2>=0.000
      10 -> 14        -0.38083
      13 -> 18        -0.11824
      13 -> 19         0.39206
      13 -> 21        -0.36101
      13 -> 22         0.19976

 Excited State  10:      Singlet-A      8.6830 eV  142.79 nm  f=0.0016  <S**2>=0.000
      10 -> 14         0.54895
      11 -> 15        -0.16950
      13 -> 19         0.27134
      13 -> 21        -0.10603
      13 -> 22         0.26003

 Excited State  11:      Singlet-A      8.8273 eV  140.46 nm  f=0.0227  <S**2>=0.000
      10 -> 14         0.15932
      11 -> 15         0.57273
      13 -> 21        -0.27467
      13 -> 22        -0.10429

 Excited State  12:      Singlet-A      8.8910 eV  139.45 nm  f=0.1079  <S**2>=0.000
      11 -> 14         0.38779
      11 -> 15        -0.22999
      11 -> 16        -0.11171
      12 -> 16        -0.18157
      13 -> 17        -0.27760
      13 -> 20        -0.10640
      13 -> 21        -0.19130
      13 -> 22        -0.27876

 Excited State  13:      Singlet-A      9.0614 eV  136.83 nm  f=0.1218  <S**2>=0.000
      10 -> 14        -0.10302
      11 -> 14         0.31399
      11 -> 15         0.15647
      11 -> 16         0.11566
      12 -> 16        -0.13951
      13 -> 17        -0.24044
      13 -> 20         0.17235
      13 -> 21         0.32605
      13 -> 22         0.30549

 Excited State  14:      Singlet-A      9.0861 eV  136.46 nm  f=0.2555  <S**2>=0.000
       8 -> 15         0.17081
       9 -> 15        -0.15133
      11 -> 14        -0.10822
      12 -> 15         0.46518
      12 -> 16        -0.37154
      13 -> 17         0.11003

 Excited State  15:      Singlet-A      9.3693 eV  132.33 nm  f=0.0297  <S**2>=0.000
      11 -> 16         0.58310
      12 -> 15         0.20095
      12 -> 16         0.14068
      13 -> 16        -0.11399
      13 -> 21        -0.18159

 The electronic state is 1-A.
 Alpha  occ. eigenvalues --   -1.88867  -1.18490  -0.95788  -0.79445  -0.76614
 Alpha  occ. eigenvalues --   -0.67987  -0.61441  -0.48761  -0.47607  -0.41713
 Alpha  occ. eigenvalues --   -0.37310  -0.36186  -0.22395
 Alpha virt. eigenvalues --    0.17341   0.19853   0.21531   0.29590   0.30691
 Alpha virt. eigenvalues --    0.32917   0.33921   0.34956   0.35813   0.40545
 Alpha virt. eigenvalues --    0.45015

 Mulliken charges:
               1
     1  C   -0.041437
     2  C   -1.472640
     3  O    2.742829
     4  C   -1.496222
     5  C   -0.128508
     6  H    0.066612
     7  H    0.135723
     8  H    0.137306
     9  H    0.056337
 Sum of Mulliken charges =   0.00000

 Dipole moment (field-independent basis, Debye):
    X=              0.0255    Y=            -10.2427    Z=             -0.8853  Tot=             10.2810
 N-N= 1.035218691208D+02 E-N=-1.698544560152D+02  KE=-1.585185038602D+01
 Orbital energies and kinetic energies (alpha):
                                 1                 2
   1         O                -1.888668         -1.373720
   2         O                -1.184900         -1.079620
   3         O                -0.957879         -0.889906
   4         O                -0.794451         -0.631370
   5         O                -0.766136         -0.691823
   6         O                -0.679874         -0.625859
   7         O                -0.614409         -0.539388

 Normal termination of Gaussian 09 at Tue Dec 15 17:07:52 2015.
