 Gaussian 09, Revision D.01,
 Gaussian 09:  ES64L-G09RevD.01 24-Apr-2013

 ------------------------------------------------------------
 #P AM1(Input,print) CIS(Singlets,NStates=15) pop(full) force
 ------------------------------------------------------------

 -----------------
 AM1-Reparam Input
 -----------------
 Symbolic Z-matrix:
 Charge =  0 Multiplicity = 1

                         Standard orientation:
 ---------------------------------------------------------------------
 Center     Atomic      Atomic             Coordinates (Angstroms)
 Number     Number       Type             X           Y           Z
 ---------------------------------------------------------------------
      1          6           0       -0.641123    1.005779   -0.031384
      2          6           0       -1.129898   -0.283423    0.038843
      3          8           0       -0.049575   -1.188788   -0.025569
      4          6           0        1.067270   -0.347998    0.002481
      5          6           0        0.740796    0.891495    0.010900
      6          1           0        1.483228    1.728144    0.013694
      7          1           0        2.054875   -0.910209    0.044960
      8          1           0       -2.029750   -0.737221    0.024056
      9          1           0       -1.334025    1.834473   -0.003191
 ---------------------------------------------------------------------

 SCF Done:  E(RAM1) =   2.75176638445     A.U. after   14 cycles

 Excitation energies and oscillator strengths:

 Excited State   1:      Singlet-A      5.3824 eV  230.35 nm  f=0.3173  <S**2>=0.000
      11 -> 17         0.10451
      13 -> 14         0.69123
 This state for optimization and/or second-order correction.
 Total Energy, E(CIS) =   2.94956762069
 Copying the excited state density for this state as the 1-particle RhoCI density.

 Excited State   2:      Singlet-A      5.6464 eV  219.58 nm  f=0.0003  <S**2>=0.000
      10 -> 15         0.12896
      13 -> 15         0.67984

 Excited State   3:      Singlet-A      6.3217 eV  196.13 nm  f=0.0017  <S**2>=0.000
      10 -> 16        -0.12137
      13 -> 16         0.64999
      13 -> 17        -0.20044
      13 -> 19        -0.12184

 Excited State   4:      Singlet-A      7.1246 eV  174.02 nm  f=0.0014  <S**2>=0.000
      12 -> 14         0.69170

 Excited State   5:      Singlet-A      7.5247 eV  164.77 nm  f=0.0137  <S**2>=0.000
      10 -> 16        -0.11157
      11 -> 14        -0.17698
      13 -> 16         0.17510
      13 -> 17         0.63553

 Excited State   6:      Singlet-A      7.8362 eV  158.22 nm  f=0.0026  <S**2>=0.000
      13 -> 18         0.55957
      13 -> 19        -0.18021
      13 -> 21        -0.36411

 Excited State   7:      Singlet-A      7.8632 eV  157.68 nm  f=0.0024  <S**2>=0.000
      11 -> 14         0.67595
      13 -> 17         0.17553

 Excited State   8:      Singlet-A      8.4114 eV  147.40 nm  f=0.0006  <S**2>=0.000
      10 -> 16        -0.10389
      13 -> 16         0.10736
      13 -> 18         0.29883
      13 -> 19         0.59824
      13 -> 21         0.11393

 Excited State   9:      Singlet-A      8.6373 eV  143.55 nm  f=0.0483  <S**2>=0.000
       8 -> 15        -0.18873
      10 -> 14         0.28369
      11 -> 17        -0.10679
      12 -> 15         0.55727
      12 -> 17         0.10554
      12 -> 18        -0.10924

 Excited State  10:      Singlet-A      9.0693 eV  136.71 nm  f=0.0471  <S**2>=0.000
      10 -> 14         0.31491
      12 -> 15        -0.20780
      12 -> 17         0.10682
      13 -> 18         0.23830
      13 -> 19        -0.21601
      13 -> 21         0.44566

 Excited State  11:      Singlet-A      9.0818 eV  136.52 nm  f=0.1200  <S**2>=0.000
       9 -> 15        -0.11703
      10 -> 14        -0.28662
      11 -> 15        -0.21347
      11 -> 16        -0.12013
      11 -> 17         0.18375
      12 -> 15         0.29127
      12 -> 17        -0.17814
      12 -> 18         0.15589
      13 -> 18         0.16727
      13 -> 19        -0.13814
      13 -> 21         0.29517

 Excited State  12:      Singlet-A      9.1130 eV  136.05 nm  f=0.0998  <S**2>=0.000
       8 -> 16         0.11983
      10 -> 14         0.42373
      11 -> 15        -0.18282
      11 -> 17         0.24731
      11 -> 18         0.10004
      12 -> 16         0.23006
      12 -> 18         0.20724
      13 -> 21        -0.15094

 Excited State  13:      Singlet-A      9.5047 eV  130.45 nm  f=0.1108  <S**2>=0.000
      10 -> 15         0.19649
      13 -> 20         0.64729
      13 -> 21         0.13242

 Excited State  14:      Singlet-A      9.5681 eV  129.58 nm  f=0.0089  <S**2>=0.000
       7 -> 15        -0.14275
      10 -> 15         0.61586
      13 -> 15        -0.14531
      13 -> 20        -0.21548

 Excited State  15:      Singlet-A      9.6984 eV  127.84 nm  f=0.1625  <S**2>=0.000
       8 -> 15         0.14009
       9 -> 15        -0.15312
       9 -> 16        -0.11621
      11 -> 15        -0.24154
      11 -> 16         0.38941
      11 -> 17        -0.16206
      11 -> 18        -0.18303
      11 -> 19        -0.17342
      12 -> 16         0.19205
      12 -> 17        -0.18908
      12 -> 18        -0.15616

 The electronic state is 1-A.
 Alpha  occ. eigenvalues --   -1.74321  -1.14627  -0.92684  -0.78665  -0.74598
 Alpha  occ. eigenvalues --   -0.65343  -0.62563  -0.52265  -0.49676  -0.41949
 Alpha  occ. eigenvalues --   -0.40838  -0.38725  -0.26426
 Alpha virt. eigenvalues --    0.14458   0.16441   0.20288   0.25453   0.28397
 Alpha virt. eigenvalues --    0.30210   0.32315   0.33865   0.44593   0.54183
 Alpha virt. eigenvalues --    0.57062

 Mulliken charges:
               1
     1  C   -0.086736
     2  C   -1.982178
     3  O    3.342158
     4  C   -1.954396
     5  C   -0.049951
     6  H    0.114313
     7  H    0.256640
     8  H    0.239265
     9  H    0.120885
 Sum of Mulliken charges =   0.00000

 Dipole moment (field-independent basis, Debye):
    X=              0.2715    Y=            -12.1667    Z=             -0.5928  Tot=             12.1842
 N-N= 1.035891382050D+02 E-N=-1.685530325327D+02  KE=-1.486810570543D+01
 Orbital energies and kinetic energies (alpha):
                                 1                 2
   1         O                -1.743206         -1.223218
   2         O                -1.146268         -1.012726
   3         O                -0.926842         -0.874434
   4         O                -0.786655         -0.587691
   5         O                -0.745984         -0.668441
   6         O                -0.653425         -0.555081
   7         O                -0.625634         -0.528570

 Normal termination of Gaussian 09 at Tue Dec 15 17:05:25 2015.
