 Gaussian 09, Revision D.01,
 Gaussian 09:  ES64L-G09RevD.01 24-Apr-2013

 ------------------------------------------------------------
 #P AM1(Input,print) CIS(Singlets,NStates=15) pop(full) force
 ------------------------------------------------------------

 -----------------
 AM1-Reparam Input
 -----------------
 Symbolic Z-matrix:
 Charge =  0 Multiplicity = 1

                         Standard orientation:
 ---------------------------------------------------------------------
 Center     Atomic      Atomic             Coordinates (Angstroms)
 Number     Number       Type             X           Y           Z
 ---------------------------------------------------------------------
      1          6           0        0.269649    1.157506   -0.027083
      2          6           0        1.157473    0.128801    0.036511
      3          8           0        0.480125   -1.103581   -0.017696
      4          6           0       -0.879646   -0.711124    0.014942
      5          6           0       -1.066506    0.611417   -0.011165
      6          1           0       -1.941303    1.097651    0.039832
      7          1           0       -1.572960   -1.579756    0.011849
      8          1           0        2.206221    0.002054   -0.027439
      9          1           0        0.581217    2.189097    0.038100
 ---------------------------------------------------------------------

 SCF Done:  E(RAM1) =  0.190190136952E-01 A.U. after   13 cycles

 Excitation energies and oscillator strengths:

 Excited State   1:      Singlet-A      4.4054 eV  281.44 nm  f=0.0844  <S**2>=0.000
      12 -> 15         0.17856
      13 -> 14         0.67585
 This state for optimization and/or second-order correction.
 Total Energy, E(CIS) =  0.180913677849
 Copying the excited state density for this state as the 1-particle RhoCI density.

 Excited State   2:      Singlet-A      5.1209 eV  242.12 nm  f=0.0049  <S**2>=0.000
      12 -> 14        -0.43010
      13 -> 15         0.54177
      13 -> 16        -0.11870

 Excited State   3:      Singlet-A      5.2480 eV  236.25 nm  f=0.0002  <S**2>=0.000
      13 -> 16         0.67311
      13 -> 21         0.10930

 Excited State   4:      Singlet-A      5.9434 eV  208.61 nm  f=0.0024  <S**2>=0.000
      12 -> 16         0.28475
      12 -> 19         0.12219
      12 -> 21         0.17891
      13 -> 17        -0.10551
      13 -> 18         0.39120
      13 -> 19         0.31321
      13 -> 21         0.15622
      13 -> 23        -0.16885
      13 -> 24        -0.14419

 Excited State   5:      Singlet-A      5.9861 eV  207.12 nm  f=0.0013  <S**2>=0.000
       7 -> 16        -0.16687
      12 -> 16         0.51316
      12 -> 18        -0.12729
      12 -> 19        -0.12595
      13 -> 17         0.10217
      13 -> 19        -0.28086
      13 -> 21        -0.20085

 Excited State   6:      Singlet-A      6.1471 eV  201.69 nm  f=0.0040  <S**2>=0.000
       7 -> 16         0.12260
      12 -> 16        -0.25559
      12 -> 18        -0.18366
      12 -> 24         0.10915
      13 -> 18         0.42084
      13 -> 19        -0.22548
      13 -> 21        -0.23353
      13 -> 22         0.12294
      13 -> 23        -0.10021

 Excited State   7:      Singlet-A      6.2270 eV  199.11 nm  f=0.3795  <S**2>=0.000
      12 -> 14         0.50801
      13 -> 15         0.41547

 Excited State   8:      Singlet-A      6.4052 eV  193.57 nm  f=0.0024  <S**2>=0.000
      11 -> 14         0.10480
      12 -> 18         0.11700
      13 -> 17         0.61477
      13 -> 18         0.15356
      13 -> 21         0.11756

 Excited State   9:      Singlet-A      6.4587 eV  191.97 nm  f=0.1111  <S**2>=0.000
      12 -> 15         0.66074
      13 -> 14        -0.16395

 Excited State  10:      Singlet-A      6.9654 eV  178.00 nm  f=0.0017  <S**2>=0.000
      12 -> 17         0.43767
      12 -> 18         0.39597
      12 -> 20         0.11388
      13 -> 18         0.10765
      13 -> 19        -0.24209
      13 -> 21         0.12409

 Excited State  11:      Singlet-A      7.2039 eV  172.11 nm  f=0.0004  <S**2>=0.000
      10 -> 14        -0.38762
      10 -> 15        -0.25652
      11 -> 14         0.49267

 Excited State  12:      Singlet-A      7.2947 eV  169.96 nm  f=0.0039  <S**2>=0.000
       9 -> 14         0.30263
       9 -> 15        -0.14609
      10 -> 14        -0.33568
      11 -> 14        -0.26107
      11 -> 15         0.34321
      12 -> 17        -0.13171
      13 -> 20        -0.10365
      13 -> 24         0.12845

 Excited State  13:      Singlet-A      7.4495 eV  166.43 nm  f=0.0003  <S**2>=0.000
       9 -> 14        -0.14551
      10 -> 14         0.17535
      12 -> 17        -0.26994
      12 -> 18         0.29237
      12 -> 20        -0.14508
      12 -> 21        -0.10323
      12 -> 23        -0.13005
      13 -> 17        -0.11294
      13 -> 18         0.19005
      13 -> 20        -0.27426
      13 -> 21        -0.17120
      13 -> 24         0.17850

 Excited State  14:      Singlet-A      7.5525 eV  164.16 nm  f=0.0015  <S**2>=0.000
       9 -> 14        -0.13961
      10 -> 14        -0.11438
      11 -> 14        -0.18273
      11 -> 15        -0.13852
      12 -> 17         0.18143
      12 -> 19        -0.19728
      12 -> 20         0.22478
      12 -> 22        -0.11296
      12 -> 23         0.16558
      13 -> 19         0.28895
      13 -> 20        -0.15021
      13 -> 21        -0.24514
      13 -> 22         0.10968
      13 -> 24         0.13963

 Excited State  15:      Singlet-A      7.6008 eV  163.12 nm  f=0.0004  <S**2>=0.000
       7 -> 18         0.11012
      12 -> 18        -0.24710
      12 -> 19        -0.24896
      12 -> 21        -0.15756
      12 -> 24        -0.14973
      13 -> 17        -0.10444
      13 -> 18         0.17470
      13 -> 19        -0.10647
      13 -> 20        -0.11364
      13 -> 21         0.39543
      13 -> 22         0.10059
      13 -> 24         0.18596

 The electronic state is 1-A.
 Alpha  occ. eigenvalues --   -1.53044  -1.23925  -1.09436  -0.81795  -0.81560
 Alpha  occ. eigenvalues --   -0.67883  -0.58315  -0.55586  -0.51809  -0.51169
 Alpha  occ. eigenvalues --   -0.49564  -0.39896  -0.35018
 Alpha virt. eigenvalues --    0.02565   0.06220   0.10177   0.13532   0.14453
 Alpha virt. eigenvalues --    0.14980   0.17617   0.18656   0.18933   0.20778
 Alpha virt. eigenvalues --    0.21415

 Mulliken charges:
               1
     1  C   -0.197044
     2  C   -0.093290
     3  O   -0.119321
     4  C   -0.091759
     5  C   -0.173834
     6  H    0.156812
     7  H    0.180990
     8  H    0.182315
     9  H    0.155130
 Sum of Mulliken charges =   0.00000

 Dipole moment (field-independent basis, Debye):
    X=             -0.2362    Y=              0.4826    Z=              0.0563  Tot=              0.5403
 N-N= 1.029656199314D+02 E-N=-1.702152883620D+02  KE=-1.649792785903D+01
 Orbital energies and kinetic energies (alpha):
                                 1                 2
   1         O                -1.530445         -1.296315
   2         O                -1.239247         -1.048170
   3         O                -1.094358         -0.958767
   4         O                -0.817952         -0.723966
   5         O                -0.815601         -0.710201
   6         O                -0.678832         -0.600691
   7         O                -0.583152         -0.476462

 Normal termination of Gaussian 09 at Tue Dec 15 16:19:40 2015.
