 Gaussian 09, Revision D.01,
 Gaussian 09:  ES64L-G09RevD.01 24-Apr-2013

 ------------------------------------------------------------
 #P AM1(Input,print) CIS(Singlets,NStates=15) pop(full) force
 ------------------------------------------------------------

 -----------------
 AM1-Reparam Input
 -----------------
 Symbolic Z-matrix:
 Charge =  0 Multiplicity = 1

                         Standard orientation:
 ---------------------------------------------------------------------
 Center     Atomic      Atomic             Coordinates (Angstroms)
 Number     Number       Type             X           Y           Z
 ---------------------------------------------------------------------
      1          6           0       -0.923480    0.800700    0.007144
      2          6           0       -1.009410   -0.554554   -0.002617
      3          8           0        0.229269   -1.121560    0.003120
      4          6           0        1.170285   -0.149929    0.002709
      5          6           0        0.523621    1.086046   -0.008737
      6          1           0        0.971874    2.054273    0.038401
      7          1           0        2.139677   -0.461506   -0.026468
      8          1           0       -1.856605   -1.193391    0.002057
      9          1           0       -1.655201    1.479529   -0.029949
 ---------------------------------------------------------------------

 SCF Done:  E(RAM1) =  0.206944868582E-01 A.U. after   13 cycles

 Excitation energies and oscillator strengths:

 Excited State   1:      Singlet-A      4.4618 eV  277.88 nm  f=0.0769  <S**2>=0.000
      12 -> 15         0.23477
      13 -> 14         0.65987
 This state for optimization and/or second-order correction.
 Total Energy, E(CIS) =  0.184663023680
 Copying the excited state density for this state as the 1-particle RhoCI density.

 Excited State   2:      Singlet-A      4.9300 eV  251.49 nm  f=0.0000  <S**2>=0.000
      13 -> 16         0.68459

 Excited State   3:      Singlet-A      4.9711 eV  249.41 nm  f=0.0062  <S**2>=0.000
      12 -> 14        -0.42038
      13 -> 15         0.55533

 Excited State   4:      Singlet-A      5.8134 eV  213.27 nm  f=0.0006  <S**2>=0.000
      12 -> 18         0.16819
      12 -> 19        -0.14533
      13 -> 17         0.24473
      13 -> 18         0.41682
      13 -> 19        -0.29713
      13 -> 21         0.13770
      13 -> 22         0.13748
      13 -> 23         0.19873

 Excited State   5:      Singlet-A      5.8336 eV  212.54 nm  f=0.0017  <S**2>=0.000
       7 -> 16        -0.17817
      12 -> 16         0.65551
      12 -> 22         0.11729

 Excited State   6:      Singlet-A      6.0889 eV  203.62 nm  f=0.3058  <S**2>=0.000
      12 -> 14         0.46907
      12 -> 15         0.30630
      13 -> 15         0.35159

 Excited State   7:      Singlet-A      6.1081 eV  202.98 nm  f=0.0107  <S**2>=0.000
      12 -> 18        -0.21855
      12 -> 19        -0.19607
      12 -> 21         0.14071
      12 -> 23        -0.12621
      13 -> 18         0.29131
      13 -> 19         0.37432
      13 -> 21        -0.23834
      13 -> 23         0.15223

 Excited State   8:      Singlet-A      6.1880 eV  200.36 nm  f=0.2245  <S**2>=0.000
      12 -> 14        -0.23128
      12 -> 15         0.57912
      13 -> 14        -0.19689
      13 -> 15        -0.19680

 Excited State   9:      Singlet-A      6.4928 eV  190.96 nm  f=0.0019  <S**2>=0.000
      13 -> 17         0.56800
      13 -> 18        -0.34013
      13 -> 21        -0.11337

 Excited State  10:      Singlet-A      6.8556 eV  180.85 nm  f=0.0001  <S**2>=0.000
      12 -> 17         0.52510
      12 -> 18        -0.31210
      12 -> 20        -0.19577
      12 -> 21        -0.10953
      12 -> 23         0.13427
      13 -> 17        -0.10327
      13 -> 19        -0.13199

 Excited State  11:      Singlet-A      7.0396 eV  176.13 nm  f=0.0018  <S**2>=0.000
       9 -> 15        -0.21542
      10 -> 14         0.52467
      10 -> 15         0.16405
      11 -> 14        -0.32861

 Excited State  12:      Singlet-A      7.3123 eV  169.56 nm  f=0.0002  <S**2>=0.000
       9 -> 14         0.29228
      10 -> 14        -0.21586
      11 -> 14        -0.16887
      11 -> 15         0.50231
      12 -> 18         0.12420
      13 -> 19         0.10118

 Excited State  13:      Singlet-A      7.4179 eV  167.14 nm  f=0.0000  <S**2>=0.000
       9 -> 14        -0.16683
      10 -> 15         0.10141
      11 -> 14         0.20026
      12 -> 17         0.14124
      12 -> 18         0.27346
      12 -> 19         0.19423
      12 -> 20        -0.16234
      12 -> 21        -0.12105
      13 -> 17         0.14343
      13 -> 18         0.12717
      13 -> 19         0.32015
      13 -> 20        -0.21706
      13 -> 24         0.11600

 Excited State  14:      Singlet-A      7.5980 eV  163.18 nm  f=0.0008  <S**2>=0.000
      10 -> 14        -0.20992
      11 -> 14        -0.25326
      11 -> 15        -0.13234
      12 -> 18        -0.12489
      12 -> 19         0.32447
      12 -> 22        -0.14366
      13 -> 18         0.18070
      13 -> 19        -0.12886
      13 -> 20        -0.21577
      13 -> 21        -0.21757
      13 -> 24         0.20489

 Excited State  15:      Singlet-A      7.6914 eV  161.20 nm  f=0.0010  <S**2>=0.000
       9 -> 14        -0.14378
      10 -> 14        -0.15333
      11 -> 14        -0.32638
      11 -> 15        -0.22821
      12 -> 20        -0.11123
      12 -> 22         0.13298
      13 -> 17        -0.11216
      13 -> 19         0.19672
      13 -> 21         0.14009
      13 -> 22         0.35716
      13 -> 23         0.10983

 The electronic state is 1-A.
 Alpha  occ. eigenvalues --   -1.56281  -1.22792  -1.10819  -0.83286  -0.81872
 Alpha  occ. eigenvalues --   -0.69042  -0.60373  -0.57980  -0.51758  -0.50281
 Alpha  occ. eigenvalues --   -0.49348  -0.38821  -0.34704
 Alpha virt. eigenvalues --    0.03000   0.05764   0.09491   0.14174   0.15057
 Alpha virt. eigenvalues --    0.15735   0.18063   0.18730   0.19443   0.20894
 Alpha virt. eigenvalues --    0.22499

 Mulliken charges:
               1
     1  C   -0.197730
     2  C   -0.094200
     3  O   -0.083784
     4  C   -0.090611
     5  C   -0.216422
     6  H    0.157799
     7  H    0.185131
     8  H    0.185638
     9  H    0.154178
 Sum of Mulliken charges =   0.00000

 Dipole moment (field-independent basis, Debye):
    X=             -0.0748    Y=              0.2693    Z=             -0.0149  Tot=              0.2799
 N-N= 1.034459879737D+02 E-N=-1.709203026681D+02  KE=-1.658317436996D+01
 Orbital energies and kinetic energies (alpha):
                                 1                 2
   1         O                -1.562807         -1.306383
   2         O                -1.227918         -1.049386
   3         O                -1.108192         -0.967974
   4         O                -0.832855         -0.713580
   5         O                -0.818716         -0.732993
   6         O                -0.690419         -0.604293
   7         O                -0.603730         -0.486471

 Normal termination of Gaussian 09 at Tue Dec 15 16:16:24 2015.
