 Gaussian 09, Revision D.01,
 Gaussian 09:  ES64L-G09RevD.01 24-Apr-2013

 ------------------------------------------------------------
 #P AM1(Input,print) CIS(Singlets,NStates=15) pop(full) force
 ------------------------------------------------------------

 -----------------
 AM1-Reparam Input
 -----------------
 Symbolic Z-matrix:
 Charge =  0 Multiplicity = 1

                         Standard orientation:
 ---------------------------------------------------------------------
 Center     Atomic      Atomic             Coordinates (Angstroms)
 Number     Number       Type             X           Y           Z
 ---------------------------------------------------------------------
      1          6           0        0.961004    0.714901    0.003316
      2          6           0        0.937369   -0.618462   -0.000946
      3          8           0       -0.343133   -1.143220   -0.015483
      4          6           0       -1.091747   -0.002208    0.030209
      5          6           0       -0.447050    1.116828   -0.006390
      6          1           0       -0.799831    2.085926   -0.007749
      7          1           0       -2.187945   -0.289368   -0.041894
      8          1           0        1.755621   -1.305255    0.050051
      9          1           0        1.819766    1.388099   -0.033679
 ---------------------------------------------------------------------

 SCF Done:  E(RAM1) =   1.90862039234     A.U. after   14 cycles

 Excitation energies and oscillator strengths:

 Excited State   1:      Singlet-A      5.4584 eV  227.14 nm  f=0.3279  <S**2>=0.000
      13 -> 14         0.69107
 This state for optimization and/or second-order correction.
 Total Energy, E(CIS) =   2.10921253579
 Copying the excited state density for this state as the 1-particle RhoCI density.

 Excited State   2:      Singlet-A      5.5491 eV  223.43 nm  f=0.0054  <S**2>=0.000
      10 -> 15         0.10366
      13 -> 15         0.68444

 Excited State   3:      Singlet-A      6.2965 eV  196.91 nm  f=0.0010  <S**2>=0.000
      10 -> 16        -0.10588
      13 -> 16         0.67309
      13 -> 18        -0.12260

 Excited State   4:      Singlet-A      6.5242 eV  190.04 nm  f=0.0001  <S**2>=0.000
      12 -> 14         0.70217

 Excited State   5:      Singlet-A      7.7661 eV  159.65 nm  f=0.0057  <S**2>=0.000
      11 -> 14         0.23663
      13 -> 17         0.47292
      13 -> 18        -0.38508
      13 -> 19         0.13781
      13 -> 22        -0.18570

 Excited State   6:      Singlet-A      7.8768 eV  157.40 nm  f=0.0047  <S**2>=0.000
      11 -> 14         0.59500
      13 -> 18         0.32677
      13 -> 22         0.11680

 Excited State   7:      Singlet-A      8.0936 eV  153.19 nm  f=0.0053  <S**2>=0.000
      11 -> 14        -0.27727
      13 -> 16         0.11416
      13 -> 17         0.49078
      13 -> 18         0.38091
      13 -> 22         0.10023

 Excited State   8:      Singlet-A      8.2970 eV  149.43 nm  f=0.1488  <S**2>=0.000
       8 -> 15         0.18104
      10 -> 14         0.14255
      12 -> 15         0.60279
      12 -> 16        -0.13008
      12 -> 18         0.14820

 Excited State   9:      Singlet-A      8.7322 eV  141.99 nm  f=0.0011  <S**2>=0.000
      13 -> 18         0.12996
      13 -> 19         0.67573

 Excited State  10:      Singlet-A      8.8480 eV  140.13 nm  f=0.0209  <S**2>=0.000
       8 -> 16        -0.13362
      10 -> 14         0.49296
      11 -> 17        -0.12058
      12 -> 16         0.35417
      12 -> 17         0.13177
      12 -> 18        -0.14170
      13 -> 21         0.12389

 Excited State  11:      Singlet-A      9.2102 eV  134.62 nm  f=0.0526  <S**2>=0.000
       9 -> 15         0.14653
      10 -> 14         0.32727
      11 -> 15        -0.32267
      11 -> 17         0.16175
      12 -> 15        -0.26333
      12 -> 16        -0.27532
      12 -> 18         0.23821

 Excited State  12:      Singlet-A      9.4390 eV  131.35 nm  f=0.0154  <S**2>=0.000
      10 -> 15         0.57043
      11 -> 15        -0.12332
      13 -> 15        -0.10858
      13 -> 18         0.12100
      13 -> 20         0.21129
      13 -> 22        -0.23118

 Excited State  13:      Singlet-A      9.5756 eV  129.48 nm  f=0.0739  <S**2>=0.000
       8 -> 15        -0.13654
       9 -> 15        -0.19771
      10 -> 14         0.24863
      11 -> 15         0.38781
      11 -> 16         0.11341
      12 -> 16        -0.37392
      13 -> 20         0.14288

 Excited State  14:      Singlet-A      9.5893 eV  129.29 nm  f=0.1206  <S**2>=0.000
       8 -> 15         0.14301
       9 -> 16         0.10692
      10 -> 14        -0.10029
      10 -> 15        -0.15417
      11 -> 15        -0.22454
      11 -> 16         0.24441
      11 -> 17        -0.16318
      11 -> 19         0.11477
      12 -> 16        -0.23769
      12 -> 17         0.29797
      12 -> 18        -0.27041
      12 -> 22        -0.10194

 Excited State  15:      Singlet-A      9.6237 eV  128.83 nm  f=0.0222  <S**2>=0.000
      10 -> 15         0.31986
      12 -> 16        -0.11236
      13 -> 18        -0.17504
      13 -> 20        -0.35217
      13 -> 22         0.42197

 The electronic state is 1-A.
 Alpha  occ. eigenvalues --   -1.93818  -1.22371  -0.97747  -0.81130  -0.79517
 Alpha  occ. eigenvalues --   -0.68657  -0.66912  -0.49102  -0.48654  -0.41400
 Alpha  occ. eigenvalues --   -0.40443  -0.35897  -0.25297
 Alpha virt. eigenvalues --    0.15225   0.17143   0.20510   0.28815   0.29951
 Alpha virt. eigenvalues --    0.32157   0.34404   0.35248   0.37039   0.45058
 Alpha virt. eigenvalues --    0.47945

 Mulliken charges:
               1
     1  C   -0.104493
     2  C   -1.889228
     3  O    3.094573
     4  C   -1.835674
     5  C   -0.116651
     6  H    0.144273
     7  H    0.267770
     8  H    0.299653
     9  H    0.139777
 Sum of Mulliken charges =   0.00000

 Dipole moment (field-independent basis, Debye):
    X=             -3.4691    Y=            -10.9192    Z=             -0.4430  Tot=             11.4656
 N-N= 1.043265431128D+02 E-N=-1.701403038339D+02  KE=-1.567666118414D+01
 Orbital energies and kinetic energies (alpha):
                                 1                 2
   1         O                -1.938181         -1.404234
   2         O                -1.223708         -1.103004
   3         O                -0.977470         -0.920507
   4         O                -0.811297         -0.641922
   5         O                -0.795169         -0.658338
   6         O                -0.686566         -0.579283
   7         O                -0.669116         -0.579112

 Normal termination of Gaussian 09 at Tue Dec 15 17:10:00 2015.
