 Gaussian 09, Revision D.01,
 Gaussian 09:  ES64L-G09RevD.01 24-Apr-2013

 ------------------------------------------------------------
 #P AM1(Input,print) CIS(Singlets,NStates=15) pop(full) force
 ------------------------------------------------------------

 -----------------
 AM1-Reparam Input
 -----------------
 Symbolic Z-matrix:
 Charge =  0 Multiplicity = 1

                         Standard orientation:
 ---------------------------------------------------------------------
 Center     Atomic      Atomic             Coordinates (Angstroms)
 Number     Number       Type             X           Y           Z
 ---------------------------------------------------------------------
      1          6           0        0.742803    0.936896   -0.010631
      2          6           0        1.121547   -0.390514   -0.001570
      3          8           0       -0.036720   -1.126727   -0.003046
      4          6           0       -1.137069   -0.293390   -0.004775
      5          6           0       -0.695913    0.939560    0.009100
      6          1           0       -1.292563    1.819857   -0.003905
      7          1           0       -2.080019   -0.819037    0.021126
      8          1           0        2.038956   -0.905150    0.038451
      9          1           0        1.439177    1.762834    0.015956
 ---------------------------------------------------------------------

 SCF Done:  E(RAM1) =   1.84076724597     A.U. after   14 cycles

 Excitation energies and oscillator strengths:

 Excited State   1:      Singlet-A      5.5393 eV  223.83 nm  f=0.3340  <S**2>=0.000
      11 -> 17         0.10709
      13 -> 14         0.69076
 This state for optimization and/or second-order correction.
 Total Energy, E(CIS) =   2.04433303927
 Copying the excited state density for this state as the 1-particle RhoCI density.

 Excited State   2:      Singlet-A      6.5286 eV  189.91 nm  f=0.0018  <S**2>=0.000
      10 -> 15         0.11785
      13 -> 15         0.65549
      13 -> 16         0.12351
      13 -> 17        -0.14365

 Excited State   3:      Singlet-A      6.6608 eV  186.14 nm  f=0.0029  <S**2>=0.000
      10 -> 16        -0.10590
      12 -> 14         0.13904
      13 -> 15        -0.13471
      13 -> 16         0.62865
      13 -> 17        -0.15453
      13 -> 19        -0.13570

 Excited State   4:      Singlet-A      6.6708 eV  185.86 nm  f=0.0001  <S**2>=0.000
      12 -> 14         0.68540
      13 -> 16        -0.13606

 Excited State   5:      Singlet-A      7.6730 eV  161.58 nm  f=0.0052  <S**2>=0.000
      11 -> 14         0.69400

 Excited State   6:      Singlet-A      8.0274 eV  154.45 nm  f=0.0000  <S**2>=0.000
      13 -> 16        -0.10254
      13 -> 17        -0.11103
      13 -> 18         0.60343
      13 -> 21        -0.30029

 Excited State   7:      Singlet-A      8.1790 eV  151.59 nm  f=0.0104  <S**2>=0.000
      11 -> 14         0.11046
      13 -> 15         0.11602
      13 -> 16         0.13288
      13 -> 17         0.64728
      13 -> 18         0.11891

 Excited State   8:      Singlet-A      8.9074 eV  139.19 nm  f=0.0117  <S**2>=0.000
       8 -> 15         0.12271
      10 -> 14         0.43944
      11 -> 17        -0.15643
      12 -> 15        -0.35855
      12 -> 16         0.12412
      12 -> 17        -0.11190
      12 -> 18         0.23497

 Excited State   9:      Singlet-A      8.9474 eV  138.57 nm  f=0.0000  <S**2>=0.000
      13 -> 16         0.10557
      13 -> 19         0.66859

 Excited State  10:      Singlet-A      9.1335 eV  135.75 nm  f=0.0559  <S**2>=0.000
       8 -> 16        -0.10495
      10 -> 14         0.45387
      11 -> 15        -0.10347
      11 -> 17         0.18329
      11 -> 18         0.10776
      12 -> 15         0.10995
      12 -> 16        -0.31257
      12 -> 18        -0.24519

 Excited State  11:      Singlet-A      9.3803 eV  132.18 nm  f=0.1315  <S**2>=0.000
       9 -> 15         0.13326
      10 -> 14         0.17115
      11 -> 15         0.26032
      11 -> 17        -0.14177
      12 -> 15         0.52790
      12 -> 17        -0.16470
      12 -> 18         0.12413

 Excited State  12:      Singlet-A      9.5760 eV  129.47 nm  f=0.0115  <S**2>=0.000
      13 -> 18         0.29816
      13 -> 19        -0.10167
      13 -> 20        -0.31940
      13 -> 21         0.53069

 Excited State  13:      Singlet-A      9.7175 eV  127.59 nm  f=0.1363  <S**2>=0.000
       9 -> 16         0.11054
      11 -> 16        -0.41535
      11 -> 17         0.17197
      12 -> 16         0.45236
      12 -> 17        -0.13367
      12 -> 18        -0.13533

 Excited State  14:      Singlet-A      9.8090 eV  126.40 nm  f=0.0792  <S**2>=0.000
      10 -> 16        -0.10467
      13 -> 20         0.60388
      13 -> 21         0.31996

 Excited State  15:      Singlet-A     10.0650 eV  123.18 nm  f=0.1186  <S**2>=0.000
       8 -> 15        -0.10259
       8 -> 16         0.14735
       9 -> 15        -0.11158
       9 -> 16        -0.16402
      10 -> 14         0.20466
      11 -> 15        -0.18125
      11 -> 16         0.23054
      11 -> 18        -0.15587
      11 -> 19        -0.25215
      12 -> 16         0.24960
      12 -> 17         0.25278
      12 -> 18        -0.11642
      12 -> 19        -0.12608
      12 -> 20        -0.12388

 The electronic state is 1-A.
 Alpha  occ. eigenvalues --   -1.94530  -1.21359  -0.99167  -0.81645  -0.80714
 Alpha  occ. eigenvalues --   -0.69011  -0.67028  -0.53898  -0.49979  -0.43200
 Alpha  occ. eigenvalues --   -0.41316  -0.38163  -0.27734
 Alpha virt. eigenvalues --    0.13296   0.18938   0.20132   0.26235   0.28257
 Alpha virt. eigenvalues --    0.30281   0.32080   0.34007   0.35005   0.43598
 Alpha virt. eigenvalues --    0.48940

 Mulliken charges:
               1
     1  C   -0.140857
     2  C   -1.941236
     3  O    3.145882
     4  C   -1.898991
     5  C   -0.094654
     6  H    0.159309
     7  H    0.297471
     8  H    0.309037
     9  H    0.164038
 Sum of Mulliken charges =   0.00000

 Dipole moment (field-independent basis, Debye):
    X=             -0.5622    Y=            -10.1817    Z=              0.1405  Tot=             10.1982
 N-N= 1.041629198873D+02 E-N=-1.696238967809D+02  KE=-1.566553766616D+01
 Orbital energies and kinetic energies (alpha):
                                 1                 2
   1         O                -1.945302         -1.410418
   2         O                -1.213592         -1.070059
   3         O                -0.991668         -0.911843
   4         O                -0.816447         -0.631385
   5         O                -0.807138         -0.694373
   6         O                -0.690113         -0.571715
   7         O                -0.670278         -0.581039

 Normal termination of Gaussian 09 at Tue Dec 15 17:09:59 2015.
