 Gaussian 09, Revision D.01,
 Gaussian 09:  ES64L-G09RevD.01 24-Apr-2013

 ------------------------------------------------------------
 #P AM1(Input,print) CIS(Singlets,NStates=15) pop(full) force
 ------------------------------------------------------------

 -----------------
 AM1-Reparam Input
 -----------------
 Symbolic Z-matrix:
 Charge =  0 Multiplicity = 1

                         Standard orientation:
 ---------------------------------------------------------------------
 Center     Atomic      Atomic             Coordinates (Angstroms)
 Number     Number       Type             X           Y           Z
 ---------------------------------------------------------------------
      1          6           0        0.569653    1.043992    0.004934
      2          6           0        1.183941   -0.220889   -0.006324
      3          8           0        0.135734   -1.131821   -0.002770
      4          6           0       -1.038320   -0.454336    0.013365
      5          6           0       -0.867145    0.820923   -0.009065
      6          1           0       -1.586914    1.554453   -0.018553
      7          1           0       -1.864804   -1.070508   -0.002558
      8          1           0        2.119918   -0.536569    0.003201
      9          1           0        1.157157    1.969053    0.022617
 ---------------------------------------------------------------------

 SCF Done:  E(RAM1) =   1.74372352402     A.U. after   14 cycles

 Excitation energies and oscillator strengths:

 Excited State   1:      Singlet-A      5.2148 eV  237.75 nm  f=0.3390  <S**2>=0.000
      13 -> 14         0.69444
 This state for optimization and/or second-order correction.
 Total Energy, E(CIS) =   1.93536353899
 Copying the excited state density for this state as the 1-particle RhoCI density.

 Excited State   2:      Singlet-A      6.1412 eV  201.89 nm  f=0.0038  <S**2>=0.000
      11 -> 15         0.10433
      13 -> 15         0.65879
      13 -> 17         0.16486
      13 -> 19         0.12660

 Excited State   3:      Singlet-A      6.6800 eV  185.61 nm  f=0.0063  <S**2>=0.000
      13 -> 16         0.60955
      13 -> 17         0.16025
      13 -> 19        -0.25263
      13 -> 21         0.10639

 Excited State   4:      Singlet-A      6.9936 eV  177.28 nm  f=0.0009  <S**2>=0.000
      12 -> 14         0.63427
      13 -> 16         0.13603
      13 -> 18        -0.19415
      13 -> 20         0.11291

 Excited State   5:      Singlet-A      7.2509 eV  170.99 nm  f=0.0027  <S**2>=0.000
      12 -> 14         0.27934
      13 -> 15         0.10892
      13 -> 16        -0.13449
      13 -> 17        -0.12431
      13 -> 18         0.39527
      13 -> 19        -0.30767
      13 -> 20        -0.31715
      13 -> 21         0.12670

 Excited State   6:      Singlet-A      7.8470 eV  158.00 nm  f=0.0139  <S**2>=0.000
      10 -> 14         0.19744
      13 -> 15        -0.14025
      13 -> 16        -0.12841
      13 -> 17         0.58245
      13 -> 18         0.18270
      13 -> 19         0.11049
      13 -> 20        -0.12197

 Excited State   7:      Singlet-A      8.0904 eV  153.25 nm  f=0.0010  <S**2>=0.000
      10 -> 14         0.66680
      13 -> 17        -0.16904

 Excited State   8:      Singlet-A      8.4919 eV  146.00 nm  f=0.0024  <S**2>=0.000
      11 -> 16        -0.10356
      13 -> 16         0.17646
      13 -> 17        -0.18981
      13 -> 19         0.46584
      13 -> 20        -0.41951

 Excited State   9:      Singlet-A      8.5941 eV  144.27 nm  f=0.0024  <S**2>=0.000
      13 -> 18         0.48537
      13 -> 19         0.23213
      13 -> 20         0.42655

 Excited State  10:      Singlet-A      8.6877 eV  142.71 nm  f=0.0976  <S**2>=0.000
      11 -> 14         0.67069
      12 -> 15        -0.13852

 Excited State  11:      Singlet-A      9.0659 eV  136.76 nm  f=0.0872  <S**2>=0.000
      13 -> 18        -0.13630
      13 -> 19         0.12302
      13 -> 21         0.66031

 Excited State  12:      Singlet-A      9.4193 eV  131.63 nm  f=0.0659  <S**2>=0.000
       8 -> 15        -0.12750
       9 -> 19        -0.10043
      10 -> 16        -0.18352
      10 -> 17        -0.20317
      11 -> 14         0.13742
      12 -> 15         0.41214
      12 -> 16        -0.14041
      12 -> 18        -0.12106
      12 -> 19         0.25360
      12 -> 20         0.22492

 Excited State  13:      Singlet-A      9.8158 eV  126.31 nm  f=0.1345  <S**2>=0.000
       8 -> 15        -0.11654
      10 -> 15         0.24671
      10 -> 16         0.16358
      10 -> 17         0.20053
      11 -> 14         0.10271
      12 -> 15         0.45057
      12 -> 19        -0.10581
      12 -> 20        -0.25877

 Excited State  14:      Singlet-A      9.9557 eV  124.54 nm  f=0.0091  <S**2>=0.000
       7 -> 15        -0.11931
      11 -> 15         0.57936
      11 -> 16         0.27466
      11 -> 17         0.12663
      13 -> 15        -0.10799

 Excited State  15:      Singlet-A     10.1783 eV  121.81 nm  f=0.0774  <S**2>=0.000
      10 -> 16        -0.27468
      10 -> 19         0.11727
      12 -> 16         0.51751
      12 -> 17         0.26146

 The electronic state is 1-A.
 Alpha  occ. eigenvalues --   -1.91715  -1.22462  -1.01761  -0.83158  -0.81294
 Alpha  occ. eigenvalues --   -0.69544  -0.63788  -0.55805  -0.52237  -0.44252
 Alpha  occ. eigenvalues --   -0.43079  -0.41035  -0.27749
 Alpha virt. eigenvalues --    0.11834   0.17710   0.21162   0.25035   0.27103
 Alpha virt. eigenvalues --    0.27907   0.28523   0.29340   0.35543   0.44253
 Alpha virt. eigenvalues --    0.49447

 Mulliken charges:
               1
     1  C   -0.155982
     2  C   -1.960027
     3  O    3.192311
     4  C   -1.910153
     5  C   -0.127258
     6  H    0.181454
     7  H    0.295020
     8  H    0.300223
     9  H    0.184410
 Sum of Mulliken charges =   0.00000

 Dipole moment (field-independent basis, Debye):
    X=              0.4707    Y=            -10.2418    Z=             -0.0870  Tot=             10.2530
 N-N= 1.042084237587D+02 E-N=-1.695927835193D+02  KE=-1.577901739960D+01
 Orbital energies and kinetic energies (alpha):
                                 1                 2
   1         O                -1.917149         -1.377627
   2         O                -1.224619         -1.094413
   3         O                -1.017612         -0.931256
   4         O                -0.831583         -0.647975
   5         O                -0.812940         -0.709963
   6         O                -0.695438         -0.577521
   7         O                -0.637883         -0.510672

 Normal termination of Gaussian 09 at Tue Dec 15 17:06:58 2015.
