 Gaussian 09, Revision D.01,
 Gaussian 09:  ES64L-G09RevD.01 24-Apr-2013

 ------------------------------------------------------------
 #P AM1(Input,print) CIS(Singlets,NStates=15) pop(full) force
 ------------------------------------------------------------

 -----------------
 AM1-Reparam Input
 -----------------
 Symbolic Z-matrix:
 Charge =  0 Multiplicity = 1

                         Standard orientation:
 ---------------------------------------------------------------------
 Center     Atomic      Atomic             Coordinates (Angstroms)
 Number     Number       Type             X           Y           Z
 ---------------------------------------------------------------------
      1          6           0        0.701226    0.967271    0.040553
      2          6           0        1.125392   -0.316932   -0.018002
      3          8           0        0.007052   -1.142557   -0.010788
      4          6           0       -1.064523   -0.340344    0.037152
      5          6           0       -0.742517    0.901630   -0.041313
      6          1           0       -1.448645    1.775495   -0.029997
      7          1           0       -2.014939   -0.928212    0.013211
      8          1           0        2.024224   -0.811181   -0.003780
      9          1           0        1.265480    1.834602   -0.003475
 ---------------------------------------------------------------------

 SCF Done:  E(RAM1) =   2.63456562218     A.U. after   13 cycles

 Excitation energies and oscillator strengths:

 Excited State   1:      Singlet-A      4.9095 eV  252.54 nm  f=0.3589  <S**2>=0.000
      13 -> 14         0.69906
 This state for optimization and/or second-order correction.
 Total Energy, E(CIS) =   2.81498744500
 Copying the excited state density for this state as the 1-particle RhoCI density.

 Excited State   2:      Singlet-A      5.6993 eV  217.54 nm  f=0.0006  <S**2>=0.000
      13 -> 15         0.67192
      13 -> 18         0.11566

 Excited State   3:      Singlet-A      6.3922 eV  193.96 nm  f=0.0003  <S**2>=0.000
      12 -> 14         0.67649
      13 -> 16         0.15197

 Excited State   4:      Singlet-A      6.4313 eV  192.78 nm  f=0.0025  <S**2>=0.000
      12 -> 14        -0.17031
      13 -> 16         0.64957
      13 -> 17        -0.11161

 Excited State   5:      Singlet-A      7.3964 eV  167.63 nm  f=0.0078  <S**2>=0.000
      11 -> 14         0.69575

 Excited State   6:      Singlet-A      7.5686 eV  163.81 nm  f=0.0002  <S**2>=0.000
      13 -> 16         0.12466
      13 -> 17         0.66122
      13 -> 18         0.11277
      13 -> 21        -0.11285

 Excited State   7:      Singlet-A      8.5142 eV  145.62 nm  f=0.1102  <S**2>=0.000
      10 -> 14         0.68495
      12 -> 15         0.10663

 Excited State   8:      Singlet-A      8.7932 eV  141.00 nm  f=0.0117  <S**2>=0.000
      10 -> 15        -0.17948
      12 -> 15        -0.12300
      13 -> 17        -0.12672
      13 -> 18         0.63523
      13 -> 19        -0.10336

 Excited State   9:      Singlet-A      8.9787 eV  138.09 nm  f=0.1407  <S**2>=0.000
      10 -> 14        -0.10189
      12 -> 15         0.57825
      12 -> 16        -0.18266
      12 -> 17         0.21055
      13 -> 18         0.12231

 Excited State  10:      Singlet-A      9.4093 eV  131.77 nm  f=0.0590  <S**2>=0.000
       9 -> 15         0.12409
      11 -> 15         0.38218
      11 -> 16         0.13953
      11 -> 18         0.21803
      12 -> 15         0.26363
      12 -> 16         0.24699
      12 -> 17        -0.32953

 Excited State  11:      Singlet-A      9.5017 eV  130.49 nm  f=0.0047  <S**2>=0.000
      10 -> 16         0.29238
      13 -> 19         0.61040

 Excited State  12:      Singlet-A      9.9254 eV  124.92 nm  f=0.0286  <S**2>=0.000
       7 -> 15        -0.14836
      10 -> 15         0.61154
      12 -> 16         0.17039
      13 -> 15        -0.12532
      13 -> 18         0.17199

 Excited State  13:      Singlet-A      9.9747 eV  124.30 nm  f=0.1343  <S**2>=0.000
      10 -> 15        -0.16776
      11 -> 15         0.12857
      11 -> 16        -0.40437
      11 -> 19        -0.13919
      12 -> 16         0.41090
      12 -> 17         0.22659

 Excited State  14:      Singlet-A     10.2339 eV  121.15 nm  f=0.0072  <S**2>=0.000
       8 -> 15         0.19868
       9 -> 15         0.20870
      11 -> 15         0.38754
      11 -> 17        -0.14525
      11 -> 19        -0.13516
      12 -> 15        -0.11881
      12 -> 16        -0.29420
      12 -> 17         0.19294
      12 -> 18         0.14276

 Excited State  15:      Singlet-A     10.4718 eV  118.40 nm  f=0.0043  <S**2>=0.000
       9 -> 14        -0.43423
      10 -> 16         0.45321
      13 -> 16         0.10397
      13 -> 19        -0.19518

 The electronic state is 1-A.
 Alpha  occ. eigenvalues --   -1.85647  -1.13441  -0.89180  -0.80023  -0.75237
 Alpha  occ. eigenvalues --   -0.66990  -0.63983  -0.55876  -0.54910  -0.45235
 Alpha  occ. eigenvalues --   -0.44559  -0.41744  -0.29002
 Alpha virt. eigenvalues --    0.08863   0.14874   0.18540   0.25164   0.27528
 Alpha virt. eigenvalues --    0.30397   0.36385   0.40582   0.47788   0.55498
 Alpha virt. eigenvalues --    0.59382

 Mulliken charges:
               1
     1  C   -0.175439
     2  C   -1.973248
     3  O    3.433787
     4  C   -1.966855
     5  C   -0.235897
     6  H    0.203920
     7  H    0.275261
     8  H    0.252603
     9  H    0.185866
 Sum of Mulliken charges =   0.00000

 Dipole moment (field-independent basis, Debye):
    X=             -0.7645    Y=            -11.6559    Z=             -0.3209  Tot=             11.6853
 N-N= 1.044080767679D+02 E-N=-1.702370252729D+02  KE=-1.439344086642D+01
 Orbital energies and kinetic energies (alpha):
                                 1                 2
   1         O                -1.856473         -1.255386
   2         O                -1.134407         -0.967637
   3         O                -0.891800         -0.796185
   4         O                -0.800230         -0.541413
   5         O                -0.752371         -0.626680
   6         O                -0.669900         -0.540752
   7         O                -0.639832         -0.500250

 Normal termination of Gaussian 09 at Tue Dec 15 17:07:34 2015.
