 Gaussian 09, Revision D.01,
 Gaussian 09:  ES64L-G09RevD.01 24-Apr-2013

 ------------------------------------------------------------
 #P AM1(Input,print) CIS(Singlets,NStates=15) pop(full) force
 ------------------------------------------------------------

 -----------------
 AM1-Reparam Input
 -----------------
 Symbolic Z-matrix:
 Charge =  0 Multiplicity = 1

                         Standard orientation:
 ---------------------------------------------------------------------
 Center     Atomic      Atomic             Coordinates (Angstroms)
 Number     Number       Type             X           Y           Z
 ---------------------------------------------------------------------
      1          6           0        0.657691    0.968838    0.044262
      2          6           0        1.142680   -0.235774   -0.032656
      3          8           0        0.098969   -1.115651    0.020825
      4          6           0       -1.072876   -0.403624   -0.016764
      5          6           0       -0.822255    0.845673   -0.004951
      6          1           0       -1.530414    1.715047   -0.027783
      7          1           0       -1.984058   -1.063644    0.006417
      8          1           0        2.122164   -0.697798   -0.032013
      9          1           0        1.169120    1.920926   -0.052563
 ---------------------------------------------------------------------

 SCF Done:  E(RAM1) =   2.10133155311     A.U. after   13 cycles

 Excitation energies and oscillator strengths:

 Excited State   1:      Singlet-A      4.9412 eV  250.92 nm  f=0.3555  <S**2>=0.000
      13 -> 14         0.69638
 This state for optimization and/or second-order correction.
 Total Energy, E(CIS) =   2.28291870590
 Copying the excited state density for this state as the 1-particle RhoCI density.

 Excited State   2:      Singlet-A      6.1580 eV  201.34 nm  f=0.0004  <S**2>=0.000
      13 -> 15         0.58823
      13 -> 16        -0.22047
      13 -> 17         0.11006
      13 -> 18         0.27251

 Excited State   3:      Singlet-A      6.3645 eV  194.81 nm  f=0.0019  <S**2>=0.000
      12 -> 14         0.68656
      13 -> 15        -0.10950

 Excited State   4:      Singlet-A      6.4260 eV  192.94 nm  f=0.0069  <S**2>=0.000
      12 -> 14         0.12672
      13 -> 15         0.24468
      13 -> 16         0.59689
      13 -> 17         0.18450
      13 -> 18        -0.14015

 Excited State   5:      Singlet-A      7.2558 eV  170.88 nm  f=0.0007  <S**2>=0.000
      13 -> 15        -0.19370
      13 -> 16         0.16078
      13 -> 17         0.15367
      13 -> 18         0.53324
      13 -> 19        -0.28043
      13 -> 20         0.15415
      13 -> 21         0.11882

 Excited State   6:      Singlet-A      7.6592 eV  161.88 nm  f=0.0093  <S**2>=0.000
      11 -> 14         0.69333

 Excited State   7:      Singlet-A      8.0709 eV  153.62 nm  f=0.0186  <S**2>=0.000
      11 -> 14        -0.10476
      13 -> 15        -0.12563
      13 -> 16        -0.15176
      13 -> 17         0.64146
      13 -> 18        -0.11201
      13 -> 19         0.10946

 Excited State   8:      Singlet-A      8.4745 eV  146.30 nm  f=0.0004  <S**2>=0.000
      13 -> 15        -0.10445
      13 -> 16         0.14241
      13 -> 18         0.25427
      13 -> 19         0.62365

 Excited State   9:      Singlet-A      8.8732 eV  139.73 nm  f=0.0809  <S**2>=0.000
      10 -> 14         0.65391
      12 -> 15        -0.16141
      13 -> 22         0.10174

 Excited State  10:      Singlet-A      9.0928 eV  136.35 nm  f=0.0990  <S**2>=0.000
      10 -> 14         0.11189
      11 -> 17        -0.17021
      12 -> 15         0.36890
      12 -> 16        -0.26479
      12 -> 18         0.41163
      12 -> 19        -0.10343
      13 -> 21        -0.12853

 Excited State  11:      Singlet-A      9.1862 eV  134.97 nm  f=0.0121  <S**2>=0.000
      13 -> 18        -0.18236
      13 -> 20         0.57362
      13 -> 21         0.33837

 Excited State  12:      Singlet-A      9.4107 eV  131.75 nm  f=0.0747  <S**2>=0.000
      13 -> 20        -0.36204
      13 -> 21         0.58286

 Excited State  13:      Singlet-A      9.7496 eV  127.17 nm  f=0.0727  <S**2>=0.000
      10 -> 14         0.14280
      11 -> 15         0.24645
      11 -> 17         0.12343
      12 -> 15         0.47632
      12 -> 16         0.25897
      12 -> 17         0.11209
      12 -> 18        -0.20685
      12 -> 19         0.13457

 Excited State  14:      Singlet-A      9.8793 eV  125.50 nm  f=0.1371  <S**2>=0.000
      11 -> 16        -0.27300
      11 -> 17        -0.15635
      12 -> 16         0.48334
      12 -> 17         0.16415
      12 -> 18         0.16747
      12 -> 19        -0.24968

 Excited State  15:      Singlet-A     10.4264 eV  118.91 nm  f=0.1001  <S**2>=0.000
       8 -> 15         0.18201
       9 -> 15         0.19440
      10 -> 14        -0.11026
      11 -> 15         0.38206
      11 -> 17         0.16696
      11 -> 19         0.24280
      12 -> 15        -0.11216
      12 -> 17         0.26856
      12 -> 18         0.14616
      12 -> 20         0.14715

 The electronic state is 1-A.
 Alpha  occ. eigenvalues --   -1.95044  -1.20166  -0.97650  -0.82498  -0.78440
 Alpha  occ. eigenvalues --   -0.68398  -0.65883  -0.55710  -0.53519  -0.45312
 Alpha  occ. eigenvalues --   -0.43514  -0.39588  -0.27282
 Alpha virt. eigenvalues --    0.10795   0.18140   0.19403   0.26237   0.26936
 Alpha virt. eigenvalues --    0.28756   0.30426   0.31228   0.34956   0.43713
 Alpha virt. eigenvalues --    0.48484

 Mulliken charges:
               1
     1  C   -0.278318
     2  C   -1.968456
     3  O    3.187590
     4  C   -1.958845
     5  C   -0.238113
     6  H    0.261962
     7  H    0.366064
     8  H    0.364587
     9  H    0.263529
 Sum of Mulliken charges =   0.00000

 Dipole moment (field-independent basis, Debye):
    X=              0.5535    Y=            -10.5335    Z=              0.5033  Tot=             10.5600
 N-N= 1.047002833373D+02 E-N=-1.702412893395D+02  KE=-1.549653808176D+01
 Orbital energies and kinetic energies (alpha):
                                 1                 2
   1         O                -1.950439         -1.397014
   2         O                -1.201664         -1.054713
   3         O                -0.976495         -0.885046
   4         O                -0.824980         -0.597686
   5         O                -0.784398         -0.682996
   6         O                -0.683979         -0.552933
   7         O                -0.658834         -0.528998

 Normal termination of Gaussian 09 at Tue Dec 15 17:07:16 2015.
