 Gaussian 09, Revision D.01,
 Gaussian 09:  ES64L-G09RevD.01 24-Apr-2013

 ------------------------------------------------------------
 #P AM1(Input,print) CIS(Singlets,NStates=15) pop(full) force
 ------------------------------------------------------------

 -----------------
 AM1-Reparam Input
 -----------------
 Symbolic Z-matrix:
 Charge =  0 Multiplicity = 1

                         Standard orientation:
 ---------------------------------------------------------------------
 Center     Atomic      Atomic             Coordinates (Angstroms)
 Number     Number       Type             X           Y           Z
 ---------------------------------------------------------------------
      1          6           0        0.961004    0.714901    0.003316
      2          6           0        0.937369   -0.618462   -0.000946
      3          8           0       -0.343133   -1.143220   -0.015483
      4          6           0       -1.091747   -0.002208    0.030209
      5          6           0       -0.447050    1.116828   -0.006390
      6          1           0       -0.799831    2.085926   -0.007749
      7          1           0       -2.187945   -0.289368   -0.041894
      8          1           0        1.755621   -1.305255    0.050051
      9          1           0        1.819766    1.388099   -0.033679
 ---------------------------------------------------------------------

 SCF Done:  E(RAM1) =   1.12599876226     A.U. after   14 cycles

 Excitation energies and oscillator strengths:

 Excited State   1:      Singlet-A      5.3881 eV  230.11 nm  f=0.2107  <S**2>=0.000
      12 -> 15         0.13117
      13 -> 14         0.68231
 This state for optimization and/or second-order correction.
 Total Energy, E(CIS) =   1.32400764164
 Copying the excited state density for this state as the 1-particle RhoCI density.

 Excited State   2:      Singlet-A      6.2552 eV  198.21 nm  f=0.0006  <S**2>=0.000
      13 -> 15         0.27058
      13 -> 16         0.62011
      13 -> 18         0.15106

 Excited State   3:      Singlet-A      6.4956 eV  190.87 nm  f=0.0074  <S**2>=0.000
      13 -> 15        -0.24572
      13 -> 17         0.61608
      13 -> 19         0.16143

 Excited State   4:      Singlet-A      6.6795 eV  185.62 nm  f=0.0381  <S**2>=0.000
      12 -> 14        -0.31946
      13 -> 15         0.50336
      13 -> 16        -0.22841
      13 -> 17         0.26909

 Excited State   5:      Singlet-A      7.2284 eV  171.52 nm  f=0.0005  <S**2>=0.000
      11 -> 14         0.69493

 Excited State   6:      Singlet-A      7.9318 eV  156.31 nm  f=0.0029  <S**2>=0.000
      13 -> 16        -0.10392
      13 -> 18         0.62293
      13 -> 19        -0.16287
      13 -> 20         0.11080
      13 -> 24         0.14556

 Excited State   7:      Singlet-A      8.0317 eV  154.37 nm  f=0.2408  <S**2>=0.000
      10 -> 14        -0.20994
      12 -> 14         0.56726
      13 -> 15         0.26322
      13 -> 16        -0.12074

 Excited State   8:      Singlet-A      8.1408 eV  152.30 nm  f=0.0353  <S**2>=0.000
      10 -> 14         0.62980
      11 -> 15        -0.13605
      12 -> 14         0.19097
      13 -> 20        -0.11162

 Excited State   9:      Singlet-A      8.3562 eV  148.37 nm  f=0.0006  <S**2>=0.000
      12 -> 16        -0.10409
      13 -> 17        -0.12177
      13 -> 19         0.43724
      13 -> 20         0.47289
      13 -> 23         0.13662

 Excited State  10:      Singlet-A      8.5545 eV  144.93 nm  f=0.0811  <S**2>=0.000
       8 -> 17         0.10225
       9 -> 16         0.11451
      11 -> 16         0.16631
      11 -> 17        -0.10398
      11 -> 18         0.12871
      12 -> 15         0.56886
      12 -> 16        -0.14333
      13 -> 14        -0.12157

 Excited State  11:      Singlet-A      8.7290 eV  142.04 nm  f=0.0028  <S**2>=0.000
      12 -> 15         0.13913
      12 -> 16         0.57307
      13 -> 19        -0.15979
      13 -> 20         0.27072
      13 -> 21         0.10299

 Excited State  12:      Singlet-A      8.8445 eV  140.18 nm  f=0.0134  <S**2>=0.000
       9 -> 15        -0.24328
      10 -> 14         0.18643
      11 -> 15         0.53314
      11 -> 16        -0.20481
      12 -> 17        -0.12896
      13 -> 19        -0.10209

 Excited State  13:      Singlet-A      8.8472 eV  140.14 nm  f=0.0053  <S**2>=0.000
      11 -> 15         0.18650
      12 -> 17         0.56314
      13 -> 18         0.13308
      13 -> 19         0.16527
      13 -> 20        -0.21102

 Excited State  14:      Singlet-A      9.1389 eV  135.67 nm  f=0.0015  <S**2>=0.000
      12 -> 16        -0.21086
      12 -> 17         0.23177
      13 -> 19        -0.28613
      13 -> 20         0.13131
      13 -> 21         0.50010

 Excited State  15:      Singlet-A      9.2926 eV  133.42 nm  f=0.0004  <S**2>=0.000
      12 -> 16         0.15634
      12 -> 17        -0.21854
      13 -> 17        -0.11475
      13 -> 18         0.16739
      13 -> 19         0.27834
      13 -> 20        -0.25277
      13 -> 21         0.41965
      13 -> 22         0.21616

 The electronic state is 1-A.
 Alpha  occ. eigenvalues --   -1.81219  -1.20548  -0.98255  -0.87306  -0.80260
 Alpha  occ. eigenvalues --   -0.74081  -0.71460  -0.58055  -0.55592  -0.52091
 Alpha  occ. eigenvalues --   -0.48888  -0.46933  -0.36504
 Alpha virt. eigenvalues --    0.04412   0.09446   0.09832   0.11716   0.18775
 Alpha virt. eigenvalues --    0.19765   0.21546   0.22581   0.26468   0.27933
 Alpha virt. eigenvalues --    0.29012

 Mulliken charges:
               1
     1  C   -0.127913
     2  C   -1.216930
     3  O    2.076908
     4  C   -1.185503
     5  C   -0.137404
     6  H    0.098664
     7  H    0.190909
     8  H    0.196790
     9  H    0.104478
 Sum of Mulliken charges =   0.00000

 Dipole moment (field-independent basis, Debye):
    X=             -2.4133    Y=             -7.4689    Z=             -0.2933  Tot=              7.8546
 N-N= 1.044959006918D+02 E-N=-1.715341275605D+02  KE=-1.498185661806D+01
 Orbital energies and kinetic energies (alpha):
                                 1                 2
   1         O                -1.812186         -1.235617
   2         O                -1.205485         -0.989906
   3         O                -0.982547         -0.839550
   4         O                -0.873058         -0.610607
   5         O                -0.802602         -0.670067
   6         O                -0.740805         -0.588897
   7         O                -0.714598         -0.518683

 Normal termination of Gaussian 09 at Tue Dec 15 17:05:38 2015.
