 Gaussian 09, Revision D.01,
 Gaussian 09:  ES64L-G09RevD.01 24-Apr-2013

 ------------------------------------------------------------
 #P AM1(Input,print) CIS(Singlets,NStates=15) pop(full) force
 ------------------------------------------------------------

 -----------------
 AM1-Reparam Input
 -----------------
 Symbolic Z-matrix:
 Charge =  0 Multiplicity = 1

                         Standard orientation:
 ---------------------------------------------------------------------
 Center     Atomic      Atomic             Coordinates (Angstroms)
 Number     Number       Type             X           Y           Z
 ---------------------------------------------------------------------
      1          6           0        0.804052    0.840071    0.001280
      2          6           0        1.027364   -0.520018   -0.011118
      3          8           0       -0.188200   -1.107461    0.028342
      4          6           0       -1.102251   -0.202701   -0.025629
      5          6           0       -0.527351    1.054121   -0.014606
      6          1           0       -1.063821    1.971322    0.073959
      7          1           0       -2.176746   -0.569906    0.004219
      8          1           0        1.924076   -1.135306   -0.049914
      9          1           0        1.611208    1.564739    0.045441
 ---------------------------------------------------------------------

 SCF Done:  E(RAM1) =   2.10584238380     A.U. after   13 cycles

 Excitation energies and oscillator strengths:

 Excited State   1:      Singlet-A      5.9645 eV  207.87 nm  f=0.3149  <S**2>=0.000
      13 -> 14         0.68865
 This state for optimization and/or second-order correction.
 Total Energy, E(CIS) =   2.32503332507
 Copying the excited state density for this state as the 1-particle RhoCI density.

 Excited State   2:      Singlet-A      6.6964 eV  185.15 nm  f=0.0023  <S**2>=0.000
      10 -> 15         0.10747
      13 -> 15         0.65756
      13 -> 16         0.10616
      13 -> 17        -0.15461

 Excited State   3:      Singlet-A      7.2953 eV  169.95 nm  f=0.0027  <S**2>=0.000
      10 -> 16        -0.11223
      13 -> 15        -0.10552
      13 -> 16         0.65156
      13 -> 19         0.11579

 Excited State   4:      Singlet-A      7.6094 eV  162.94 nm  f=0.0010  <S**2>=0.000
      11 -> 14        -0.10114
      12 -> 14         0.68788

 Excited State   5:      Singlet-A      8.0337 eV  154.33 nm  f=0.0060  <S**2>=0.000
      10 -> 14         0.41450
      11 -> 14         0.55699

 Excited State   6:      Singlet-A      8.6588 eV  143.19 nm  f=0.0089  <S**2>=0.000
      10 -> 15         0.10990
      11 -> 15        -0.10387
      13 -> 17         0.53568
      13 -> 18        -0.31584
      13 -> 21        -0.24376

 Excited State   7:      Singlet-A      8.8193 eV  140.58 nm  f=0.0065  <S**2>=0.000
      10 -> 16        -0.11973
      13 -> 17         0.37563
      13 -> 18         0.48138
      13 -> 21         0.29184

 Excited State   8:      Singlet-A      9.0748 eV  136.62 nm  f=0.0877  <S**2>=0.000
      10 -> 14         0.54822
      11 -> 14        -0.39670

 Excited State   9:      Singlet-A      9.5547 eV  129.76 nm  f=0.0026  <S**2>=0.000
      10 -> 15         0.14864
      11 -> 15        -0.19101
      13 -> 18         0.13694
      13 -> 19         0.60217
      13 -> 20        -0.10536

 Excited State  10:      Singlet-A      9.7329 eV  127.39 nm  f=0.0412  <S**2>=0.000
       8 -> 15         0.11965
       9 -> 15         0.13976
      10 -> 15         0.12472
      10 -> 16         0.17247
      10 -> 17        -0.15532
      11 -> 15         0.17920
      11 -> 16         0.20108
      11 -> 17        -0.19329
      11 -> 18        -0.12339
      12 -> 15         0.36420
      12 -> 17        -0.16747
      12 -> 18         0.18592
      13 -> 14        -0.11061

 Excited State  11:      Singlet-A      9.8125 eV  126.35 nm  f=0.0242  <S**2>=0.000
      10 -> 15        -0.26603
      11 -> 15         0.51519
      12 -> 15        -0.14670
      13 -> 15         0.16394
      13 -> 19         0.22601

 Excited State  12:      Singlet-A      9.9564 eV  124.53 nm  f=0.0844  <S**2>=0.000
      10 -> 15         0.45812
      10 -> 17        -0.11719
      11 -> 15         0.21739
      12 -> 15        -0.37690

 Excited State  13:      Singlet-A     10.0778 eV  123.03 nm  f=0.0063  <S**2>=0.000
      10 -> 15         0.14087
      13 -> 18        -0.35456
      13 -> 19         0.11938
      13 -> 21         0.56381

 Excited State  14:      Singlet-A     10.2249 eV  121.26 nm  f=0.1298  <S**2>=0.000
      11 -> 16         0.13403
      12 -> 16         0.60619
      12 -> 17        -0.10561
      12 -> 19         0.11065
      13 -> 20         0.16335

 Excited State  15:      Singlet-A     10.3655 eV  119.61 nm  f=0.1009  <S**2>=0.000
      10 -> 16        -0.21863
      11 -> 16         0.11352
      12 -> 16        -0.16099
      13 -> 19         0.13835
      13 -> 20         0.59984

 The electronic state is 1-A.
 Alpha  occ. eigenvalues --   -1.96040  -1.21635  -0.93064  -0.81633  -0.78638
 Alpha  occ. eigenvalues --   -0.69343  -0.67690  -0.56183  -0.53937  -0.44801
 Alpha  occ. eigenvalues --   -0.44349  -0.43097  -0.31853
 Alpha virt. eigenvalues --    0.11888   0.15504   0.18728   0.24360   0.26849
 Alpha virt. eigenvalues --    0.28722   0.30286   0.32192   0.34920   0.42606
 Alpha virt. eigenvalues --    0.47740

 Mulliken charges:
               1
     1  C   -0.098760
     2  C   -1.920894
     3  O    3.218161
     4  C   -1.928946
     5  C   -0.157086
     6  H    0.164403
     7  H    0.286014
     8  H    0.276715
     9  H    0.160392
 Sum of Mulliken charges =   0.00000

 Dipole moment (field-independent basis, Debye):
    X=             -1.9868    Y=             -9.6051    Z=              0.7091  Tot=              9.8341
 N-N= 1.049127608095D+02 E-N=-1.705708208767D+02  KE=-1.539773394091D+01
 Orbital energies and kinetic energies (alpha):
                                 1                 2
   1         O                -1.960397         -1.409590
   2         O                -1.216353         -1.062716
   3         O                -0.930642         -0.872025
   4         O                -0.816330         -0.565896
   5         O                -0.786384         -0.676455
   6         O                -0.693432         -0.603501
   7         O                -0.676904         -0.543003

 Normal termination of Gaussian 09 at Tue Dec 15 17:08:36 2015.
