 Gaussian 09, Revision D.01,
 Gaussian 09:  ES64L-G09RevD.01 24-Apr-2013

 ------------------------------------------------------------
 #P AM1(Input,print) CIS(Singlets,NStates=15) pop(full) force
 ------------------------------------------------------------

 -----------------
 AM1-Reparam Input
 -----------------
 Symbolic Z-matrix:
 Charge =  0 Multiplicity = 1

                         Standard orientation:
 ---------------------------------------------------------------------
 Center     Atomic      Atomic             Coordinates (Angstroms)
 Number     Number       Type             X           Y           Z
 ---------------------------------------------------------------------
      1          6           0       -0.937434    0.729833   -0.021719
      2          6           0       -0.962978   -0.593631    0.027571
      3          8           0        0.283689   -1.138888   -0.009341
      4          6           0        1.131678   -0.042859    0.014813
      5          6           0        0.467148    1.095240   -0.003600
      6          1           0        0.883264    2.063284    0.038627
      7          1           0        2.221465   -0.377353   -0.046116
      8          1           0       -1.789787   -1.219029   -0.025289
      9          1           0       -1.774941    1.512701    0.005117
 ---------------------------------------------------------------------

 SCF Done:  E(RAM1) =   1.83070745233     A.U. after   14 cycles

 Excitation energies and oscillator strengths:

 Excited State   1:      Singlet-A      5.3156 eV  233.25 nm  f=0.3584  <S**2>=0.000
      13 -> 14         0.69422
 This state for optimization and/or second-order correction.
 Total Energy, E(CIS) =   2.02605161128
 Copying the excited state density for this state as the 1-particle RhoCI density.

 Excited State   2:      Singlet-A      6.3448 eV  195.41 nm  f=0.0004  <S**2>=0.000
      13 -> 15         0.66922
      13 -> 17        -0.13484
      13 -> 19        -0.11313

 Excited State   3:      Singlet-A      6.5450 eV  189.43 nm  f=0.0046  <S**2>=0.000
      13 -> 16         0.67309
      13 -> 18        -0.13609

 Excited State   4:      Singlet-A      7.3275 eV  169.21 nm  f=0.0002  <S**2>=0.000
      12 -> 14         0.70125

 Excited State   5:      Singlet-A      7.8920 eV  157.10 nm  f=0.0003  <S**2>=0.000
      13 -> 15         0.11022
      13 -> 17         0.51140
      13 -> 18        -0.40208
      13 -> 21        -0.20118

 Excited State   6:      Singlet-A      8.2994 eV  149.39 nm  f=0.0082  <S**2>=0.000
      10 -> 14        -0.12629
      11 -> 14         0.67059
      13 -> 18         0.13597

 Excited State   7:      Singlet-A      8.6910 eV  142.66 nm  f=0.0062  <S**2>=0.000
      11 -> 14        -0.16150
      13 -> 17         0.42565
      13 -> 18         0.50270

 Excited State   8:      Singlet-A      9.1546 eV  135.43 nm  f=0.0703  <S**2>=0.000
       8 -> 15        -0.10042
      10 -> 14         0.64607
      11 -> 14         0.11590
      12 -> 15        -0.13460
      13 -> 22         0.10220

 Excited State   9:      Singlet-A      9.2660 eV  133.80 nm  f=0.0021  <S**2>=0.000
      13 -> 19         0.68070

 Excited State  10:      Singlet-A      9.5262 eV  130.15 nm  f=0.0317  <S**2>=0.000
       8 -> 15         0.11308
       9 -> 16         0.10587
      11 -> 16         0.12378
      11 -> 17        -0.15111
      11 -> 18        -0.12675
      12 -> 15         0.41308
      12 -> 16        -0.26865
      12 -> 17        -0.27071
      12 -> 18         0.22132

 Excited State  11:      Singlet-A     10.0852 eV  122.94 nm  f=0.1867  <S**2>=0.000
      10 -> 14         0.10342
      11 -> 15        -0.33215
      11 -> 16        -0.13532
      11 -> 17         0.15304
      12 -> 15         0.41904
      12 -> 16         0.10685
      12 -> 17         0.13651
      12 -> 18        -0.18215
      13 -> 20         0.17476
      13 -> 21        -0.13279

 Excited State  12:      Singlet-A     10.1007 eV  122.75 nm  f=0.0455  <S**2>=0.000
      11 -> 15         0.14321
      12 -> 15        -0.11831
      12 -> 16        -0.11551
      13 -> 17        -0.12019
      13 -> 18         0.15342
      13 -> 20         0.47748
      13 -> 21        -0.38399

 Excited State  13:      Singlet-A     10.2253 eV  121.25 nm  f=0.1317  <S**2>=0.000
      11 -> 16         0.28290
      11 -> 18        -0.12063
      12 -> 16         0.55729
      12 -> 17        -0.19943

 Excited State  14:      Singlet-A     10.4074 eV  119.13 nm  f=0.0609  <S**2>=0.000
      10 -> 16        -0.12513
      13 -> 20         0.43176
      13 -> 21         0.51511

 Excited State  15:      Singlet-A     10.5111 eV  117.96 nm  f=0.0122  <S**2>=0.000
       7 -> 15        -0.11414
      10 -> 15         0.62049
      10 -> 16         0.19055
      13 -> 15        -0.12139

 The electronic state is 1-A.
 Alpha  occ. eigenvalues --   -1.99163  -1.27476  -1.00556  -0.89147  -0.84692
 Alpha  occ. eigenvalues --   -0.76576  -0.74359  -0.62238  -0.61202  -0.52040
 Alpha  occ. eigenvalues --   -0.51278  -0.48280  -0.35077
 Alpha virt. eigenvalues --    0.05214   0.10719   0.12391   0.20021   0.21257
 Alpha virt. eigenvalues --    0.23715   0.26300   0.28188   0.28527   0.37115
 Alpha virt. eigenvalues --    0.41394

 Mulliken charges:
               1
     1  C   -0.163438
     2  C   -1.882696
     3  O    3.160097
     4  C   -1.854876
     5  C   -0.118391
     6  H    0.142246
     7  H    0.273342
     8  H    0.285031
     9  H    0.158683
 Sum of Mulliken charges =   0.00000

 Dipole moment (field-independent basis, Debye):
    X=              2.7405    Y=            -10.8928    Z=             -0.5506  Tot=             11.2458
 N-N= 1.056325673541D+02 E-N=-1.707162489887D+02  KE=-1.564571670301D+01
 Orbital energies and kinetic energies (alpha):
                                 1                 2
   1         O                -1.991632         -1.370027
   2         O                -1.274763         -1.056308
   3         O                -1.005562         -0.893687
   4         O                -0.891470         -0.579181
   5         O                -0.846922         -0.700677
   6         O                -0.765763         -0.589659
   7         O                -0.743594         -0.551235

 Normal termination of Gaussian 09 at Tue Dec 15 17:09:10 2015.
