 Gaussian 09, Revision D.01,
 Gaussian 09:  ES64L-G09RevD.01 24-Apr-2013

 ------------------------------------------------------------
 #P AM1(Input,print) CIS(Singlets,NStates=15) pop(full) force
 ------------------------------------------------------------

 -----------------
 AM1-Reparam Input
 -----------------
 Symbolic Z-matrix:
 Charge =  0 Multiplicity = 1

                         Standard orientation:
 ---------------------------------------------------------------------
 Center     Atomic      Atomic             Coordinates (Angstroms)
 Number     Number       Type             X           Y           Z
 ---------------------------------------------------------------------
      1          6           0       -0.716696    0.974194   -0.001533
      2          6           0       -1.107298   -0.366008   -0.010851
      3          8           0       -0.014993   -1.126145    0.021393
      4          6           0        1.125713   -0.343801   -0.025532
      5          6           0        0.713331    0.902906    0.003358
      6          1           0        1.455381    1.817331    0.048706
      7          1           0        2.036707   -0.850826   -0.004192
      8          1           0       -2.092884   -0.817018   -0.011359
      9          1           0       -1.369558    1.855927    0.003043
 ---------------------------------------------------------------------

 SCF Done:  E(RAM1) =   1.68751657122     A.U. after   13 cycles

 Excitation energies and oscillator strengths:

 Excited State   1:      Singlet-A      5.3436 eV  232.03 nm  f=0.3371  <S**2>=0.000
      13 -> 14         0.69352
 This state for optimization and/or second-order correction.
 Total Energy, E(CIS) =   1.88388888635
 Copying the excited state density for this state as the 1-particle RhoCI density.

 Excited State   2:      Singlet-A      6.3009 eV  196.77 nm  f=0.0079  <S**2>=0.000
      13 -> 15         0.63204
      13 -> 17        -0.24984
      13 -> 19         0.11076

 Excited State   3:      Singlet-A      6.7403 eV  183.94 nm  f=0.0011  <S**2>=0.000
      12 -> 14        -0.11402
      13 -> 16         0.61152
      13 -> 20        -0.21283
      13 -> 21        -0.18347

 Excited State   4:      Singlet-A      6.9929 eV  177.30 nm  f=0.0004  <S**2>=0.000
      12 -> 14         0.66027
      13 -> 16         0.14899
      13 -> 18        -0.10913
      13 -> 20         0.11625

 Excited State   5:      Singlet-A      7.3294 eV  169.16 nm  f=0.0012  <S**2>=0.000
      12 -> 14        -0.17785
      13 -> 15        -0.13776
      13 -> 17        -0.22356
      13 -> 18        -0.26850
      13 -> 19        -0.15289
      13 -> 20         0.52187

 Excited State   6:      Singlet-A      7.6282 eV  162.53 nm  f=0.0075  <S**2>=0.000
      13 -> 15         0.18793
      13 -> 16         0.14919
      13 -> 17         0.59903
      13 -> 20         0.22604

 Excited State   7:      Singlet-A      8.0845 eV  153.36 nm  f=0.0023  <S**2>=0.000
      10 -> 14         0.65634
      11 -> 14        -0.14215
      13 -> 17         0.10013
      13 -> 19        -0.10372
      13 -> 20        -0.10053

 Excited State   8:      Singlet-A      8.3190 eV  149.04 nm  f=0.0085  <S**2>=0.000
      13 -> 18         0.48128
      13 -> 19        -0.40481
      13 -> 20         0.18976
      13 -> 21        -0.21278

 Excited State   9:      Singlet-A      8.3881 eV  147.81 nm  f=0.0028  <S**2>=0.000
      10 -> 14         0.14750
      13 -> 16         0.16164
      13 -> 18         0.40077
      13 -> 19         0.43036
      13 -> 20         0.20253
      13 -> 21         0.20615

 Excited State  10:      Singlet-A      8.7308 eV  142.01 nm  f=0.0711  <S**2>=0.000
      10 -> 14         0.14496
      11 -> 14         0.64796
      12 -> 17         0.12922

 Excited State  11:      Singlet-A      8.9041 eV  139.24 nm  f=0.0898  <S**2>=0.000
      13 -> 19        -0.29476
      13 -> 20        -0.14625
      13 -> 21         0.59885

 Excited State  12:      Singlet-A      9.3834 eV  132.13 nm  f=0.1090  <S**2>=0.000
      10 -> 15         0.11164
      10 -> 16         0.16001
      10 -> 17        -0.24927
      10 -> 20        -0.15414
      11 -> 14        -0.15018
      12 -> 15        -0.25733
      12 -> 16         0.12521
      12 -> 17         0.33155
      12 -> 20        -0.27157

 Excited State  13:      Singlet-A      9.7552 eV  127.10 nm  f=0.1484  <S**2>=0.000
      10 -> 18         0.11313
      11 -> 14        -0.11671
      11 -> 15         0.14912
      12 -> 15         0.40824
      12 -> 16         0.23313
      12 -> 17         0.15713
      12 -> 18        -0.26763
      12 -> 19         0.22683
      12 -> 21        -0.10672

 Excited State  14:      Singlet-A      9.8165 eV  126.30 nm  f=0.0764  <S**2>=0.000
      11 -> 15         0.57711
      11 -> 17        -0.10277
      12 -> 16         0.12679
      12 -> 17        -0.14642
      12 -> 18         0.11313
      12 -> 19        -0.10463
      13 -> 15         0.11356

 Excited State  15:      Singlet-A      9.8940 eV  125.31 nm  f=0.2553  <S**2>=0.000
      11 -> 15        -0.21610
      12 -> 16         0.51418
      12 -> 17        -0.24948
      12 -> 18         0.13136
      12 -> 19        -0.10003
      12 -> 20        -0.18153
      12 -> 21        -0.12285

 The electronic state is 1-A.
 Alpha  occ. eigenvalues --   -1.91960  -1.21434  -1.00559  -0.82041  -0.80257
 Alpha  occ. eigenvalues --   -0.68406  -0.63804  -0.56143  -0.51830  -0.44108
 Alpha  occ. eigenvalues --   -0.43141  -0.40531  -0.28266
 Alpha virt. eigenvalues --    0.12034   0.18023   0.19641   0.23320   0.26034
 Alpha virt. eigenvalues --    0.26866   0.28206   0.28595   0.36894   0.45243
 Alpha virt. eigenvalues --    0.51009

 Mulliken charges:
               1
     1  C   -0.178519
     2  C   -1.983994
     3  O    3.198000
     4  C   -1.921417
     5  C   -0.097987
     6  H    0.175445
     7  H    0.298378
     8  H    0.320719
     9  H    0.189376
 Sum of Mulliken charges =   0.00000

 Dipole moment (field-independent basis, Debye):
    X=             -0.1273    Y=             -9.7580    Z=              0.6079  Tot=              9.7778
 N-N= 1.038957257473D+02 E-N=-1.692496536169D+02  KE=-1.571718102100D+01
 Orbital energies and kinetic energies (alpha):
                                 1                 2
   1         O                -1.919603         -1.390514
   2         O                -1.214339         -1.079002
   3         O                -1.005587         -0.914717
   4         O                -0.820414         -0.631867
   5         O                -0.802570         -0.708453
   6         O                -0.684059         -0.573744
   7         O                -0.638036         -0.512896

 Normal termination of Gaussian 09 at Tue Dec 15 17:06:55 2015.
