 Gaussian 09, Revision D.01,
 Gaussian 09:  ES64L-G09RevD.01 24-Apr-2013

 -------------------------------------------------------
 #P B3LYP/3-21G CIS(Singlets,NStates=15) pop(full) force
 -------------------------------------------------------

 --------
 FuranDFT
 --------
 Symbolic Z-matrix:
 Charge =  0 Multiplicity = 1

                         Standard orientation:
 ---------------------------------------------------------------------
 Center     Atomic      Atomic             Coordinates (Angstroms)
 Number     Number       Type             X           Y           Z
 ---------------------------------------------------------------------
      1          6           0        0.426935    1.086993    0.006452
      2          6           0        1.158484   -0.062068    0.034016
      3          8           0        0.323832   -1.092775   -0.013920
      4          6           0       -0.987586   -0.654582   -0.000887
      5          6           0       -0.950789    0.774502   -0.023468
      6          1           0       -1.781889    1.417671    0.030627
      7          1           0       -1.744242   -1.345937    0.070045
      8          1           0        2.197984   -0.256572   -0.078761
      9          1           0        0.855220    2.057965   -0.007227
 ---------------------------------------------------------------------

 SCF Done:  E(RB3LYP) =  -228.741105762     A.U. after   14 cycles

 Excitation energies and oscillator strengths:

 Excited State   1:      Singlet-A      6.9144 eV  179.31 nm  f=0.0842  <S**2>=0.000
      17 -> 19         0.41304
      18 -> 19         0.42885
      18 -> 20         0.35392
 This state for optimization and/or second-order correction.
 Total Energy, E(CIS) =  -228.487006066
 Copying the excited state density for this state as the 1-particle RhoCI density.

 Excited State   2:      Singlet-A      7.1939 eV  172.35 nm  f=0.1591  <S**2>=0.000
      17 -> 19        -0.31314
      18 -> 19         0.52734
      18 -> 20        -0.31268

 Excited State   3:      Singlet-A      8.3803 eV  147.95 nm  f=0.0065  <S**2>=0.000
      16 -> 19         0.70077

 Excited State   4:      Singlet-A      8.8040 eV  140.83 nm  f=0.0005  <S**2>=0.000
      18 -> 21         0.61276
      18 -> 22        -0.34107

 Excited State   5:      Singlet-A      9.1011 eV  136.23 nm  f=0.0468  <S**2>=0.000
      17 -> 19        -0.14154
      18 -> 20         0.16953
      18 -> 21         0.32475
      18 -> 22         0.56698

 Excited State   6:      Singlet-A      9.3709 eV  132.31 nm  f=0.4341  <S**2>=0.000
      17 -> 19        -0.38652
      17 -> 20        -0.24945
      18 -> 20         0.41831
      18 -> 21        -0.10503
      18 -> 22        -0.20768

 Excited State   7:      Singlet-A      9.6040 eV  129.10 nm  f=0.2165  <S**2>=0.000
      15 -> 19         0.19599
      16 -> 20        -0.11495
      17 -> 19        -0.12778
      17 -> 20         0.59602
      18 -> 20         0.17442

 Excited State   8:      Singlet-A      9.7799 eV  126.77 nm  f=0.0339  <S**2>=0.000
      15 -> 19         0.62537
      16 -> 20        -0.19286
      17 -> 20        -0.18716

 Excited State   9:      Singlet-A      9.9269 eV  124.90 nm  f=0.0015  <S**2>=0.000
      14 -> 19         0.11107
      17 -> 21        -0.24390
      18 -> 23         0.61859
      18 -> 24         0.15208

 Excited State  10:      Singlet-A     10.1439 eV  122.23 nm  f=0.0035  <S**2>=0.000
      16 -> 20        -0.10240
      17 -> 21         0.58904
      17 -> 22        -0.24704
      18 -> 23         0.24035

 Excited State  11:      Singlet-A     10.2370 eV  121.11 nm  f=0.0092  <S**2>=0.000
      14 -> 19        -0.45151
      15 -> 19         0.20292
      16 -> 20         0.46529
      18 -> 23         0.12378

 Excited State  12:      Singlet-A     10.4330 eV  118.84 nm  f=0.0113  <S**2>=0.000
      14 -> 19         0.11065
      17 -> 21         0.13216
      17 -> 22         0.55403
      18 -> 24        -0.35263

 Excited State  13:      Singlet-A     10.4709 eV  118.41 nm  f=0.0032  <S**2>=0.000
      14 -> 19         0.49493
      16 -> 20         0.44756
      17 -> 22        -0.16404

 Excited State  14:      Singlet-A     10.4778 eV  118.33 nm  f=0.0004  <S**2>=0.000
      17 -> 21         0.24403
      17 -> 22         0.30014
      18 -> 24         0.57410

 Excited State  15:      Singlet-A     10.8371 eV  114.41 nm  f=0.0050  <S**2>=0.000
      18 -> 25         0.68927

 The electronic state is 1-A.
 Alpha  occ. eigenvalues --  -19.11474 -10.17744 -10.17270 -10.12903 -10.11841
 Alpha  occ. eigenvalues --   -1.13088  -0.79739  -0.75196  -0.60244  -0.57855
 Alpha  occ. eigenvalues --   -0.54275  -0.46550  -0.44787  -0.41999  -0.40146
 Alpha  occ. eigenvalues --   -0.35335  -0.27570  -0.22659
 Alpha virt. eigenvalues --    0.01416   0.07756   0.14439   0.15164   0.18395
 Alpha virt. eigenvalues --    0.19739   0.21854   0.23406   0.33912   0.40854
 Alpha virt. eigenvalues --    0.47962   0.68623   0.69996   0.70551   0.74498

 Mulliken charges:
               1
     1  C   -0.268034
     2  C    0.125589
     3  O   -0.492577
     4  C    0.059482
     5  C   -0.240964
     6  H    0.189105
     7  H    0.221813
     8  H    0.221150
     9  H    0.184436
 Sum of Mulliken charges =   0.00000

 Dipole moment (field-independent basis, Debye):
    X=             -0.1766    Y=              0.5577    Z=              0.0315  Tot=              0.5858
 Quadrupole moment (field-independent basis, Debye-Ang):
   XX=            -23.6474   YY=            -27.8640   ZZ=            -31.7928
   XY=              1.0678   XZ=             -0.4959   YZ=             -0.0849

 Normal termination of Gaussian 09 at Tue Dec 15 16:14:41 2015.
