 Gaussian 09, Revision D.01,
 Gaussian 09:  ES64L-G09RevD.01 24-Apr-2013

 ------------------------------------------------------------
 #P AM1(Input,print) CIS(Singlets,NStates=15) pop(full) force
 ------------------------------------------------------------

 -----------------
 AM1-Reparam Input
 -----------------
 Symbolic Z-matrix:
 Charge =  0 Multiplicity = 1

                         Standard orientation:
 ---------------------------------------------------------------------
 Center     Atomic      Atomic             Coordinates (Angstroms)
 Number     Number       Type             X           Y           Z
 ---------------------------------------------------------------------
      1          6           0       -1.020417    0.619512   -0.026118
      2          6           0       -0.891285   -0.654347    0.012216
      3          8           0        0.411707   -1.029125   -0.003098
      4          6           0        1.176884    0.035336   -0.000925
      5          6           0        0.295869    1.087925    0.013852
      6          1           0        0.646310    2.146935   -0.021383
      7          1           0        2.242712   -0.100238    0.002443
      8          1           0       -1.675040   -1.535533   -0.006018
      9          1           0       -1.873945    1.191277    0.055588
 ---------------------------------------------------------------------

 SCF Done:  E(RAM1) =   1.84611153619     A.U. after   14 cycles

 Excitation energies and oscillator strengths:

 Excited State   1:      Singlet-A      5.4860 eV  226.00 nm  f=0.3239  <S**2>=0.000
      13 -> 14         0.68894
 This state for optimization and/or second-order correction.
 Total Energy, E(CIS) =   2.04771824125
 Copying the excited state density for this state as the 1-particle RhoCI density.

 Excited State   2:      Singlet-A      6.5209 eV  190.13 nm  f=0.0043  <S**2>=0.000
      10 -> 15         0.10354
      13 -> 15         0.66914
      13 -> 16         0.10954
      13 -> 17        -0.13089

 Excited State   3:      Singlet-A      6.8254 eV  181.65 nm  f=0.0044  <S**2>=0.000
      13 -> 15        -0.10776
      13 -> 16         0.66171
      13 -> 18        -0.13572
      13 -> 19        -0.11426

 Excited State   4:      Singlet-A      7.3742 eV  168.13 nm  f=0.0002  <S**2>=0.000
      12 -> 14         0.69720

 Excited State   5:      Singlet-A      8.0541 eV  153.94 nm  f=0.0027  <S**2>=0.000
      13 -> 17        -0.44475
      13 -> 18         0.48660
      13 -> 21         0.19170

 Excited State   6:      Singlet-A      8.2715 eV  149.89 nm  f=0.0057  <S**2>=0.000
      11 -> 14         0.69190

 Excited State   7:      Singlet-A      8.9802 eV  138.06 nm  f=0.0097  <S**2>=0.000
      10 -> 16        -0.14006
      13 -> 16         0.11957
      13 -> 17         0.49872
      13 -> 18         0.41635
      13 -> 19        -0.12108

 Excited State   8:      Singlet-A      9.2098 eV  134.62 nm  f=0.0724  <S**2>=0.000
      10 -> 14         0.60192
      11 -> 18         0.14853
      12 -> 15         0.24321

 Excited State   9:      Singlet-A      9.5134 eV  130.33 nm  f=0.0016  <S**2>=0.000
      13 -> 16         0.10255
      13 -> 19         0.66731

 Excited State  10:      Singlet-A      9.6608 eV  128.34 nm  f=0.0281  <S**2>=0.000
       8 -> 16         0.10497
      10 -> 14        -0.28321
      11 -> 16        -0.20274
      11 -> 17         0.12043
      11 -> 18         0.13997
      12 -> 15         0.36789
      12 -> 17        -0.29878
      12 -> 18         0.21703
      13 -> 14         0.10249

 Excited State  11:      Singlet-A      9.8062 eV  126.43 nm  f=0.2275  <S**2>=0.000
      11 -> 15        -0.12181
      11 -> 16        -0.15412
      12 -> 15        -0.17975
      12 -> 16         0.59440
      12 -> 17        -0.14936
      12 -> 19        -0.12911

 Excited State  12:      Singlet-A     10.0371 eV  123.53 nm  f=0.1185  <S**2>=0.000
      10 -> 14        -0.10928
      11 -> 15         0.40864
      11 -> 17        -0.11723
      12 -> 15         0.35572
      12 -> 16         0.25511
      12 -> 17         0.12592
      12 -> 18        -0.24058

 Excited State  13:      Singlet-A     10.3814 eV  119.43 nm  f=0.0429  <S**2>=0.000
      10 -> 15         0.10630
      13 -> 18         0.18102
      13 -> 20         0.57041
      13 -> 21        -0.32824

 Excited State  14:      Singlet-A     10.5140 eV  117.92 nm  f=0.0084  <S**2>=0.000
      10 -> 15         0.42563
      10 -> 16         0.40868
      11 -> 15         0.19077
      13 -> 20        -0.11257

 Excited State  15:      Singlet-A     10.6322 eV  116.61 nm  f=0.0404  <S**2>=0.000
       9 -> 15        -0.22636
      10 -> 14         0.10492
      10 -> 16        -0.26939
      11 -> 15         0.36172
      11 -> 19         0.17224
      12 -> 15        -0.12214
      12 -> 17        -0.23431
      12 -> 18         0.16384
      13 -> 21         0.15419

 The electronic state is 1-A.
 Alpha  occ. eigenvalues --   -2.02134  -1.29830  -1.01763  -0.90957  -0.84932
 Alpha  occ. eigenvalues --   -0.76779  -0.76167  -0.64970  -0.61385  -0.53248
 Alpha  occ. eigenvalues --   -0.52355  -0.49314  -0.37406
 Alpha virt. eigenvalues --    0.04347   0.09388   0.11221   0.18556   0.20016
 Alpha virt. eigenvalues --    0.22291   0.25088   0.27389   0.30874   0.38451
 Alpha virt. eigenvalues --    0.44462

 Mulliken charges:
               1
     1  C   -0.065002
     2  C   -1.906459
     3  O    3.176475
     4  C   -1.902247
     5  C   -0.225101
     6  H    0.175830
     7  H    0.288061
     8  H    0.313396
     9  H    0.145047
 Sum of Mulliken charges =   0.00000

 Dipole moment (field-independent basis, Debye):
    X=              3.0443    Y=             -9.6989    Z=             -0.1384  Tot=             10.1664
 N-N= 1.065967234119D+02 E-N=-1.721541744520D+02  KE=-1.572227242897D+01
 Orbital energies and kinetic energies (alpha):
                                 1                 2
   1         O                -2.021342         -1.419736
   2         O                -1.298304         -1.060362
   3         O                -1.017626         -0.882136
   4         O                -0.909567         -0.588871
   5         O                -0.849322         -0.694590
   6         O                -0.767788         -0.559969
   7         O                -0.761666         -0.604819

 Normal termination of Gaussian 09 at Tue Dec 15 17:08:57 2015.
