 Gaussian 09, Revision D.01,
 Gaussian 09:  ES64L-G09RevD.01 24-Apr-2013

 ------------------------------------------------------------
 #P AM1(Input,print) CIS(Singlets,NStates=15) pop(full) force
 ------------------------------------------------------------

 -----------------
 AM1-Reparam Input
 -----------------
 Symbolic Z-matrix:
 Charge =  0 Multiplicity = 1

                         Standard orientation:
 ---------------------------------------------------------------------
 Center     Atomic      Atomic             Coordinates (Angstroms)
 Number     Number       Type             X           Y           Z
 ---------------------------------------------------------------------
      1          6           0       -0.743755    0.928976   -0.008493
      2          6           0       -1.092569   -0.362042   -0.008402
      3          8           0       -0.006767   -1.137432    0.000742
      4          6           0        1.131052   -0.315910   -0.016647
      5          6           0        0.702879    0.929417    0.010949
      6          1           0        1.371381    1.803845    0.032348
      7          1           0        2.052946   -0.811230    0.032611
      8          1           0       -1.994924   -0.820840    0.078009
      9          1           0       -1.360904    1.845042   -0.013350
 ---------------------------------------------------------------------

 SCF Done:  E(RAM1) =   1.11823161631     A.U. after   13 cycles

 Excitation energies and oscillator strengths:

 Excited State   1:      Singlet-A      5.3901 eV  230.02 nm  f=0.2074  <S**2>=0.000
      12 -> 15         0.13371
      13 -> 14         0.68177
 This state for optimization and/or second-order correction.
 Total Energy, E(CIS) =   1.31631248031
 Copying the excited state density for this state as the 1-particle RhoCI density.

 Excited State   2:      Singlet-A      6.2810 eV  197.40 nm  f=0.0032  <S**2>=0.000
      13 -> 15        -0.15498
      13 -> 16         0.66160
      13 -> 20        -0.12887

 Excited State   3:      Singlet-A      6.7504 eV  183.67 nm  f=0.0276  <S**2>=0.000
      12 -> 14        -0.30616
      13 -> 15         0.59334
      13 -> 16         0.13331
      13 -> 17         0.12440

 Excited State   4:      Singlet-A      6.8440 eV  181.16 nm  f=0.0011  <S**2>=0.000
      13 -> 17         0.64528
      13 -> 18         0.15999
      13 -> 21        -0.14517

 Excited State   5:      Singlet-A      7.1358 eV  173.75 nm  f=0.0011  <S**2>=0.000
       9 -> 14         0.15319
      11 -> 14         0.67113
      12 -> 14        -0.13417

 Excited State   6:      Singlet-A      7.8219 eV  158.51 nm  f=0.0013  <S**2>=0.000
      10 -> 14         0.63824
      11 -> 15        -0.24338
      13 -> 19        -0.11807

 Excited State   7:      Singlet-A      7.9888 eV  155.20 nm  f=0.0004  <S**2>=0.000
      12 -> 16         0.10102
      13 -> 17        -0.15331
      13 -> 18         0.64091
      13 -> 22        -0.10722
      13 -> 24         0.14470

 Excited State   8:      Singlet-A      8.0504 eV  154.01 nm  f=0.2227  <S**2>=0.000
      11 -> 14         0.13935
      11 -> 16         0.11837
      12 -> 14         0.59361
      13 -> 15         0.27745

 Excited State   9:      Singlet-A      8.2253 eV  150.74 nm  f=0.0012  <S**2>=0.000
      13 -> 19         0.65389
      13 -> 20        -0.10200
      13 -> 23         0.11751

 Excited State  10:      Singlet-A      8.3280 eV  148.88 nm  f=0.0194  <S**2>=0.000
       6 -> 15         0.10292
       9 -> 15        -0.19795
      10 -> 14         0.27273
      11 -> 15         0.58430
      12 -> 15        -0.11659

 Excited State  11:      Singlet-A      8.7601 eV  141.53 nm  f=0.0180  <S**2>=0.000
      12 -> 15        -0.28999
      12 -> 16         0.58496

 Excited State  12:      Singlet-A      8.8970 eV  139.35 nm  f=0.1774  <S**2>=0.000
       9 -> 16         0.12323
       9 -> 17        -0.12152
      11 -> 17        -0.10040
      11 -> 18        -0.14224
      12 -> 15         0.52297
      12 -> 16         0.28361
      13 -> 14        -0.12352

 Excited State  13:      Singlet-A      9.1522 eV  135.47 nm  f=0.0381  <S**2>=0.000
       9 -> 16        -0.14088
      10 -> 17        -0.11337
      11 -> 16         0.36599
      11 -> 17         0.13887
      12 -> 17         0.33879
      13 -> 20        -0.35148

 Excited State  14:      Singlet-A      9.1682 eV  135.23 nm  f=0.0547  <S**2>=0.000
       9 -> 16        -0.14582
      10 -> 17        -0.13649
      11 -> 16         0.40185
      12 -> 17        -0.32258
      13 -> 20         0.32741

 Excited State  15:      Singlet-A      9.3847 eV  132.11 nm  f=0.0007  <S**2>=0.000
       9 -> 14         0.62385
      11 -> 14        -0.13270
      13 -> 21        -0.23516

 The electronic state is 1-A.
 Alpha  occ. eigenvalues --   -1.83158  -1.19385  -1.01017  -0.87581  -0.81654
 Alpha  occ. eigenvalues --   -0.74231  -0.71970  -0.61966  -0.56113  -0.51918
 Alpha  occ. eigenvalues --   -0.49047  -0.48123  -0.37776
 Alpha virt. eigenvalues --    0.03301   0.09137   0.10129   0.11906   0.17726
 Alpha virt. eigenvalues --    0.18944   0.19600   0.21908   0.26731   0.27130
 Alpha virt. eigenvalues --    0.27230

 Mulliken charges:
               1
     1  C   -0.184920
     2  C   -1.227196
     3  O    2.132323
     4  C   -1.227103
     5  C   -0.116856
     6  H    0.117105
     7  H    0.188299
     8  H    0.197328
     9  H    0.121020
 Sum of Mulliken charges =   0.00000

 Dipole moment (field-independent basis, Debye):
    X=             -0.1389    Y=             -7.0383    Z=              0.2980  Tot=              7.0460
 N-N= 1.046541135007D+02 E-N=-1.715852690816D+02  KE=-1.500772379737D+01
 Orbital energies and kinetic energies (alpha):
                                 1                 2
   1         O                -1.831583         -1.247953
   2         O                -1.193847         -0.960790
   3         O                -1.010171         -0.834561
   4         O                -0.875807         -0.624837
   5         O                -0.816540         -0.691037
   6         O                -0.742311         -0.579274
   7         O                -0.719701         -0.519140

 Normal termination of Gaussian 09 at Tue Dec 15 17:05:47 2015.
