 Gaussian 09, Revision D.01,
 Gaussian 09:  ES64L-G09RevD.01 24-Apr-2013

 ------------------------------------------------------------
 #P AM1(Input,print) CIS(Singlets,NStates=15) pop(full) force
 ------------------------------------------------------------

 -----------------
 AM1-Reparam Input
 -----------------
 Symbolic Z-matrix:
 Charge =  0 Multiplicity = 1

                         Standard orientation:
 ---------------------------------------------------------------------
 Center     Atomic      Atomic             Coordinates (Angstroms)
 Number     Number       Type             X           Y           Z
 ---------------------------------------------------------------------
      1          6           0        0.757171    0.896867   -0.007864
      2          6           0        1.115852   -0.438017   -0.018797
      3          8           0       -0.113448   -1.144788    0.022470
      4          6           0       -1.135647   -0.256853   -0.027972
      5          6           0       -0.613125    0.984238    0.020463
      6          1           0       -1.228986    1.966866   -0.028794
      7          1           0       -2.111270   -0.674049    0.012461
      8          1           0        1.989501   -0.939612   -0.011258
      9          1           0        1.512834    1.687690    0.052856
 ---------------------------------------------------------------------

 SCF Done:  E(RAM1) =   2.58954410529     A.U. after   13 cycles

 Excitation energies and oscillator strengths:

 Excited State   1:      Singlet-A      5.2714 eV  235.20 nm  f=0.3384  <S**2>=0.000
      13 -> 14         0.69670
 This state for optimization and/or second-order correction.
 Total Energy, E(CIS) =   2.78326462682
 Copying the excited state density for this state as the 1-particle RhoCI density.

 Excited State   2:      Singlet-A      6.4858 eV  191.16 nm  f=0.0018  <S**2>=0.000
      10 -> 15         0.12028
      13 -> 15         0.66460
      13 -> 18         0.11546

 Excited State   3:      Singlet-A      6.8166 eV  181.89 nm  f=0.0040  <S**2>=0.000
      12 -> 14        -0.45126
      13 -> 16         0.52322

 Excited State   4:      Singlet-A      6.8211 eV  181.77 nm  f=0.0016  <S**2>=0.000
      11 -> 14        -0.28500
      12 -> 14         0.48584
      13 -> 16         0.38884

 Excited State   5:      Singlet-A      7.1688 eV  172.95 nm  f=0.0028  <S**2>=0.000
      11 -> 14         0.63843
      12 -> 14         0.21254
      13 -> 16         0.18169

 Excited State   6:      Singlet-A      8.0076 eV  154.83 nm  f=0.0003  <S**2>=0.000
      13 -> 17         0.67214
      13 -> 21        -0.12181

 Excited State   7:      Singlet-A      8.4842 eV  146.14 nm  f=0.1160  <S**2>=0.000
      10 -> 14         0.69632

 Excited State   8:      Singlet-A      9.2581 eV  133.92 nm  f=0.0481  <S**2>=0.000
      10 -> 15        -0.26533
      11 -> 15        -0.18088
      11 -> 16        -0.13387
      11 -> 18        -0.12453
      12 -> 16        -0.17742
      12 -> 17         0.19826
      13 -> 18         0.47444

 Excited State   9:      Singlet-A      9.3116 eV  133.15 nm  f=0.0769  <S**2>=0.000
      10 -> 15        -0.14110
      11 -> 15         0.28067
      11 -> 16         0.16452
      11 -> 17         0.11130
      11 -> 18         0.17416
      12 -> 16         0.24335
      12 -> 17        -0.27123
      13 -> 18         0.35789

 Excited State  10:      Singlet-A      9.6250 eV  128.81 nm  f=0.1225  <S**2>=0.000
      12 -> 15         0.65597
      12 -> 16        -0.11334
      12 -> 18         0.12261
      12 -> 19        -0.10862

 Excited State  11:      Singlet-A      9.8280 eV  126.15 nm  f=0.0097  <S**2>=0.000
       7 -> 16         0.12256
      10 -> 15         0.15913
      10 -> 16         0.40616
      11 -> 16        -0.15221
      13 -> 19         0.48204

 Excited State  12:      Singlet-A      9.9942 eV  124.06 nm  f=0.1548  <S**2>=0.000
      10 -> 16         0.11834
      11 -> 15        -0.17913
      11 -> 16         0.57699
      11 -> 19         0.16444
      12 -> 16        -0.20491
      13 -> 19         0.10918

 Excited State  13:      Singlet-A     10.2439 eV  121.03 nm  f=0.0011  <S**2>=0.000
       7 -> 15        -0.11592
      10 -> 15         0.56758
      13 -> 15        -0.17319
      13 -> 18         0.26812
      13 -> 19        -0.18426

 Excited State  14:      Singlet-A     10.4497 eV  118.65 nm  f=0.1100  <S**2>=0.000
       8 -> 15        -0.10952
       8 -> 16         0.15896
       9 -> 15        -0.11130
       9 -> 16        -0.11453
      11 -> 15        -0.11910
      11 -> 16        -0.10315
      11 -> 17         0.40108
      11 -> 18         0.10084
      11 -> 19         0.10270
      12 -> 16         0.26882
      12 -> 17         0.27999
      12 -> 18        -0.14720
      12 -> 20        -0.11977

 Excited State  15:      Singlet-A     10.6714 eV  116.18 nm  f=0.1522  <S**2>=0.000
       8 -> 15         0.12742
       9 -> 14         0.23324
       9 -> 15         0.13095
      11 -> 15         0.41420
      12 -> 16        -0.15866
      12 -> 17         0.38000

 The electronic state is 1-A.
 Alpha  occ. eigenvalues --   -1.84161  -1.13039  -0.88281  -0.78676  -0.75614
 Alpha  occ. eigenvalues --   -0.66622  -0.63157  -0.56997  -0.55345  -0.44672
 Alpha  occ. eigenvalues --   -0.43614  -0.43049  -0.30945
 Alpha virt. eigenvalues --    0.09045   0.16573   0.18825   0.24385   0.27173
 Alpha virt. eigenvalues --    0.30376   0.35143   0.39851   0.47064   0.54372
 Alpha virt. eigenvalues --    0.58979

 Mulliken charges:
               1
     1  C   -0.164906
     2  C   -2.000530
     3  O    3.450625
     4  C   -2.003604
     5  C   -0.227183
     6  H    0.215305
     7  H    0.271375
     8  H    0.257476
     9  H    0.201441
 Sum of Mulliken charges =   0.00000

 Dipole moment (field-independent basis, Debye):
    X=             -1.6044    Y=            -10.8068    Z=              0.7538  Tot=             10.9513
 N-N= 1.038627238894D+02 E-N=-1.693101102133D+02  KE=-1.435280214233D+01
 Orbital energies and kinetic energies (alpha):
                                 1                 2
   1         O                -1.841606         -1.233453
   2         O                -1.130388         -0.961355
   3         O                -0.882807         -0.794856
   4         O                -0.786760         -0.531920
   5         O                -0.756145         -0.635054
   6         O                -0.666222         -0.547827
   7         O                -0.631565         -0.498372

 Normal termination of Gaussian 09 at Tue Dec 15 17:07:43 2015.
