 Gaussian 09, Revision D.01,
 Gaussian 09:  ES64L-G09RevD.01 24-Apr-2013

 -------------------------------------------------------
 #P B3LYP/3-21G CIS(Singlets,NStates=15) pop(full) force
 -------------------------------------------------------

 --------
 FuranDFT
 --------
 Symbolic Z-matrix:
 Charge =  0 Multiplicity = 1

                         Standard orientation:
 ---------------------------------------------------------------------
 Center     Atomic      Atomic             Coordinates (Angstroms)
 Number     Number       Type             X           Y           Z
 ---------------------------------------------------------------------
      1          6           0       -0.885000    0.851222   -0.017525
      2          6           0       -1.028314   -0.529937    0.024752
      3          8           0        0.176282   -1.125813   -0.025403
      4          6           0        1.140646   -0.185201    0.009596
      5          6           0        0.603293    1.036301    0.004514
      6          1           0        1.084755    1.957468   -0.002401
      7          1           0        2.141008   -0.531214    0.041122
      8          1           0       -1.941124   -1.084861    0.040854
      9          1           0       -1.678640    1.630808   -0.004370
 ---------------------------------------------------------------------

 SCF Done:  E(RB3LYP) =  -228.742272030     A.U. after   15 cycles

 Excitation energies and oscillator strengths:

 Excited State   1:      Singlet-A      7.1395 eV  173.66 nm  f=0.0007  <S**2>=0.000
      17 -> 19         0.51627
      18 -> 20         0.47486
 This state for optimization and/or second-order correction.
 Total Energy, E(CIS) =  -228.479899687
 Copying the excited state density for this state as the 1-particle RhoCI density.

 Excited State   2:      Singlet-A      7.4720 eV  165.93 nm  f=0.2202  <S**2>=0.000
      18 -> 19         0.68179

 Excited State   3:      Singlet-A      8.7749 eV  141.29 nm  f=0.0099  <S**2>=0.000
      16 -> 19         0.68206
      18 -> 21        -0.10714

 Excited State   4:      Singlet-A      8.8945 eV  139.39 nm  f=0.0006  <S**2>=0.000
      16 -> 19         0.11207
      18 -> 21         0.68103
      18 -> 22        -0.11814

 Excited State   5:      Singlet-A      9.0336 eV  137.25 nm  f=0.1535  <S**2>=0.000
      17 -> 19         0.16292
      17 -> 20         0.62285
      18 -> 20        -0.19045

 Excited State   6:      Singlet-A      9.3213 eV  133.01 nm  f=0.0041  <S**2>=0.000
      18 -> 21         0.12076
      18 -> 22         0.67887

 Excited State   7:      Singlet-A      9.6787 eV  128.10 nm  f=0.1793  <S**2>=0.000
      15 -> 19        -0.11121
      17 -> 19         0.23964
      17 -> 20        -0.15386
      17 -> 21         0.41031
      18 -> 20        -0.26199
      18 -> 23         0.36609

 Excited State   8:      Singlet-A      9.7441 eV  127.24 nm  f=0.1795  <S**2>=0.000
      15 -> 19         0.52155
      16 -> 20         0.10535
      17 -> 19         0.22887
      17 -> 20        -0.12585
      18 -> 20        -0.25393
      18 -> 23        -0.20371

 Excited State   9:      Singlet-A      9.8285 eV  126.15 nm  f=0.1737  <S**2>=0.000
      15 -> 19         0.36655
      17 -> 19        -0.21664
      17 -> 20         0.15243
      17 -> 21         0.44775
      18 -> 20         0.23320

 Excited State  10:      Singlet-A      9.9685 eV  124.38 nm  f=0.0218  <S**2>=0.000
      15 -> 19         0.20917
      16 -> 20         0.17160
      17 -> 21        -0.30323
      17 -> 22         0.17719
      18 -> 23         0.52491

 Excited State  11:      Singlet-A     10.1112 eV  122.62 nm  f=0.0039  <S**2>=0.000
      14 -> 19        -0.20720
      15 -> 19        -0.16190
      16 -> 20         0.61827
      18 -> 23        -0.14128

 Excited State  12:      Singlet-A     10.2379 eV  121.10 nm  f=0.0018  <S**2>=0.000
      17 -> 21         0.13170
      17 -> 22         0.67287
      18 -> 23        -0.10052

 Excited State  13:      Singlet-A     10.4640 eV  118.49 nm  f=0.0024  <S**2>=0.000
      18 -> 24         0.69044

 Excited State  14:      Singlet-A     10.7762 eV  115.05 nm  f=0.0009  <S**2>=0.000
      14 -> 19         0.59764
      15 -> 20         0.29677
      16 -> 20         0.14769
      17 -> 23        -0.11233
      17 -> 24         0.10259

 Excited State  15:      Singlet-A     10.8381 eV  114.40 nm  f=0.0008  <S**2>=0.000
      14 -> 19        -0.10041
      15 -> 20         0.44070
      16 -> 20        -0.10655
      17 -> 23         0.49092
      17 -> 25        -0.14241
      18 -> 25         0.10601

 The electronic state is 1-A.
 Alpha  occ. eigenvalues --  -19.11404 -10.17830 -10.17256 -10.13271 -10.12231
 Alpha  occ. eigenvalues --   -1.13661  -0.79267  -0.75610  -0.60656  -0.57148
 Alpha  occ. eigenvalues --   -0.54027  -0.45905  -0.45277  -0.42319  -0.38905
 Alpha  occ. eigenvalues --   -0.35558  -0.26947  -0.23531
 Alpha virt. eigenvalues --    0.02627   0.07232   0.13738   0.14845   0.17603
 Alpha virt. eigenvalues --    0.18880   0.21386   0.23330   0.36191   0.40835
 Alpha virt. eigenvalues --    0.46213   0.68505   0.69885   0.70188   0.74255

 Mulliken charges:
               1
     1  C   -0.247459
     2  C    0.095482
     3  O   -0.502400
     4  C    0.111325
     5  C   -0.270997
     6  H    0.187238
     7  H    0.220864
     8  H    0.220851
     9  H    0.185096
 Sum of Mulliken charges =   0.00000

 Dipole moment (field-independent basis, Debye):
    X=             -0.1070    Y=              0.6229    Z=              0.0913  Tot=              0.6386
 Quadrupole moment (field-independent basis, Debye-Ang):
   XX=            -23.4609   YY=            -28.0585   ZZ=            -31.8450
   XY=              0.5041   XZ=              0.0183   YZ=             -0.1047

 Normal termination of Gaussian 09 at Tue Dec 15 16:26:28 2015.
