 Gaussian 09, Revision D.01,
 Gaussian 09:  ES64L-G09RevD.01 24-Apr-2013

 ----------------------------
 #P AM1(Input,print) Opt Freq
 ----------------------------

 -----------------
 AM1-Reparam Input
 -----------------
 Symbolic Z-matrix:
 Charge =  0 Multiplicity = 1

 SCF Done:  E(RAM1) =  -3.13065609836     A.U. after   13 cycles
 SCF Done:  E(RAM1) =  -3.14433708367     A.U. after   12 cycles
 SCF Done:  E(RAM1) =  -3.14757423396     A.U. after   11 cycles
 SCF Done:  E(RAM1) =  -3.14811239455     A.U. after   11 cycles
 SCF Done:  E(RAM1) =  -3.14816549650     A.U. after   11 cycles
 SCF Done:  E(RAM1) =  -3.14818137824     A.U. after   10 cycles
 SCF Done:  E(RAM1) =  -3.14818926946     A.U. after   10 cycles
 Optimization completed.
    -- Stationary point found.
 Normal termination of Gaussian 09 at Thu Dec 24 04:40:01 2015.

 -------------------------------------------------------------
 #P Geom=AllCheck Guess=TCheck SCRF=Check GenChk RAM1/ZDO Freq
 -------------------------------------------------------------

 Structure from the checkpoint file:  "/home/Applications/g09/scratch/Gau-19253.chk"
 -----------------
 AM1-Reparam Input
 -----------------
 Charge =  0 Multiplicity = 1

                         Standard orientation:
 ---------------------------------------------------------------------
 Center     Atomic      Atomic             Coordinates (Angstroms)
 Number     Number       Type             X           Y           Z
 ---------------------------------------------------------------------
      1          6           0        0.735761    0.980910    0.000103
      2          6           0        1.148616   -0.302316   -0.000002
      3          8           0        0.048387   -1.164147   -0.000063
      4          6           0       -1.135703   -0.374112    0.000092
      5          6           0       -0.803030    0.928477   -0.000092
      6          1           0       -1.383954    1.822598   -0.000296
      7          1           0       -2.009110   -0.985316    0.000234
      8          1           0        2.076211   -0.832781   -0.000139
      9          1           0        1.255897    1.910920    0.000092
 ---------------------------------------------------------------------

 SCF Done:  E(RAM1) =  -3.14818926946     A.U. after    2 cycles

 The electronic state is 1-A.
 Alpha  occ. eigenvalues --   -1.63469  -1.28449  -1.18478  -0.97418  -0.91726
 Alpha  occ. eigenvalues --   -0.87099  -0.74253  -0.51415  -0.46585  -0.38741
 Alpha  occ. eigenvalues --   -0.37801  -0.36749  -0.24883
 Alpha virt. eigenvalues --    0.21549   0.23884   0.31678   0.33029   0.34040
 Alpha virt. eigenvalues --    0.35360   0.37743   0.39061   0.44233   0.44799
 Alpha virt. eigenvalues --    0.49988

 Mulliken charges:
               1
     1  C   -0.561786
     2  C    0.793809
     3  O   -1.170051
     4  C    0.739453
     5  C   -0.519113
     6  H    0.244801
     7  H    0.119377
     8  H    0.106198
     9  H    0.247312
 Sum of Mulliken charges =   0.00000

 Dipole moment (field-independent basis, Debye):
    X=             -0.1119    Y=              1.6484    Z=              0.0003  Tot=              1.6522
 N-N= 1.019670772338D+02 E-N=-1.700738350799D+02  KE=-2.021538368597D+01
  Exact polarizability:  30.247  -0.115  37.811  -0.001  -0.001   5.614
 Approx polarizability:  21.113  -0.238  32.739  -0.001  -0.001   4.247
 Leave Link  601 at Thu Dec 24 04:40:01 2015, MaxMem=    33554432 cpu:         0.0
 (Enter /home/Applications/g09/g09/l701.exe)
 Compute integral second derivatives.
 ... and contract with generalized density number  0.
 Leave Link  701 at Thu Dec 24 04:40:01 2015, MaxMem=    33554432 cpu:         0.0
 (Enter /home/Applications/g09/g09/l702.exe)
 L702 exits ... SP integral derivatives will be done elsewhere.

                      1                      2                      3
                      A                      A                      A
 Frequencies --    249.0968               586.0170               599.1865
 Red. masses --      9.7918                 1.9806                 2.5118
 Frc consts  --      0.3580                 0.4007                 0.5313
 IR Inten    --     58.0678                 0.2828               122.3925

                      4                      5                      6
                      A                      A                      A
 Frequencies --    885.4944               939.3766               941.6482
 Red. masses --      6.9608                 6.8066                 1.1894
 Frc consts  --      3.2157                 3.5388                 0.6214
 IR Inten    --    252.6589                30.1417               188.2114

                      7                      8                      9
                      A                      A                      A
 Frequencies --    993.2719               994.1693              1013.4540
 Red. masses --      1.5628                 3.0594                 1.3708
 Frc consts  --      0.9084                 1.7816                 0.8295
 IR Inten    --      0.4039               270.0235                 0.2206

                     10                     11                     12
                      A                      A                      A
 Frequencies --   1041.6480              1130.0969              1185.2780
 Red. masses --      1.5972                 2.6619                 1.1724
 Frc consts  --      1.0210                 2.0030                 0.9704
 IR Inten    --     19.7365                35.9131                39.6499

                     13                     14                     15
                      A                      A                      A
 Frequencies --   1190.8832              1343.2891              1377.3446
 Red. masses --      1.7757                 1.1647                 1.1907
 Frc consts  --      1.4838                 1.2383                 1.3309
 IR Inten    --     10.7226                11.1760                 1.3922

                     16                     17                     18
                      A                      A                      A
 Frequencies --   1721.4035              1757.8544              3485.6093
 Red. masses --      6.1074                 6.6746                 1.0779
 Frc consts  --     10.6628                12.1518                 7.7162
 IR Inten    --    104.5775                24.5464                11.2150

                     19                     20                     21
                      A                      A                      A
 Frequencies --   3498.2593              3504.1359              3510.5677
 Red. masses --      1.0761                 1.0846                 1.0922
 Frc consts  --      7.7590                 7.8464                 7.9305
 IR Inten    --     16.0692                 2.5929                60.3262

 - Thermochemistry -
 -------------------
 Temperature   298.150 Kelvin.  Pressure   1.00000 Atm.
 Atom     1 has atomic number  6 and mass  12.00000

 Molecular mass:    68.02621 amu.
 Principal axes and moments of inertia in atomic units:
                           1         2         3
     Eigenvalues --   196.37526 205.40814 401.78339
           X            0.99877   0.04953   0.00000
           Y           -0.04953   0.99877  -0.00001
           Z            0.00000   0.00001   1.00000
 This molecule is an asymmetric top.
 Rotational symmetry number  1.
 Rotational temperatures (Kelvin)      0.44106     0.42167     0.21557
 Rotational constants (GHZ):           9.19027     8.78612     4.49183
 Zero-point vibrational energy     191092.0 (Joules/Mol)
                                   45.67208 (Kcal/Mol)
 Warning -- explicit consideration of   3 degrees of freedom as
           vibrations may cause significant error
 Vibrational temperatures:    358.39   843.15   862.09  1274.03  1351.55
          (Kelvin)           1354.82  1429.09  1430.39  1458.13  1498.70
                             1625.96  1705.35  1713.41  1932.69  1981.69
                             2476.71  2529.16  5015.01  5033.21  5041.66
                             5050.92

 Zero-point correction=                           0.072783 (Hartree/Particle)
 Thermal correction to Energy=                    0.076801
 Thermal correction to Enthalpy=                  0.077746
 Thermal correction to Gibbs Free Energy=         0.046165
 Sum of electronic and zero-point Energies=             -3.075406
 Sum of electronic and thermal Energies=                -3.071388
 Sum of electronic and thermal Enthalpies=              -3.070444
 Sum of electronic and thermal Free Energies=           -3.102025

                     E (Thermal)             CV                S
                      KCal/Mol        Cal/Mol-Kelvin    Cal/Mol-Kelvin
 Total                   48.194             13.687             66.468
 Electronic               0.000              0.000              0.000
 Translational            0.889              2.981             38.570
 Rotational               0.889              2.981             24.298
 Vibrational             46.416              7.725              3.600
 Vibration     1          0.662              1.764              1.737
 Vibration     2          0.943              1.062              0.474
 Vibration     3          0.957              1.034              0.451

 Normal termination of Gaussian 09 at Thu Dec 24 04:40:01 2015.
