 Gaussian 09, Revision D.01,
 Gaussian 09:  ES64L-G09RevD.01 24-Apr-2013

 ------------------------------------------------------------
 #P AM1(Input,print) CIS(Singlets,NStates=15) pop(full) force
 ------------------------------------------------------------

 -----------------
 AM1-Reparam Input
 -----------------
 Symbolic Z-matrix:
 Charge =  0 Multiplicity = 1

                         Standard orientation:
 ---------------------------------------------------------------------
 Center     Atomic      Atomic             Coordinates (Angstroms)
 Number     Number       Type             X           Y           Z
 ---------------------------------------------------------------------
      1          6           0        0.222048    1.174549   -0.022903
      2          6           0        1.125406    0.115966    0.022755
      3          8           0        0.481424   -1.064922   -0.017949
      4          6           0       -0.810911   -0.774028    0.015656
      5          6           0       -1.055215    0.593731   -0.003601
      6          1           0       -1.979509    1.086894    0.028569
      7          1           0       -1.545866   -1.581484    0.001573
      8          1           0        2.236428    0.095079    0.020905
      9          1           0        0.549588    2.257576    0.021105
 ---------------------------------------------------------------------

 SCF Done:  E(RAM1) =   2.49859975007     A.U. after   13 cycles

 Excitation energies and oscillator strengths:

 Excited State   1:      Singlet-A      5.6090 eV  221.05 nm  f=0.3362  <S**2>=0.000
      13 -> 14         0.69362
 This state for optimization and/or second-order correction.
 Total Energy, E(CIS) =   2.70472505650
 Copying the excited state density for this state as the 1-particle RhoCI density.

 Excited State   2:      Singlet-A      6.5969 eV  187.94 nm  f=0.0041  <S**2>=0.000
      13 -> 15         0.65825
      13 -> 17        -0.19648

 Excited State   3:      Singlet-A      6.7856 eV  182.72 nm  f=0.0001  <S**2>=0.000
      11 -> 15        -0.11889
      13 -> 16         0.65467
      13 -> 18        -0.13974
      13 -> 19        -0.13932

 Excited State   4:      Singlet-A      7.1277 eV  173.95 nm  f=0.0011  <S**2>=0.000
       9 -> 14        -0.13664
      12 -> 14         0.68765

 Excited State   5:      Singlet-A      7.8440 eV  158.06 nm  f=0.0055  <S**2>=0.000
      10 -> 14         0.66375
      11 -> 14         0.20250

 Excited State   6:      Singlet-A      8.2994 eV  149.39 nm  f=0.0008  <S**2>=0.000
      11 -> 15        -0.12198
      13 -> 17        -0.29924
      13 -> 18         0.49859
      13 -> 20        -0.11803
      13 -> 21         0.33723

 Excited State   7:      Singlet-A      8.4117 eV  147.39 nm  f=0.0081  <S**2>=0.000
      11 -> 16        -0.17936
      13 -> 15         0.12787
      13 -> 16         0.10009
      13 -> 17         0.57874
      13 -> 18         0.26468
      13 -> 21         0.12491

 Excited State   8:      Singlet-A      8.7304 eV  142.01 nm  f=0.1014  <S**2>=0.000
      10 -> 14        -0.20369
      11 -> 14         0.66308

 Excited State   9:      Singlet-A      9.0498 eV  137.00 nm  f=0.0024  <S**2>=0.000
      11 -> 15        -0.16505
      13 -> 19         0.66119

 Excited State  10:      Singlet-A      9.4302 eV  131.48 nm  f=0.0035  <S**2>=0.000
       8 -> 15        -0.16044
       9 -> 16         0.14510
      10 -> 15         0.27132
      10 -> 16         0.16394
      10 -> 17        -0.25229
      11 -> 15         0.11595
      12 -> 15         0.21503
      12 -> 16        -0.25315
      12 -> 17        -0.13796
      12 -> 18         0.23220

 Excited State  11:      Singlet-A      9.6089 eV  129.03 nm  f=0.0076  <S**2>=0.000
       9 -> 14         0.10955
      11 -> 15        -0.13156
      13 -> 18        -0.37529
      13 -> 20        -0.25898
      13 -> 21         0.48643

 Excited State  12:      Singlet-A      9.7635 eV  126.99 nm  f=0.0806  <S**2>=0.000
      11 -> 15         0.45458
      11 -> 16         0.14232
      12 -> 16         0.41537
      13 -> 16         0.12341
      13 -> 19         0.10717
      13 -> 21         0.10102

 Excited State  13:      Singlet-A      9.7872 eV  126.68 nm  f=0.0428  <S**2>=0.000
      10 -> 16         0.19302
      11 -> 15        -0.32602
      12 -> 15         0.36064
      12 -> 16         0.36245
      12 -> 17        -0.13127
      13 -> 21        -0.10885

 Excited State  14:      Singlet-A      9.8903 eV  125.36 nm  f=0.1002  <S**2>=0.000
      10 -> 15         0.37654
      10 -> 17        -0.13469
      11 -> 15        -0.12612
      11 -> 16        -0.26156
      12 -> 15        -0.35068
      12 -> 16         0.19030
      12 -> 19        -0.10382
      13 -> 20         0.16186

 Excited State  15:      Singlet-A      9.9450 eV  124.67 nm  f=0.0655  <S**2>=0.000
       9 -> 14         0.15335
      10 -> 15        -0.15012
      10 -> 16         0.10553
      11 -> 15         0.16356
      11 -> 16        -0.34387
      12 -> 15         0.20596
      13 -> 20         0.40635
      13 -> 21         0.21925

 The electronic state is 1-A.
 Alpha  occ. eigenvalues --   -1.74337  -1.15771  -0.93898  -0.80778  -0.75428
 Alpha  occ. eigenvalues --   -0.67228  -0.64633  -0.54344  -0.49278  -0.43968
 Alpha  occ. eigenvalues --   -0.43182  -0.41469  -0.30029
 Alpha virt. eigenvalues --    0.11640   0.17381   0.17780   0.24840   0.27189
 Alpha virt. eigenvalues --    0.28503   0.30572   0.32360   0.41675   0.51001
 Alpha virt. eigenvalues --    0.55355

 Mulliken charges:
               1
     1  C   -0.035616
     2  C   -1.947183
     3  O    3.219657
     4  C   -1.961411
     5  C   -0.048456
     6  H    0.115240
     7  H    0.276623
     8  H    0.265160
     9  H    0.115986
 Sum of Mulliken charges =   0.00000

 Dipole moment (field-independent basis, Debye):
    X=              4.1206    Y=             -9.2944    Z=             -0.5001  Tot=             10.1792
 N-N= 1.037200212008D+02 E-N=-1.687334081644D+02  KE=-1.502255439563D+01
 Orbital energies and kinetic energies (alpha):
                                 1                 2
   1         O                -1.743369         -1.251924
   2         O                -1.157707         -1.020903
   3         O                -0.938978         -0.850304
   4         O                -0.807781         -0.614456
   5         O                -0.754282         -0.678232
   6         O                -0.672282         -0.581493
   7         O                -0.646334         -0.523331

 Normal termination of Gaussian 09 at Tue Dec 15 17:06:24 2015.
