 Gaussian 09, Revision D.01,
 Gaussian 09:  ES64L-G09RevD.01 24-Apr-2013

 ------------------------------------------------------------
 #P AM1(Input,print) CIS(Singlets,NStates=15) pop(full) force
 ------------------------------------------------------------

 -----------------
 AM1-Reparam Input
 -----------------
 Symbolic Z-matrix:
 Charge =  0 Multiplicity = 1

                         Standard orientation:
 ---------------------------------------------------------------------
 Center     Atomic      Atomic             Coordinates (Angstroms)
 Number     Number       Type             X           Y           Z
 ---------------------------------------------------------------------
      1          6           0       -0.649419    0.961871   -0.002631
      2          6           0       -1.095568   -0.246318    0.001723
      3          8           0       -0.104229   -1.154401    0.000617
      4          6           0        1.085947   -0.418762   -0.000511
      5          6           0        0.768999    0.916622    0.000003
      6          1           0        1.440928    1.691179    0.031100
      7          1           0        2.021488   -0.928274   -0.019471
      8          1           0       -2.054341   -0.701881    0.012815
      9          1           0       -1.233998    1.893702   -0.020884
 ---------------------------------------------------------------------

 SCF Done:  E(RAM1) =   2.15305124932     A.U. after   13 cycles

 Excitation energies and oscillator strengths:

 Excited State   1:      Singlet-A      5.4832 eV  226.12 nm  f=0.3463  <S**2>=0.000
      13 -> 14         0.69517
 This state for optimization and/or second-order correction.
 Total Energy, E(CIS) =   2.35455490517
 Copying the excited state density for this state as the 1-particle RhoCI density.

 Excited State   2:      Singlet-A      6.2165 eV  199.44 nm  f=0.0006  <S**2>=0.000
      10 -> 15         0.10936
      13 -> 15         0.68013

 Excited State   3:      Singlet-A      6.7710 eV  183.11 nm  f=0.0019  <S**2>=0.000
      10 -> 16        -0.10775
      13 -> 16         0.66404
      13 -> 17        -0.14486
      13 -> 19         0.13155

 Excited State   4:      Singlet-A      7.2165 eV  171.81 nm  f=0.0002  <S**2>=0.000
      12 -> 14         0.69986

 Excited State   5:      Singlet-A      8.0807 eV  153.43 nm  f=0.0013  <S**2>=0.000
      11 -> 14        -0.24282
      13 -> 16        -0.11929
      13 -> 17        -0.38158
      13 -> 18         0.41726
      13 -> 22         0.28256

 Excited State   6:      Singlet-A      8.1576 eV  151.99 nm  f=0.0075  <S**2>=0.000
      10 -> 14         0.19852
      11 -> 14         0.58171
      13 -> 18         0.29282
      13 -> 22         0.13757

 Excited State   7:      Singlet-A      8.4188 eV  147.27 nm  f=0.0060  <S**2>=0.000
      11 -> 14        -0.21180
      13 -> 17         0.55156
      13 -> 18         0.30559
      13 -> 19         0.12569

 Excited State   8:      Singlet-A      9.0391 eV  137.16 nm  f=0.0449  <S**2>=0.000
      10 -> 14         0.59509
      11 -> 14        -0.19983
      12 -> 15         0.19857
      13 -> 20        -0.19445

 Excited State   9:      Singlet-A      9.1894 eV  134.92 nm  f=0.0026  <S**2>=0.000
      10 -> 16         0.10372
      13 -> 18        -0.22294
      13 -> 19         0.64076

 Excited State  10:      Singlet-A      9.5149 eV  130.30 nm  f=0.1123  <S**2>=0.000
       8 -> 15        -0.13535
      10 -> 14        -0.16912
      11 -> 17         0.10801
      12 -> 15         0.56499
      12 -> 16        -0.19316
      12 -> 18        -0.17580

 Excited State  11:      Singlet-A      9.6813 eV  128.07 nm  f=0.0095  <S**2>=0.000
      13 -> 18        -0.28404
      13 -> 19        -0.12830
      13 -> 21        -0.24517
      13 -> 22         0.56803

 Excited State  12:      Singlet-A      9.8886 eV  125.38 nm  f=0.0417  <S**2>=0.000
       9 -> 15         0.13345
      10 -> 15         0.12589
      11 -> 15         0.26856
      11 -> 17        -0.19458
      11 -> 18        -0.13016
      12 -> 15         0.28931
      12 -> 16         0.27655
      12 -> 17        -0.26196
      12 -> 18         0.19854

 Excited State  13:      Singlet-A      9.9659 eV  124.41 nm  f=0.0862  <S**2>=0.000
      10 -> 15         0.13350
      13 -> 21         0.62289
      13 -> 22         0.22680

 Excited State  14:      Singlet-A     10.1457 eV  122.20 nm  f=0.1158  <S**2>=0.000
      10 -> 14         0.20486
      11 -> 15         0.11680
      13 -> 20         0.64396

 Excited State  15:      Singlet-A     10.2398 eV  121.08 nm  f=0.0029  <S**2>=0.000
       7 -> 15        -0.13587
      10 -> 15         0.58556
      10 -> 16         0.13404
      11 -> 15        -0.23061
      13 -> 15        -0.13448
      13 -> 21        -0.12721

 The electronic state is 1-A.
 Alpha  occ. eigenvalues --   -1.94143  -1.20732  -0.94546  -0.81120  -0.78680
 Alpha  occ. eigenvalues --   -0.69836  -0.66713  -0.54921  -0.53954  -0.44515
 Alpha  occ. eigenvalues --   -0.44227  -0.41178  -0.28568
 Alpha virt. eigenvalues --    0.12339   0.16968   0.19898   0.26261   0.28249
 Alpha virt. eigenvalues --    0.30485   0.31352   0.31876   0.33116   0.39857
 Alpha virt. eigenvalues --    0.43690

 Mulliken charges:
               1
     1  C   -0.166231
     2  C   -1.847825
     3  O    3.207742
     4  C   -1.893135
     5  C   -0.139146
     6  H    0.154570
     7  H    0.267334
     8  H    0.257531
     9  H    0.159158
 Sum of Mulliken charges =   0.00000

 Dipole moment (field-independent basis, Debye):
    X=             -1.4843    Y=            -10.9723    Z=             -0.0049  Tot=             11.0723
 N-N= 1.045486646072D+02 E-N=-1.699435922631D+02  KE=-1.538493602698D+01
 Orbital energies and kinetic energies (alpha):
                                 1                 2
   1         O                -1.941434         -1.363397
   2         O                -1.207323         -1.062696
   3         O                -0.945464         -0.894872
   4         O                -0.811200         -0.586344
   5         O                -0.786799         -0.672815
   6         O                -0.698358         -0.591724
   7         O                -0.667133         -0.534888

 Normal termination of Gaussian 09 at Tue Dec 15 17:09:14 2015.
