 Gaussian 09, Revision D.01,
 Gaussian 09:  ES64L-G09RevD.01 24-Apr-2013

 ------------------------------------------------------------
 #P AM1(Input,print) CIS(Singlets,NStates=15) pop(full) force
 ------------------------------------------------------------

 -----------------
 AM1-Reparam Input
 -----------------
 Symbolic Z-matrix:
 Charge =  0 Multiplicity = 1

                         Standard orientation:
 ---------------------------------------------------------------------
 Center     Atomic      Atomic             Coordinates (Angstroms)
 Number     Number       Type             X           Y           Z
 ---------------------------------------------------------------------
      1          6           0       -0.649209    0.952741   -0.010527
      2          6           0       -1.125689   -0.286260   -0.018166
      3          8           0       -0.016815   -1.185070    0.020537
      4          6           0        1.071734   -0.378041   -0.018015
      5          6           0        0.715134    0.952553    0.003449
      6          1           0        1.405952    1.806359    0.024339
      7          1           0        1.996069   -0.867944    0.000200
      8          1           0       -2.049384   -0.749091    0.004314
      9          1           0       -1.289940    1.845278    0.066410
 ---------------------------------------------------------------------

 SCF Done:  E(RAM1) =   2.61563183257     A.U. after   13 cycles

 Excitation energies and oscillator strengths:

 Excited State   1:      Singlet-A      5.3217 eV  232.98 nm  f=0.3380  <S**2>=0.000
      13 -> 14         0.69680
 This state for optimization and/or second-order correction.
 Total Energy, E(CIS) =   2.81120216278
 Copying the excited state density for this state as the 1-particle RhoCI density.

 Excited State   2:      Singlet-A      6.3390 eV  195.59 nm  f=0.0015  <S**2>=0.000
      10 -> 15        -0.10592
      13 -> 15         0.66965
      13 -> 19        -0.11383

 Excited State   3:      Singlet-A      6.6875 eV  185.40 nm  f=0.0023  <S**2>=0.000
      12 -> 14         0.61683
      13 -> 16         0.31073

 Excited State   4:      Singlet-A      6.8090 eV  182.09 nm  f=0.0014  <S**2>=0.000
      11 -> 14         0.12779
      12 -> 14        -0.30994
      13 -> 16         0.59495

 Excited State   5:      Singlet-A      7.3929 eV  167.71 nm  f=0.0036  <S**2>=0.000
      10 -> 14         0.16396
      11 -> 14         0.66556
      12 -> 14         0.11845

 Excited State   6:      Singlet-A      8.0549 eV  153.92 nm  f=0.0000  <S**2>=0.000
      13 -> 17         0.67269
      13 -> 21         0.12015

 Excited State   7:      Singlet-A      8.5985 eV  144.19 nm  f=0.0937  <S**2>=0.000
      10 -> 14         0.66836
      11 -> 14        -0.15905

 Excited State   8:      Singlet-A      9.2345 eV  134.26 nm  f=0.0221  <S**2>=0.000
       9 -> 15        -0.10496
      10 -> 15        -0.26320
      11 -> 16        -0.21613
      11 -> 18         0.13076
      12 -> 15        -0.30220
      12 -> 17         0.21185
      13 -> 18         0.40066

 Excited State   9:      Singlet-A      9.2579 eV  133.92 nm  f=0.0266  <S**2>=0.000
       9 -> 15         0.10257
      10 -> 15        -0.21110
      10 -> 16         0.13428
      11 -> 15         0.10440
      11 -> 16         0.15833
      11 -> 18        -0.11850
      12 -> 15         0.31863
      12 -> 17        -0.21035
      13 -> 18         0.42084

 Excited State  10:      Singlet-A      9.6278 eV  128.78 nm  f=0.1644  <S**2>=0.000
      10 -> 15        -0.10170
      10 -> 16        -0.17770
      11 -> 15         0.14131
      11 -> 16         0.14384
      12 -> 15        -0.16632
      12 -> 16         0.44017
      12 -> 17        -0.10306
      12 -> 19         0.11995
      13 -> 19         0.36360

 Excited State  11:      Singlet-A      9.7174 eV  127.59 nm  f=0.1428  <S**2>=0.000
      10 -> 15        -0.13493
      10 -> 16        -0.25006
      11 -> 15        -0.10132
      12 -> 15         0.17551
      12 -> 16        -0.35244
      12 -> 19        -0.10994
      13 -> 19         0.43503

 Excited State  12:      Singlet-A      9.8178 eV  126.28 nm  f=0.0584  <S**2>=0.000
      10 -> 15         0.11169
      11 -> 15         0.59630
      11 -> 18        -0.13057
      11 -> 19        -0.12973
      12 -> 15        -0.11903
      12 -> 16        -0.23392

 Excited State  13:      Singlet-A     10.1189 eV  122.53 nm  f=0.0017  <S**2>=0.000
      10 -> 15         0.53045
      13 -> 15         0.17204
      13 -> 18         0.30115
      13 -> 19         0.23545

 Excited State  14:      Singlet-A     10.2210 eV  121.30 nm  f=0.0252  <S**2>=0.000
       8 -> 16        -0.10419
       9 -> 15         0.24382
      11 -> 15         0.12495
      11 -> 16        -0.13555
      12 -> 15         0.27834
      12 -> 16         0.26723
      12 -> 17         0.40181
      12 -> 20        -0.11705

 Excited State  15:      Singlet-A     10.6177 eV  116.77 nm  f=0.0059  <S**2>=0.000
       9 -> 14        -0.11628
      10 -> 16         0.53078
      11 -> 16        -0.18073
      13 -> 16        -0.15123
      13 -> 18        -0.18387
      13 -> 19         0.27086

 The electronic state is 1-A.
 Alpha  occ. eigenvalues --   -1.84016  -1.14006  -0.87623  -0.78599  -0.76032
 Alpha  occ. eigenvalues --   -0.66741  -0.62813  -0.55721  -0.54299  -0.44079
 Alpha  occ. eigenvalues --   -0.43433  -0.41526  -0.29945
 Alpha virt. eigenvalues --    0.10404   0.17126   0.19126   0.25819   0.28223
 Alpha virt. eigenvalues --    0.30692   0.36492   0.41706   0.46548   0.54578
 Alpha virt. eigenvalues --    0.57864

 Mulliken charges:
               1
     1  C   -0.151985
     2  C   -1.962185
     3  O    3.439366
     4  C   -2.011403
     5  C   -0.216989
     6  H    0.192091
     7  H    0.266832
     8  H    0.247760
     9  H    0.196514
 Sum of Mulliken charges =   0.00000

 Dipole moment (field-independent basis, Debye):
    X=              0.0156    Y=            -11.8716    Z=              0.7093  Tot=             11.8928
 N-N= 1.040664729901D+02 E-N=-1.697353094847D+02  KE=-1.438967046949D+01
 Orbital energies and kinetic energies (alpha):
                                 1                 2
   1         O                -1.840156         -1.226882
   2         O                -1.140063         -0.985396
   3         O                -0.876229         -0.802945
   4         O                -0.785993         -0.531666
   5         O                -0.760325         -0.626658
   6         O                -0.667410         -0.554536
   7         O                -0.628131         -0.500301

 Normal termination of Gaussian 09 at Tue Dec 15 17:07:43 2015.
