 Gaussian 09, Revision D.01,
 Gaussian 09:  ES64L-G09RevD.01 24-Apr-2013

 ------------------------------------------------------------
 #P AM1(Input,print) CIS(Singlets,NStates=15) pop(full) force
 ------------------------------------------------------------

 -----------------
 AM1-Reparam Input
 -----------------
 Symbolic Z-matrix:
 Charge =  0 Multiplicity = 1

                         Standard orientation:
 ---------------------------------------------------------------------
 Center     Atomic      Atomic             Coordinates (Angstroms)
 Number     Number       Type             X           Y           Z
 ---------------------------------------------------------------------
      1          6           0       -0.942754    0.721818   -0.008713
      2          6           0       -1.013396   -0.617276   -0.014587
      3          8           0        0.338747   -1.090956    0.005008
      4          6           0        1.173161   -0.066625    0.004058
      5          6           0        0.431732    1.096270   -0.017886
      6          1           0        0.818183    2.137040    0.053337
      7          1           0        2.240727   -0.294566    0.014654
      8          1           0       -1.820827   -1.306558    0.045322
      9          1           0       -1.840517    1.386614    0.069402
 ---------------------------------------------------------------------

 SCF Done:  E(RAM1) =   1.77546893454     A.U. after   14 cycles

 Excitation energies and oscillator strengths:

 Excited State   1:      Singlet-A      5.4410 eV  227.87 nm  f=0.3433  <S**2>=0.000
      13 -> 14         0.69122
 This state for optimization and/or second-order correction.
 Total Energy, E(CIS) =   1.97542228494
 Copying the excited state density for this state as the 1-particle RhoCI density.

 Excited State   2:      Singlet-A      6.5953 eV  187.99 nm  f=0.0057  <S**2>=0.000
      13 -> 15         0.66943
      13 -> 17        -0.15935

 Excited State   3:      Singlet-A      7.1560 eV  173.26 nm  f=0.0034  <S**2>=0.000
      13 -> 16         0.66284
      13 -> 18        -0.13659
      13 -> 19         0.13057

 Excited State   4:      Singlet-A      7.5140 eV  165.00 nm  f=0.0013  <S**2>=0.000
      12 -> 14         0.69721

 Excited State   5:      Singlet-A      8.0634 eV  153.76 nm  f=0.0062  <S**2>=0.000
      10 -> 14        -0.13443
      11 -> 14         0.67572

 Excited State   6:      Singlet-A      8.1657 eV  151.84 nm  f=0.0003  <S**2>=0.000
      11 -> 14        -0.11562
      13 -> 16         0.12891
      13 -> 17        -0.18804
      13 -> 18         0.60207
      13 -> 21        -0.23283

 Excited State   7:      Singlet-A      8.9148 eV  139.08 nm  f=0.0066  <S**2>=0.000
      13 -> 15         0.13278
      13 -> 17         0.62672
      13 -> 18         0.22004

 Excited State   8:      Singlet-A      9.1207 eV  135.94 nm  f=0.0915  <S**2>=0.000
      10 -> 14         0.64909
      11 -> 14         0.11968
      12 -> 17         0.10976

 Excited State   9:      Singlet-A      9.6154 eV  128.94 nm  f=0.0024  <S**2>=0.000
      10 -> 16         0.10508
      13 -> 17        -0.10882
      13 -> 19         0.64860

 Excited State  10:      Singlet-A      9.8045 eV  126.46 nm  f=0.0646  <S**2>=0.000
       9 -> 15        -0.10898
      10 -> 14         0.16105
      11 -> 15         0.19458
      11 -> 16         0.26178
      11 -> 17        -0.20106
      11 -> 18        -0.14914
      12 -> 15         0.23307
      12 -> 16        -0.10491
      12 -> 17        -0.16620
      12 -> 18         0.33866
      13 -> 14         0.10540

 Excited State  11:      Singlet-A     10.1049 eV  122.70 nm  f=0.1017  <S**2>=0.000
      11 -> 15        -0.43323
      11 -> 17         0.11001
      12 -> 15         0.49922
      12 -> 17        -0.10271

 Excited State  12:      Singlet-A     10.2120 eV  121.41 nm  f=0.0267  <S**2>=0.000
      13 -> 18         0.20107
      13 -> 19        -0.16656
      13 -> 20        -0.41192
      13 -> 21         0.48947

 Excited State  13:      Singlet-A     10.4600 eV  118.53 nm  f=0.0154  <S**2>=0.000
       7 -> 15        -0.10861
      10 -> 15         0.56169
      11 -> 15         0.13716
      12 -> 15         0.11153
      12 -> 16         0.20908
      13 -> 15        -0.10950
      13 -> 20         0.17589

 Excited State  14:      Singlet-A     10.4988 eV  118.09 nm  f=0.1647  <S**2>=0.000
      10 -> 15        -0.15054
      11 -> 16         0.24583
      12 -> 16         0.56481
      12 -> 19         0.10482
      13 -> 20        -0.15924
      13 -> 21        -0.16027

 Excited State  15:      Singlet-A     10.6161 eV  116.79 nm  f=0.0853  <S**2>=0.000
      10 -> 15        -0.21887
      10 -> 16        -0.16213
      12 -> 16         0.14576
      13 -> 20         0.47043
      13 -> 21         0.38314

 The electronic state is 1-A.
 Alpha  occ. eigenvalues --   -1.99200  -1.26285  -1.00376  -0.89241  -0.84699
 Alpha  occ. eigenvalues --   -0.76242  -0.74087  -0.64888  -0.61832  -0.52743
 Alpha  occ. eigenvalues --   -0.51444  -0.49837  -0.37008
 Alpha virt. eigenvalues --    0.04075   0.10293   0.13374   0.18968   0.19817
 Alpha virt. eigenvalues --    0.22429   0.25108   0.26289   0.28529   0.36183
 Alpha virt. eigenvalues --    0.42066

 Mulliken charges:
               1
     1  C   -0.065760
     2  C   -1.889492
     3  O    3.187037
     4  C   -1.911188
     5  C   -0.218069
     6  H    0.169641
     7  H    0.293401
     8  H    0.277729
     9  H    0.156701
 Sum of Mulliken charges =   0.00000

 Dipole moment (field-independent basis, Debye):
    X=              3.1573    Y=             -9.7763    Z=              0.3745  Tot=             10.2803
 N-N= 1.052009257239D+02 E-N=-1.698839906082D+02  KE=-1.560927495961D+01
 Orbital energies and kinetic energies (alpha):
                                 1                 2
   1         O                -1.992001         -1.367250
   2         O                -1.262851         -1.034766
   3         O                -1.003762         -0.875367
   4         O                -0.892410         -0.587701
   5         O                -0.846991         -0.701590
   6         O                -0.762420         -0.598018
   7         O                -0.740867         -0.539810

 Normal termination of Gaussian 09 at Tue Dec 15 17:08:58 2015.
