 Gaussian 09, Revision D.01,
 Gaussian 09:  ES64L-G09RevD.01 24-Apr-2013

 ------------------------------------------------------------
 #P AM1(Input,print) CIS(Singlets,NStates=15) pop(full) force
 ------------------------------------------------------------

 -----------------
 AM1-Reparam Input
 -----------------
 Symbolic Z-matrix:
 Charge =  0 Multiplicity = 1

                         Standard orientation:
 ---------------------------------------------------------------------
 Center     Atomic      Atomic             Coordinates (Angstroms)
 Number     Number       Type             X           Y           Z
 ---------------------------------------------------------------------
      1          6           0        0.285540    1.128025   -0.022795
      2          6           0        1.182488    0.050844   -0.009044
      3          8           0        0.402109   -1.082291    0.000520
      4          6           0       -0.907967   -0.694371    0.000924
      5          6           0       -0.980951    0.676219    0.016464
      6          1           0       -1.943050    1.161635   -0.007027
      7          1           0       -1.636924   -1.524341   -0.014432
      8          1           0        2.254782   -0.096142    0.061871
      9          1           0        0.633659    2.152871    0.042130
 ---------------------------------------------------------------------

 SCF Done:  E(RAM1) =   2.09415935239     A.U. after   13 cycles

 Excitation energies and oscillator strengths:

 Excited State   1:      Singlet-A      5.9266 eV  209.20 nm  f=0.3002  <S**2>=0.000
      13 -> 14         0.68685
 This state for optimization and/or second-order correction.
 Total Energy, E(CIS) =   2.31195725878
 Copying the excited state density for this state as the 1-particle RhoCI density.

 Excited State   2:      Singlet-A      6.8326 eV  181.46 nm  f=0.0039  <S**2>=0.000
      10 -> 15         0.11383
      13 -> 15         0.65080
      13 -> 16         0.12220
      13 -> 17        -0.16867

 Excited State   3:      Singlet-A      7.2491 eV  171.03 nm  f=0.0014  <S**2>=0.000
      10 -> 16        -0.11240
      13 -> 15        -0.12734
      13 -> 16         0.64447
      13 -> 19        -0.14481

 Excited State   4:      Singlet-A      7.6273 eV  162.55 nm  f=0.0023  <S**2>=0.000
      12 -> 14         0.69581

 Excited State   5:      Singlet-A      8.0338 eV  154.33 nm  f=0.0051  <S**2>=0.000
      10 -> 14         0.30072
      11 -> 14         0.62553

 Excited State   6:      Singlet-A      8.6017 eV  144.14 nm  f=0.0133  <S**2>=0.000
      10 -> 15         0.10504
      10 -> 16        -0.10022
      13 -> 15         0.11275
      13 -> 17         0.60256
      13 -> 18         0.21806
      13 -> 22        -0.16493

 Excited State   7:      Singlet-A      8.8201 eV  140.57 nm  f=0.0036  <S**2>=0.000
      10 -> 16         0.11321
      13 -> 17        -0.25782
      13 -> 18         0.52377
      13 -> 22        -0.35580

 Excited State   8:      Singlet-A      9.0987 eV  136.27 nm  f=0.0799  <S**2>=0.000
      10 -> 14         0.61297
      11 -> 14        -0.29475
      13 -> 21         0.11266

 Excited State   9:      Singlet-A      9.5267 eV  130.14 nm  f=0.0002  <S**2>=0.000
      10 -> 15        -0.13319
      10 -> 16        -0.10037
      13 -> 18         0.18380
      13 -> 19         0.62494
      13 -> 22         0.12371

 Excited State  10:      Singlet-A      9.7442 eV  127.24 nm  f=0.1270  <S**2>=0.000
       9 -> 15         0.11414
      10 -> 15         0.10198
      10 -> 17        -0.10116
      11 -> 15         0.19042
      11 -> 16         0.19280
      11 -> 17        -0.21597
      11 -> 18         0.12899
      12 -> 15         0.37495
      12 -> 16         0.11167
      12 -> 17        -0.24221
      12 -> 18        -0.17313
      13 -> 14         0.12802

 Excited State  11:      Singlet-A     10.0000 eV  123.98 nm  f=0.0009  <S**2>=0.000
      10 -> 15        -0.13515
      13 -> 18         0.36182
      13 -> 19        -0.24317
      13 -> 22         0.49928

 Excited State  12:      Singlet-A     10.1649 eV  121.97 nm  f=0.0947  <S**2>=0.000
       8 -> 15        -0.11488
      10 -> 15        -0.15193
      10 -> 16        -0.10191
      11 -> 15         0.53306
      12 -> 15        -0.22933
      12 -> 16         0.13628
      13 -> 22        -0.18464

 Excited State  13:      Singlet-A     10.2042 eV  121.50 nm  f=0.0217  <S**2>=0.000
      10 -> 15         0.46775
      11 -> 15         0.23143
      11 -> 16        -0.11731
      12 -> 15        -0.13898
      12 -> 16        -0.30648
      13 -> 22         0.12926

 Excited State  14:      Singlet-A     10.2282 eV  121.22 nm  f=0.1021  <S**2>=0.000
       8 -> 15        -0.10788
      10 -> 15         0.30550
      11 -> 16        -0.11278
      12 -> 16         0.53061
      12 -> 19        -0.14197
      13 -> 22         0.11715

 Excited State  15:      Singlet-A     10.2807 eV  120.60 nm  f=0.0865  <S**2>=0.000
      10 -> 16        -0.25770
      11 -> 16         0.13728
      13 -> 20         0.62072

 The electronic state is 1-A.
 Alpha  occ. eigenvalues --   -1.93407  -1.20618  -0.92299  -0.80581  -0.78853
 Alpha  occ. eigenvalues --   -0.68761  -0.66010  -0.55618  -0.54444  -0.44003
 Alpha  occ. eigenvalues --   -0.43644  -0.42472  -0.31050
 Alpha virt. eigenvalues --    0.12535   0.17446   0.18898   0.24619   0.27438
 Alpha virt. eigenvalues --    0.29509   0.30755   0.31678   0.32759   0.39816
 Alpha virt. eigenvalues --    0.44304

 Mulliken charges:
               1
     1  C   -0.135592
     2  C   -1.908351
     3  O    3.222124
     4  C   -1.906844
     5  C   -0.124303
     6  H    0.162430
     7  H    0.265599
     8  H    0.263194
     9  H    0.161743
 Sum of Mulliken charges =   0.00000

 Dipole moment (field-independent basis, Debye):
    X=              3.3148    Y=            -10.0661    Z=              0.1927  Tot=             10.5995
 N-N= 1.040671010475D+02 E-N=-1.691785009812D+02  KE=-1.533221457215D+01
 Orbital energies and kinetic energies (alpha):
                                 1                 2
   1         O                -1.934070         -1.356971
   2         O                -1.206175         -1.061062
   3         O                -0.922991         -0.876637
   4         O                -0.805806         -0.567592
   5         O                -0.788532         -0.674881
   6         O                -0.687610         -0.608598
   7         O                -0.660100         -0.533474

 Normal termination of Gaussian 09 at Tue Dec 15 17:08:39 2015.
