 Gaussian 09, Revision D.01,
 Gaussian 09:  ES64L-G09RevD.01 24-Apr-2013

 ------------------------------------------------------------
 #P AM1(Input,print) CIS(Singlets,NStates=15) pop(full) force
 ------------------------------------------------------------

 -----------------
 AM1-Reparam Input
 -----------------
 Symbolic Z-matrix:
 Charge =  0 Multiplicity = 1

                         Standard orientation:
 ---------------------------------------------------------------------
 Center     Atomic      Atomic             Coordinates (Angstroms)
 Number     Number       Type             X           Y           Z
 ---------------------------------------------------------------------
      1          6           0       -0.923480    0.800700    0.007144
      2          6           0       -1.009410   -0.554554   -0.002617
      3          8           0        0.229269   -1.121560    0.003120
      4          6           0        1.170285   -0.149929    0.002709
      5          6           0        0.523621    1.086046   -0.008737
      6          1           0        0.971874    2.054273    0.038401
      7          1           0        2.139677   -0.461506   -0.026468
      8          1           0       -1.856605   -1.193391    0.002057
      9          1           0       -1.655201    1.479529   -0.029949
 ---------------------------------------------------------------------

 SCF Done:  E(RAM1) =   2.10986496456     A.U. after   13 cycles

 Excitation energies and oscillator strengths:

 Excited State   1:      Singlet-A      5.3697 eV  230.90 nm  f=0.3721  <S**2>=0.000
      13 -> 14         0.69681
 This state for optimization and/or second-order correction.
 Total Energy, E(CIS) =   2.30719630112
 Copying the excited state density for this state as the 1-particle RhoCI density.

 Excited State   2:      Singlet-A      6.6475 eV  186.51 nm  f=0.0036  <S**2>=0.000
      13 -> 15         0.66879
      13 -> 17        -0.16030

 Excited State   3:      Singlet-A      6.8361 eV  181.37 nm  f=0.0012  <S**2>=0.000
      13 -> 16         0.65533
      13 -> 18        -0.18707
      13 -> 19        -0.11459

 Excited State   4:      Singlet-A      7.0678 eV  175.42 nm  f=0.0000  <S**2>=0.000
      12 -> 14         0.69925

 Excited State   5:      Singlet-A      8.0214 eV  154.57 nm  f=0.0007  <S**2>=0.000
      13 -> 16         0.12659
      13 -> 17        -0.23542
      13 -> 18         0.54182
      13 -> 20        -0.21558
      13 -> 21         0.25071

 Excited State   6:      Singlet-A      8.2283 eV  150.68 nm  f=0.0066  <S**2>=0.000
      10 -> 14         0.68950
      13 -> 17        -0.10063

 Excited State   7:      Singlet-A      8.6835 eV  142.78 nm  f=0.0087  <S**2>=0.000
      10 -> 14         0.13111
      11 -> 16        -0.13042
      13 -> 15         0.10500
      13 -> 16         0.10227
      13 -> 17         0.62184
      13 -> 18         0.20356

 Excited State   8:      Singlet-A      8.8933 eV  139.41 nm  f=0.1117  <S**2>=0.000
      11 -> 14         0.68167
      13 -> 22         0.11961

 Excited State   9:      Singlet-A      9.2761 eV  133.66 nm  f=0.0021  <S**2>=0.000
      11 -> 15        -0.10051
      13 -> 19         0.67734

 Excited State  10:      Singlet-A      9.6015 eV  129.13 nm  f=0.0108  <S**2>=0.000
      13 -> 18         0.32645
      13 -> 20         0.49496
      13 -> 21        -0.36283

 Excited State  11:      Singlet-A      9.8775 eV  125.52 nm  f=0.0543  <S**2>=0.000
       8 -> 15         0.11964
      10 -> 15         0.10460
      10 -> 16         0.11078
      10 -> 17        -0.18035
      12 -> 15        -0.33607
      12 -> 16         0.34624
      12 -> 17         0.11966
      12 -> 18        -0.31416
      13 -> 21         0.12045

 Excited State  12:      Singlet-A      9.9905 eV  124.10 nm  f=0.0890  <S**2>=0.000
      11 -> 16        -0.11245
      13 -> 20         0.41282
      13 -> 21         0.52235

 Excited State  13:      Singlet-A     10.2799 eV  120.61 nm  f=0.0325  <S**2>=0.000
      10 -> 15         0.11682
      10 -> 16        -0.11210
      11 -> 14         0.10136
      12 -> 15         0.48558
      12 -> 16         0.37820
      12 -> 18        -0.13663
      13 -> 22        -0.10932

 Excited State  14:      Singlet-A     10.4418 eV  118.74 nm  f=0.0211  <S**2>=0.000
      11 -> 15         0.53759
      11 -> 16         0.29890
      12 -> 15        -0.11131
      13 -> 16         0.12529

 Excited State  15:      Singlet-A     10.4839 eV  118.26 nm  f=0.1940  <S**2>=0.000
       9 -> 16         0.12429
      10 -> 15        -0.28190
      10 -> 16        -0.20674
      10 -> 17         0.19450
      11 -> 15        -0.19085
      12 -> 15        -0.15437
      12 -> 16         0.36526
      12 -> 17        -0.16435
      12 -> 18         0.17825
      12 -> 19        -0.13635

 The electronic state is 1-A.
 Alpha  occ. eigenvalues --   -1.94058  -1.17892  -0.94019  -0.81722  -0.79104
 Alpha  occ. eigenvalues --   -0.70137  -0.65773  -0.56650  -0.54364  -0.46472
 Alpha  occ. eigenvalues --   -0.45237  -0.42536  -0.29628
 Alpha virt. eigenvalues --    0.10227   0.18048   0.18901   0.26048   0.27228
 Alpha virt. eigenvalues --    0.29353   0.30243   0.31283   0.32079   0.39982
 Alpha virt. eigenvalues --    0.44869

 Mulliken charges:
               1
     1  C   -0.126455
     2  C   -1.895012
     3  O    3.219875
     4  C   -1.892121
     5  C   -0.160929
     6  H    0.162730
     7  H    0.260699
     8  H    0.274640
     9  H    0.156573
 Sum of Mulliken charges =   0.00000

 Dipole moment (field-independent basis, Debye):
    X=              1.7492    Y=            -10.2351    Z=              0.0089  Tot=             10.3835
 N-N= 1.040398619248D+02 E-N=-1.689669470854D+02  KE=-1.534120078462D+01
 Orbital energies and kinetic energies (alpha):
                                 1                 2
   1         O                -1.940584         -1.363083
   2         O                -1.178920         -1.037972
   3         O                -0.940186         -0.878872
   4         O                -0.817221         -0.582568
   5         O                -0.791036         -0.697307
   6         O                -0.701370         -0.592710
   7         O                -0.657730         -0.518558

 Normal termination of Gaussian 09 at Tue Dec 15 17:09:17 2015.
