 Gaussian 09, Revision D.01,
 Gaussian 09:  ES64L-G09RevD.01 24-Apr-2013

 ------------------------------------------------------------
 #P AM1(Input,print) CIS(Singlets,NStates=15) pop(full) force
 ------------------------------------------------------------

 -----------------
 AM1-Reparam Input
 -----------------
 Symbolic Z-matrix:
 Charge =  0 Multiplicity = 1

                         Standard orientation:
 ---------------------------------------------------------------------
 Center     Atomic      Atomic             Coordinates (Angstroms)
 Number     Number       Type             X           Y           Z
 ---------------------------------------------------------------------
      1          6           0        0.426935    1.086993    0.006452
      2          6           0        1.158484   -0.062068    0.034016
      3          8           0        0.323832   -1.092775   -0.013920
      4          6           0       -0.987586   -0.654582   -0.000887
      5          6           0       -0.950789    0.774502   -0.023468
      6          1           0       -1.781889    1.417671    0.030627
      7          1           0       -1.744242   -1.345937    0.070045
      8          1           0        2.197984   -0.256572   -0.078761
      9          1           0        0.855220    2.057965   -0.007227
 ---------------------------------------------------------------------

 SCF Done:  E(RAM1) =   1.80387031964     A.U. after   13 cycles

 Excitation energies and oscillator strengths:

 Excited State   1:      Singlet-A      5.7890 eV  214.17 nm  f=0.3199  <S**2>=0.000
      11 -> 17         0.10094
      13 -> 14         0.68705
 This state for optimization and/or second-order correction.
 Total Energy, E(CIS) =   2.01661083828
 Copying the excited state density for this state as the 1-particle RhoCI density.

 Excited State   2:      Singlet-A      6.7950 eV  182.46 nm  f=0.0078  <S**2>=0.000
      10 -> 15         0.10131
      12 -> 14        -0.32153
      13 -> 15         0.56640
      13 -> 16         0.15542
      13 -> 17         0.16311

 Excited State   3:      Singlet-A      6.8321 eV  181.47 nm  f=0.0008  <S**2>=0.000
      12 -> 14         0.61987
      13 -> 15         0.30073

 Excited State   4:      Singlet-A      7.1960 eV  172.30 nm  f=0.0035  <S**2>=0.000
      10 -> 16        -0.10574
      13 -> 15        -0.15790
      13 -> 16         0.63414
      13 -> 18         0.12927
      13 -> 19         0.14812

 Excited State   5:      Singlet-A      7.7204 eV  160.59 nm  f=0.0049  <S**2>=0.000
      11 -> 14         0.69681

 Excited State   6:      Singlet-A      8.4745 eV  146.30 nm  f=0.0002  <S**2>=0.000
      10 -> 16         0.11436
      13 -> 16        -0.10616
      13 -> 17         0.17098
      13 -> 18         0.56396
      13 -> 21        -0.33015

 Excited State   7:      Singlet-A      8.6045 eV  144.09 nm  f=0.0118  <S**2>=0.000
      10 -> 15        -0.12142
      10 -> 16         0.11591
      13 -> 15        -0.15261
      13 -> 17         0.62607
      13 -> 18        -0.17081

 Excited State   8:      Singlet-A      8.8902 eV  139.46 nm  f=0.0911  <S**2>=0.000
      10 -> 14         0.67475
      12 -> 15         0.12772

 Excited State   9:      Singlet-A      9.1727 eV  135.17 nm  f=0.0287  <S**2>=0.000
       9 -> 15         0.12318
       9 -> 19        -0.10213
      11 -> 15         0.29728
      11 -> 16         0.16437
      11 -> 17         0.24491
      12 -> 16         0.31826
      12 -> 17         0.13247
      12 -> 18         0.30049
      12 -> 21        -0.12470
      13 -> 14        -0.10981

 Excited State  10:      Singlet-A      9.3402 eV  132.74 nm  f=0.0031  <S**2>=0.000
      10 -> 16         0.15479
      13 -> 16        -0.10658
      13 -> 19         0.64839

 Excited State  11:      Singlet-A      9.3925 eV  132.00 nm  f=0.0870  <S**2>=0.000
      10 -> 14        -0.11689
      11 -> 15         0.15100
      12 -> 15         0.61337
      12 -> 17         0.16293
      12 -> 18        -0.10147

 Excited State  12:      Singlet-A      9.8389 eV  126.01 nm  f=0.0005  <S**2>=0.000
      10 -> 15        -0.19353
      13 -> 18         0.35053
      13 -> 21         0.55062

 Excited State  13:      Singlet-A     10.0481 eV  123.39 nm  f=0.0506  <S**2>=0.000
      10 -> 15        -0.44137
      12 -> 16         0.12018
      13 -> 20         0.45180
      13 -> 21        -0.18168

 Excited State  14:      Singlet-A     10.0656 eV  123.18 nm  f=0.1305  <S**2>=0.000
      11 -> 15        -0.15524
      11 -> 16        -0.37570
      11 -> 17        -0.10940
      12 -> 16         0.46999
      12 -> 19         0.13786
      13 -> 20        -0.17851

 Excited State  15:      Singlet-A     10.1144 eV  122.58 nm  f=0.0431  <S**2>=0.000
       9 -> 16         0.10047
      10 -> 15         0.23469
      10 -> 16         0.15701
      11 -> 16        -0.27669
      11 -> 19        -0.17991
      12 -> 17         0.15566
      13 -> 20         0.41630
      13 -> 21         0.14765

 The electronic state is 1-A.
 Alpha  occ. eigenvalues --   -1.94469  -1.21144  -0.98477  -0.81658  -0.80897
 Alpha  occ. eigenvalues --   -0.69038  -0.67416  -0.53743  -0.50149  -0.42611
 Alpha  occ. eigenvalues --   -0.42123  -0.39304  -0.29556
 Alpha virt. eigenvalues --    0.12827   0.18523   0.21063   0.25889   0.27886
 Alpha virt. eigenvalues --    0.29695   0.31396   0.33529   0.36715   0.44978
 Alpha virt. eigenvalues --    0.50605

 Mulliken charges:
               1
     1  C   -0.105211
     2  C   -1.952911
     3  O    3.150122
     4  C   -1.965367
     5  C   -0.074520
     6  H    0.160534
     7  H    0.307664
     8  H    0.318714
     9  H    0.160975
 Sum of Mulliken charges =   0.00000

 Dipole moment (field-independent basis, Debye):
    X=              3.2152    Y=             -9.0337    Z=             -0.4610  Tot=              9.5999
 N-N= 1.041256401225D+02 E-N=-1.695578028127D+02  KE=-1.567402450785D+01
 Orbital energies and kinetic energies (alpha):
                                 1                 2
   1         O                -1.944691         -1.418771
   2         O                -1.211444         -1.074148
   3         O                -0.984765         -0.902112
   4         O                -0.816577         -0.624990
   5         O                -0.808967         -0.703452
   6         O                -0.690380         -0.567601
   7         O                -0.674161         -0.589578

 Normal termination of Gaussian 09 at Tue Dec 15 17:09:54 2015.
