 Gaussian 09, Revision D.01,
 Gaussian 09:  ES64L-G09RevD.01 24-Apr-2013

 ------------------------------------------------------------
 #P AM1(Input,print) CIS(Singlets,NStates=15) pop(full) force
 ------------------------------------------------------------

 -----------------
 AM1-Reparam Input
 -----------------
 Symbolic Z-matrix:
 Charge =  0 Multiplicity = 1

                         Standard orientation:
 ---------------------------------------------------------------------
 Center     Atomic      Atomic             Coordinates (Angstroms)
 Number     Number       Type             X           Y           Z
 ---------------------------------------------------------------------
      1          6           0        0.225668    1.175268    0.009621
      2          6           0        1.134246    0.127333   -0.014697
      3          8           0        0.512387   -1.068016    0.009717
      4          6           0       -0.839463   -0.714196   -0.009019
      5          6           0       -1.062685    0.545460   -0.011297
      6          1           0       -1.968830    1.034051    0.041291
      7          1           0       -1.511663   -1.649770    0.015622
      8          1           0        2.190800    0.169636    0.015316
      9          1           0        0.443995    2.187015    0.002382
 ---------------------------------------------------------------------

 SCF Done:  E(RAM1) =   1.75780508443     A.U. after   14 cycles

 Excitation energies and oscillator strengths:

 Excited State   1:      Singlet-A      5.3065 eV  233.65 nm  f=0.3365  <S**2>=0.000
      13 -> 14         0.69509
 This state for optimization and/or second-order correction.
 Total Energy, E(CIS) =   1.95281373858
 Copying the excited state density for this state as the 1-particle RhoCI density.

 Excited State   2:      Singlet-A      5.7800 eV  214.51 nm  f=0.0004  <S**2>=0.000
      11 -> 15         0.12323
      13 -> 15         0.67921

 Excited State   3:      Singlet-A      6.2616 eV  198.01 nm  f=0.0035  <S**2>=0.000
      11 -> 16        -0.10558
      13 -> 16         0.64751
      13 -> 17         0.21136
      13 -> 19         0.10576

 Excited State   4:      Singlet-A      6.9948 eV  177.25 nm  f=0.0003  <S**2>=0.000
      12 -> 14         0.68080
      13 -> 19        -0.10476

 Excited State   5:      Singlet-A      7.4433 eV  166.57 nm  f=0.0053  <S**2>=0.000
      12 -> 14        -0.16274
      13 -> 17         0.19630
      13 -> 18         0.24716
      13 -> 19        -0.33470
      13 -> 20         0.37579
      13 -> 21         0.31994

 Excited State   6:      Singlet-A      7.6928 eV  161.17 nm  f=0.0219  <S**2>=0.000
      11 -> 16         0.10834
      13 -> 16        -0.19690
      13 -> 17         0.61660
      13 -> 19         0.10963
      13 -> 20        -0.16586

 Excited State   7:      Singlet-A      8.2336 eV  150.58 nm  f=0.0008  <S**2>=0.000
      10 -> 14         0.49791
      13 -> 17        -0.13532
      13 -> 18         0.38978
      13 -> 20        -0.18355
      13 -> 21        -0.11437

 Excited State   8:      Singlet-A      8.3156 eV  149.10 nm  f=0.0009  <S**2>=0.000
      10 -> 14         0.45801
      13 -> 18        -0.42700
      13 -> 20         0.13196
      13 -> 21         0.24738

 Excited State   9:      Singlet-A      8.6078 eV  144.04 nm  f=0.0687  <S**2>=0.000
       8 -> 15         0.14711
      10 -> 14         0.12870
      11 -> 14         0.51531
      12 -> 15        -0.36141

 Excited State  10:      Singlet-A      8.6501 eV  143.33 nm  f=0.0028  <S**2>=0.000
      13 -> 18         0.27196
      13 -> 19         0.55563
      13 -> 20         0.13331
      13 -> 21         0.27487

 Excited State  11:      Singlet-A      9.0380 eV  137.18 nm  f=0.0886  <S**2>=0.000
      13 -> 19         0.11545
      13 -> 20         0.48661
      13 -> 21        -0.46234

 Excited State  12:      Singlet-A      9.0926 eV  136.36 nm  f=0.2453  <S**2>=0.000
       8 -> 15        -0.15023
      11 -> 14         0.40377
      12 -> 15         0.43853
      12 -> 16        -0.19663

 Excited State  13:      Singlet-A      9.5029 eV  130.47 nm  f=0.0013  <S**2>=0.000
       7 -> 15        -0.11639
      11 -> 15         0.62240
      11 -> 16         0.20437
      11 -> 17         0.10839
      13 -> 15        -0.12805

 Excited State  14:      Singlet-A      9.6260 eV  128.80 nm  f=0.0317  <S**2>=0.000
       9 -> 16         0.14311
      10 -> 15         0.16123
      10 -> 16         0.11434
      10 -> 17         0.21328
      12 -> 15         0.29004
      12 -> 16         0.35832
      12 -> 18        -0.19756
      12 -> 20        -0.13525
      12 -> 21        -0.19423

 Excited State  15:      Singlet-A      9.7955 eV  126.57 nm  f=0.0026  <S**2>=0.000
       7 -> 16         0.12332
      11 -> 15        -0.22473
      11 -> 16         0.61500
      13 -> 16         0.12871

 The electronic state is 1-A.
 Alpha  occ. eigenvalues --   -1.90728  -1.23473  -0.98691  -0.81891  -0.80624
 Alpha  occ. eigenvalues --   -0.68787  -0.63058  -0.52684  -0.51258  -0.43432
 Alpha  occ. eigenvalues --   -0.41703  -0.39384  -0.26415
 Alpha virt. eigenvalues --    0.13782   0.16801   0.19435   0.26447   0.28829
 Alpha virt. eigenvalues --    0.30039   0.30315   0.31176   0.36009   0.45633
 Alpha virt. eigenvalues --    0.49133

 Mulliken charges:
               1
     1  C   -0.191325
     2  C   -1.950820
     3  O    3.165321
     4  C   -1.871412
     5  C   -0.074398
     6  H    0.165497
     7  H    0.273912
     8  H    0.306995
     9  H    0.176231
 Sum of Mulliken charges =   0.00000

 Dipole moment (field-independent basis, Debye):
    X=              4.3778    Y=            -10.2293    Z=              0.4112  Tot=             11.1344
 N-N= 1.041570712743D+02 E-N=-1.697902403716D+02  KE=-1.576576921305D+01
 Orbital energies and kinetic energies (alpha):
                                 1                 2
   1         O                -1.907278         -1.370879
   2         O                -1.234733         -1.124386
   3         O                -0.986909         -0.926473
   4         O                -0.818910         -0.622672
   5         O                -0.806236         -0.697716
   6         O                -0.687868         -0.589054
   7         O                -0.630577         -0.517271

 Normal termination of Gaussian 09 at Tue Dec 15 17:06:53 2015.
