 Gaussian 09, Revision D.01,
 Gaussian 09:  ES64L-G09RevD.01 24-Apr-2013

 ------------------------------------------------------------
 #P AM1(Input,print) CIS(Singlets,NStates=15) pop(full) force
 ------------------------------------------------------------

 -----------------
 AM1-Reparam Input
 -----------------
 Symbolic Z-matrix:
 Charge =  0 Multiplicity = 1

                         Standard orientation:
 ---------------------------------------------------------------------
 Center     Atomic      Atomic             Coordinates (Angstroms)
 Number     Number       Type             X           Y           Z
 ---------------------------------------------------------------------
      1          6           0       -0.937434    0.729833   -0.021719
      2          6           0       -0.962978   -0.593631    0.027571
      3          8           0        0.283689   -1.138888   -0.009341
      4          6           0        1.131678   -0.042859    0.014813
      5          6           0        0.467148    1.095240   -0.003600
      6          1           0        0.883264    2.063284    0.038627
      7          1           0        2.221465   -0.377353   -0.046116
      8          1           0       -1.789787   -1.219029   -0.025289
      9          1           0       -1.774941    1.512701    0.005117
 ---------------------------------------------------------------------

 SCF Done:  E(RAM1) =   2.08095083458     A.U. after   13 cycles

 Excitation energies and oscillator strengths:

 Excited State   1:      Singlet-A      5.2128 eV  237.85 nm  f=0.3507  <S**2>=0.000
      13 -> 14         0.69639
 This state for optimization and/or second-order correction.
 Total Energy, E(CIS) =   2.27251783517
 Copying the excited state density for this state as the 1-particle RhoCI density.

 Excited State   2:      Singlet-A      6.4462 eV  192.34 nm  f=0.0004  <S**2>=0.000
      13 -> 15         0.62198
      13 -> 16        -0.15608
      13 -> 17        -0.18533
      13 -> 18        -0.15915

 Excited State   3:      Singlet-A      6.6098 eV  187.58 nm  f=0.0006  <S**2>=0.000
      12 -> 14         0.69590

 Excited State   4:      Singlet-A      6.6511 eV  186.41 nm  f=0.0078  <S**2>=0.000
      13 -> 15         0.17849
      13 -> 16         0.63262
      13 -> 17        -0.10359
      13 -> 18         0.20559

 Excited State   5:      Singlet-A      7.6888 eV  161.25 nm  f=0.0033  <S**2>=0.000
      11 -> 14         0.15423
      13 -> 15         0.17289
      13 -> 16        -0.12417
      13 -> 17         0.33169
      13 -> 18         0.38753
      13 -> 19         0.13832
      13 -> 20         0.33976
      13 -> 21         0.14198

 Excited State   6:      Singlet-A      7.7666 eV  159.64 nm  f=0.0063  <S**2>=0.000
      11 -> 14         0.67312
      13 -> 18        -0.10964
      13 -> 20        -0.13148

 Excited State   7:      Singlet-A      8.3326 eV  148.79 nm  f=0.0166  <S**2>=0.000
      13 -> 15         0.12780
      13 -> 16         0.11409
      13 -> 17         0.57031
      13 -> 18        -0.23214
      13 -> 19        -0.16474
      13 -> 20        -0.20429

 Excited State   8:      Singlet-A      8.7944 eV  140.98 nm  f=0.0016  <S**2>=0.000
      13 -> 16         0.14206
      13 -> 18        -0.30914
      13 -> 19         0.57004
      13 -> 20         0.16165

 Excited State   9:      Singlet-A      8.8220 eV  140.54 nm  f=0.0931  <S**2>=0.000
      10 -> 14         0.66343
      12 -> 15         0.10818

 Excited State  10:      Singlet-A      9.1992 eV  134.78 nm  f=0.0302  <S**2>=0.000
      13 -> 18        -0.31729
      13 -> 19        -0.31970
      13 -> 20         0.47194
      13 -> 21         0.16685

 Excited State  11:      Singlet-A      9.3094 eV  133.18 nm  f=0.0738  <S**2>=0.000
       8 -> 15         0.10828
      11 -> 16         0.10548
      11 -> 17        -0.16782
      12 -> 15         0.36247
      12 -> 16        -0.28579
      12 -> 17        -0.18194
      12 -> 18        -0.30445
      12 -> 20        -0.16315
      13 -> 20         0.13072

 Excited State  12:      Singlet-A      9.7568 eV  127.07 nm  f=0.0520  <S**2>=0.000
      13 -> 20        -0.21609
      13 -> 21         0.65955

 Excited State  13:      Singlet-A      9.8827 eV  125.46 nm  f=0.0803  <S**2>=0.000
      10 -> 14        -0.11775
      11 -> 15        -0.24735
      11 -> 17         0.14980
      12 -> 15         0.46538
      12 -> 16         0.31819
      12 -> 18         0.16819
      12 -> 19         0.12360

 Excited State  14:      Singlet-A     10.0405 eV  123.48 nm  f=0.1798  <S**2>=0.000
      11 -> 15         0.13183
      11 -> 16         0.28761
      11 -> 17        -0.14880
      11 -> 18         0.13706
      12 -> 15        -0.12053
      12 -> 16         0.44841
      12 -> 17        -0.19359
      12 -> 19        -0.18903
      12 -> 20        -0.18412

 Excited State  15:      Singlet-A     10.3273 eV  120.06 nm  f=0.0166  <S**2>=0.000
       7 -> 15         0.11932
      10 -> 15         0.59647
      10 -> 16         0.19534
      10 -> 17        -0.11170
      11 -> 15        -0.11411
      13 -> 15         0.12938

 The electronic state is 1-A.
 Alpha  occ. eigenvalues --   -1.93706  -1.20123  -0.95603  -0.81607  -0.78488
 Alpha  occ. eigenvalues --   -0.68532  -0.64771  -0.53816  -0.52965  -0.43857
 Alpha  occ. eigenvalues --   -0.43088  -0.39625  -0.27684
 Alpha virt. eigenvalues --    0.11870   0.18513   0.20485   0.26756   0.28004
 Alpha virt. eigenvalues --    0.29588   0.30828   0.32146   0.35012   0.44390
 Alpha virt. eigenvalues --    0.47991

 Mulliken charges:
               1
     1  C   -0.239032
     2  C   -1.993805
     3  O    3.172473
     4  C   -1.962850
     5  C   -0.206501
     6  H    0.248391
     7  H    0.353337
     8  H    0.371843
     9  H    0.256142
 Sum of Mulliken charges =   0.00000

 Dipole moment (field-independent basis, Debye):
    X=              2.6238    Y=            -10.4673    Z=             -0.5702  Tot=             10.8062
 N-N= 1.043956062604D+02 E-N=-1.698693177241D+02  KE=-1.548271061892D+01
 Orbital energies and kinetic energies (alpha):
                                 1                 2
   1         O                -1.937057         -1.381033
   2         O                -1.201227         -1.073440
   3         O                -0.956026         -0.882850
   4         O                -0.816074         -0.590558
   5         O                -0.784880         -0.676256
   6         O                -0.685319         -0.560184
   7         O                -0.647706         -0.526294

 Normal termination of Gaussian 09 at Tue Dec 15 17:07:29 2015.
