 Gaussian 09, Revision D.01,
 Gaussian 09:  ES64L-G09RevD.01 24-Apr-2013

 ------------------------------------------------------------
 #P AM1(Input,print) CIS(Singlets,NStates=15) pop(full) force
 ------------------------------------------------------------

 -----------------
 AM1-Reparam Input
 -----------------
 Symbolic Z-matrix:
 Charge =  0 Multiplicity = 1

                         Standard orientation:
 ---------------------------------------------------------------------
 Center     Atomic      Atomic             Coordinates (Angstroms)
 Number     Number       Type             X           Y           Z
 ---------------------------------------------------------------------
      1          6           0       -0.257164    1.151475   -0.027852
      2          6           0        0.996723    0.546250   -0.011402
      3          8           0        0.909943   -0.750057    0.005757
      4          6           0       -0.485246   -1.033249   -0.014089
      5          6           0       -1.214787    0.121354    0.032600
      6          1           0       -2.271530    0.189291   -0.054279
      7          1           0       -0.693412   -2.123085    0.015739
      8          1           0        1.950343    0.986965    0.051470
      9          1           0       -0.502104    2.232304    0.065469
 ---------------------------------------------------------------------

 SCF Done:  E(RAM1) =   1.82741911087     A.U. after   14 cycles

 Excitation energies and oscillator strengths:

 Excited State   1:      Singlet-A      5.7857 eV  214.30 nm  f=0.3140  <S**2>=0.000
      11 -> 17         0.10619
      13 -> 14         0.68795
 This state for optimization and/or second-order correction.
 Total Energy, E(CIS) =   2.04003816983
 Copying the excited state density for this state as the 1-particle RhoCI density.

 Excited State   2:      Singlet-A      6.5396 eV  189.59 nm  f=0.0073  <S**2>=0.000
      10 -> 15        -0.12005
      13 -> 15         0.66173
      13 -> 17        -0.15866

 Excited State   3:      Singlet-A      6.7941 eV  182.49 nm  f=0.0003  <S**2>=0.000
      12 -> 14         0.69057
      13 -> 16         0.10756

 Excited State   4:      Singlet-A      6.8492 eV  181.02 nm  f=0.0017  <S**2>=0.000
      10 -> 16         0.14422
      12 -> 14        -0.11530
      13 -> 16         0.65321
      13 -> 17        -0.11257

 Excited State   5:      Singlet-A      7.7570 eV  159.83 nm  f=0.0065  <S**2>=0.000
      11 -> 14         0.69274

 Excited State   6:      Singlet-A      8.2143 eV  150.94 nm  f=0.0063  <S**2>=0.000
      10 -> 16         0.11504
      13 -> 16         0.12022
      13 -> 17         0.54971
      13 -> 18         0.34751
      13 -> 21        -0.15567

 Excited State   7:      Singlet-A      8.3966 eV  147.66 nm  f=0.0062  <S**2>=0.000
      10 -> 15         0.13338
      13 -> 15        -0.14465
      13 -> 17        -0.36518
      13 -> 18         0.51250
      13 -> 21        -0.21577

 Excited State   8:      Singlet-A      8.8481 eV  140.13 nm  f=0.0399  <S**2>=0.000
       8 -> 16         0.13070
      10 -> 14         0.48131
      11 -> 15         0.13982
      11 -> 17        -0.18607
      12 -> 15        -0.11420
      12 -> 16         0.30249
      12 -> 18        -0.18062

 Excited State   9:      Singlet-A      9.0589 eV  136.86 nm  f=0.0239  <S**2>=0.000
       8 -> 15        -0.10163
      10 -> 14         0.37117
      12 -> 15         0.47442
      12 -> 16        -0.12007
      12 -> 18         0.23015

 Excited State  10:      Singlet-A      9.1398 eV  135.65 nm  f=0.0018  <S**2>=0.000
      13 -> 19         0.66544
      13 -> 20        -0.13687

 Excited State  11:      Singlet-A      9.3095 eV  133.18 nm  f=0.0681  <S**2>=0.000
       9 -> 15         0.18088
      10 -> 14        -0.24127
      11 -> 15         0.31350
      11 -> 17        -0.16935
      12 -> 15         0.38420
      12 -> 16         0.11413
      12 -> 17        -0.25305

 Excited State  12:      Singlet-A      9.6400 eV  128.61 nm  f=0.0378  <S**2>=0.000
      10 -> 16        -0.10406
      12 -> 16         0.10696
      13 -> 18         0.27235
      13 -> 19        -0.11253
      13 -> 20        -0.40805
      13 -> 21         0.44234

 Excited State  13:      Singlet-A      9.7232 eV  127.51 nm  f=0.0901  <S**2>=0.000
       8 -> 16         0.10986
      10 -> 14        -0.14769
      10 -> 15         0.47262
      12 -> 16         0.36673
      13 -> 15         0.11055

 Excited State  14:      Singlet-A      9.7373 eV  127.33 nm  f=0.1407  <S**2>=0.000
       8 -> 16        -0.11265
      10 -> 14         0.10018
      10 -> 15         0.40661
      11 -> 15         0.11899
      11 -> 16         0.12824
      11 -> 17        -0.12919
      12 -> 16        -0.35930
      12 -> 18        -0.17682
      13 -> 20        -0.19590

 Excited State  15:      Singlet-A     10.0107 eV  123.85 nm  f=0.0881  <S**2>=0.000
       8 -> 16         0.12534
       9 -> 15        -0.15304
       9 -> 16        -0.11779
      10 -> 14        -0.12350
      11 -> 15        -0.14900
      11 -> 16         0.43388
      11 -> 17        -0.10165
      11 -> 19         0.24868
      12 -> 15         0.13541
      12 -> 17         0.20811
      13 -> 20         0.11763
      13 -> 21         0.13341

 The electronic state is 1-A.
 Alpha  occ. eigenvalues --   -1.94062  -1.21398  -0.96932  -0.80948  -0.80179
 Alpha  occ. eigenvalues --   -0.68725  -0.66422  -0.51639  -0.49111  -0.41735
 Alpha  occ. eigenvalues --   -0.40782  -0.37737  -0.28025
 Alpha virt. eigenvalues --    0.14434   0.18569   0.20317   0.26635   0.28206
 Alpha virt. eigenvalues --    0.30810   0.32481   0.35665   0.36485   0.45418
 Alpha virt. eigenvalues --    0.49633

 Mulliken charges:
               1
     1  C   -0.150475
     2  C   -1.951923
     3  O    3.122577
     4  C   -1.896561
     5  C   -0.019937
     6  H    0.145320
     7  H    0.278797
     8  H    0.319691
     9  H    0.152511
 Sum of Mulliken charges =   0.00000

 Dipole moment (field-independent basis, Debye):
    X=              8.2138    Y=             -6.4541    Z=              0.4684  Tot=             10.4566
 N-N= 1.039809462784D+02 E-N=-1.695009479482D+02  KE=-1.565222325575D+01
 Orbital energies and kinetic energies (alpha):
                                 1                 2
   1         O                -1.940617         -1.411117
   2         O                -1.213980         -1.089873
   3         O                -0.969322         -0.893400
   4         O                -0.809480         -0.639331
   5         O                -0.801790         -0.679880
   6         O                -0.687246         -0.571644
   7         O                -0.664218         -0.575748

 Normal termination of Gaussian 09 at Tue Dec 15 17:10:05 2015.
