 Gaussian 09, Revision D.01,
 Gaussian 09:  ES64L-G09RevD.01 24-Apr-2013

 -------------------------------------------------------
 #P B3LYP/3-21G CIS(Singlets,NStates=15) pop(full) force
 -------------------------------------------------------

 --------
 FuranDFT
 --------
 Symbolic Z-matrix:
 Charge =  0 Multiplicity = 1

                         Standard orientation:
 ---------------------------------------------------------------------
 Center     Atomic      Atomic             Coordinates (Angstroms)
 Number     Number       Type             X           Y           Z
 ---------------------------------------------------------------------
      1          6           0       -0.876845    0.810863    0.003037
      2          6           0       -1.038661   -0.488756    0.018427
      3          8           0        0.198093   -1.086035   -0.031322
      4          6           0        1.112108   -0.203469    0.036920
      5          6           0        0.596026    1.014068   -0.009220
      6          1           0        1.077561    1.972741   -0.017671
      7          1           0        2.108694   -0.511949   -0.013008
      8          1           0       -1.906568   -1.134547    0.030369
      9          1           0       -1.620199    1.565802   -0.044097
 ---------------------------------------------------------------------

 SCF Done:  E(RB3LYP) =  -228.731336741     A.U. after   14 cycles

 Excitation energies and oscillator strengths:

 Excited State   1:      Singlet-A      7.4334 eV  166.79 nm  f=0.0590  <S**2>=0.000
      17 -> 19        -0.37104
      18 -> 19         0.44466
      18 -> 20         0.37843
 This state for optimization and/or second-order correction.
 Total Energy, E(CIS) =  -228.458165066
 Copying the excited state density for this state as the 1-particle RhoCI density.

 Excited State   2:      Singlet-A      8.0070 eV  154.84 nm  f=0.1577  <S**2>=0.000
      17 -> 19         0.35834
      18 -> 19         0.51920
      18 -> 20        -0.27695

 Excited State   3:      Singlet-A      9.0921 eV  136.37 nm  f=0.0136  <S**2>=0.000
      16 -> 19         0.66893
      18 -> 21         0.15933

 Excited State   4:      Singlet-A      9.1652 eV  135.28 nm  f=0.0009  <S**2>=0.000
      16 -> 19        -0.17589
      18 -> 21         0.65555
      18 -> 22        -0.16228

 Excited State   5:      Singlet-A      9.3752 eV  132.25 nm  f=0.1359  <S**2>=0.000
      17 -> 20         0.64109
      18 -> 20        -0.18677

 Excited State   6:      Singlet-A      9.5672 eV  129.59 nm  f=0.0027  <S**2>=0.000
      18 -> 21         0.15678
      18 -> 22         0.63854
      18 -> 23        -0.22167

 Excited State   7:      Singlet-A      9.8644 eV  125.69 nm  f=0.0029  <S**2>=0.000
      15 -> 19        -0.16958
      17 -> 21         0.30188
      18 -> 22         0.22062
      18 -> 23         0.55794

 Excited State   8:      Singlet-A     10.0180 eV  123.76 nm  f=0.1313  <S**2>=0.000
      15 -> 19         0.36751
      17 -> 19         0.21443
      17 -> 21         0.41127
      17 -> 22        -0.19001
      18 -> 20         0.23200
      18 -> 23        -0.15422

 Excited State   9:      Singlet-A     10.1537 eV  122.11 nm  f=0.0071  <S**2>=0.000
      15 -> 19         0.54838
      17 -> 21        -0.25965
      17 -> 22         0.12854
      18 -> 23         0.30644

 Excited State  10:      Singlet-A     10.1862 eV  121.72 nm  f=0.3963  <S**2>=0.000
      15 -> 19         0.13550
      17 -> 19        -0.35032
      17 -> 20        -0.16990
      17 -> 21         0.35962
      18 -> 20        -0.35700

 Excited State  11:      Singlet-A     10.4142 eV  119.05 nm  f=0.0052  <S**2>=0.000
      14 -> 19         0.14869
      16 -> 20         0.63613
      17 -> 22         0.21342

 Excited State  12:      Singlet-A     10.5067 eV  118.01 nm  f=0.0447  <S**2>=0.000
      16 -> 20        -0.20965
      17 -> 21         0.14973
      17 -> 22         0.61570

 Excited State  13:      Singlet-A     10.7265 eV  115.59 nm  f=0.0007  <S**2>=0.000
      18 -> 24         0.68983

 Excited State  14:      Singlet-A     10.9322 eV  113.41 nm  f=0.0004  <S**2>=0.000
      17 -> 23         0.67714

 Excited State  15:      Singlet-A     11.0753 eV  111.95 nm  f=0.0015  <S**2>=0.000
      15 -> 20         0.69070

 The electronic state is 1-A.
 Alpha  occ. eigenvalues --  -19.10840 -10.17071 -10.16689 -10.12098 -10.11450
 Alpha  occ. eigenvalues --   -1.15634  -0.80418  -0.76501  -0.61522  -0.57185
 Alpha  occ. eigenvalues --   -0.54429  -0.46566  -0.45677  -0.42986  -0.38704
 Alpha  occ. eigenvalues --   -0.35467  -0.27330  -0.23900
 Alpha virt. eigenvalues --    0.03898   0.08356   0.14302   0.15695   0.17313
 Alpha virt. eigenvalues --    0.19472   0.22291   0.25031   0.38822   0.42198
 Alpha virt. eigenvalues --    0.49371   0.68711   0.69566   0.70957   0.75480

 Mulliken charges:
               1
     1  C   -0.258705
     2  C    0.083061
     3  O   -0.513160
     4  C    0.162899
     5  C   -0.279125
     6  H    0.178591
     7  H    0.221194
     8  H    0.216490
     9  H    0.188754
 Sum of Mulliken charges =   0.00000

 Dipole moment (field-independent basis, Debye):
    X=             -0.1877    Y=              0.5226    Z=             -0.0132  Tot=              0.5554
 Quadrupole moment (field-independent basis, Debye-Ang):
   XX=            -23.6903   YY=            -27.9865   ZZ=            -31.5043
   XY=              0.4905   XZ=             -0.0405   YZ=             -0.1863

 Normal termination of Gaussian 09 at Tue Dec 15 16:25:40 2015.
