 Gaussian 09, Revision D.01,
 Gaussian 09:  ES64L-G09RevD.01 24-Apr-2013

 ------------------------------------------------------------
 #P AM1(Input,print) CIS(Singlets,NStates=15) pop(full) force
 ------------------------------------------------------------

 -----------------
 AM1-Reparam Input
 -----------------
 Symbolic Z-matrix:
 Charge =  0 Multiplicity = 1

                         Standard orientation:
 ---------------------------------------------------------------------
 Center     Atomic      Atomic             Coordinates (Angstroms)
 Number     Number       Type             X           Y           Z
 ---------------------------------------------------------------------
      1          6           0       -0.539353    1.061019   -0.012649
      2          6           0       -1.170045   -0.182549    0.028961
      3          8           0       -0.201308   -1.090727   -0.017120
      4          6           0        1.014732   -0.522020   -0.001889
      5          6           0        0.911592    0.780923   -0.009582
      6          1           0        1.622497    1.557458    0.076031
      7          1           0        1.845513   -1.197540    0.044122
      8          1           0       -2.155868   -0.461706    0.015911
      9          1           0       -1.003236    2.003364   -0.028147
 ---------------------------------------------------------------------

 SCF Done:  E(RAM1) =  -5.21707518044     A.U. after   14 cycles

 Excitation energies and oscillator strengths:

 Excited State   1:      Singlet-A      6.6997 eV  185.06 nm  f=0.0524  <S**2>=0.000
      13 -> 14        -0.34630
      13 -> 15         0.60019
 This state for optimization and/or second-order correction.
 Total Energy, E(CIS) =  -4.97086741592
 Copying the excited state density for this state as the 1-particle RhoCI density.

 Excited State   2:      Singlet-A      6.9106 eV  179.41 nm  f=0.1420  <S**2>=0.000
      12 -> 14        -0.36764
      13 -> 14         0.47512
      13 -> 15         0.33681

 Excited State   3:      Singlet-A      6.9904 eV  177.36 nm  f=0.0763  <S**2>=0.000
      12 -> 14         0.58751
      13 -> 14         0.34490
      13 -> 15         0.12477

 Excited State   4:      Singlet-A      7.5649 eV  163.89 nm  f=0.0002  <S**2>=0.000
      13 -> 16         0.68172

 Excited State   5:      Singlet-A      7.9818 eV  155.33 nm  f=0.0077  <S**2>=0.000
      11 -> 14         0.69617

 Excited State   6:      Singlet-A      8.8132 eV  140.68 nm  f=0.0282  <S**2>=0.000
      11 -> 16        -0.17282
      12 -> 15         0.65235
      13 -> 17         0.10153

 Excited State   7:      Singlet-A      9.2614 eV  133.87 nm  f=0.0081  <S**2>=0.000
      10 -> 14         0.51801
      10 -> 15        -0.25052
      11 -> 15         0.15908
      13 -> 17         0.32371

 Excited State   8:      Singlet-A      9.4061 eV  131.81 nm  f=0.0520  <S**2>=0.000
      10 -> 14         0.19614
      10 -> 15         0.11056
      11 -> 15        -0.38637
      12 -> 16         0.47364
      13 -> 17         0.13578
      13 -> 18         0.12812

 Excited State   9:      Singlet-A      9.5319 eV  130.07 nm  f=0.0159  <S**2>=0.000
      10 -> 14         0.18267
      10 -> 15         0.46211
      12 -> 16        -0.21176
      13 -> 18         0.39855

 Excited State  10:      Singlet-A      9.6792 eV  128.09 nm  f=0.0024  <S**2>=0.000
      10 -> 15        -0.38778
      11 -> 15         0.10461
      13 -> 16         0.12091
      13 -> 17        -0.20128
      13 -> 18         0.49577

 Excited State  11:      Singlet-A      9.9862 eV  124.16 nm  f=0.0047  <S**2>=0.000
      10 -> 15         0.16565
      11 -> 15         0.50533
      12 -> 16         0.39681

 Excited State  12:      Singlet-A     10.2332 eV  121.16 nm  f=0.0053  <S**2>=0.000
      10 -> 16         0.42758
      13 -> 19         0.45740
      13 -> 20        -0.28109

 Excited State  13:      Singlet-A     10.2671 eV  120.76 nm  f=0.0416  <S**2>=0.000
       9 -> 14         0.57552
      10 -> 14         0.16027
      13 -> 17        -0.29595

 Excited State  14:      Singlet-A     10.4359 eV  118.81 nm  f=0.1101  <S**2>=0.000
       9 -> 14         0.35912
      10 -> 14        -0.23682
      11 -> 16         0.31841
      13 -> 17         0.39001
      13 -> 18         0.10318

 Excited State  15:      Singlet-A     10.6742 eV  116.15 nm  f=0.0026  <S**2>=0.000
      10 -> 16         0.27499
      13 -> 19         0.11571
      13 -> 20         0.60875

 The electronic state is 1-A.
 Alpha  occ. eigenvalues --   -3.84606  -1.33618  -0.98143  -0.95651  -0.94846
 Alpha  occ. eigenvalues --   -0.89002  -0.74974  -0.57402  -0.53352  -0.49050
 Alpha  occ. eigenvalues --   -0.47893  -0.44510  -0.37538
 Alpha virt. eigenvalues --    0.07572   0.11758   0.14362   0.21954   0.23099
 Alpha virt. eigenvalues --    0.24377   0.25894   0.27603   0.33456   0.36208
 Alpha virt. eigenvalues --    0.40623

 Mulliken charges:
               1
     1  C   -0.377400
     2  C   -1.218121
     3  O    2.484977
     4  C   -1.187572
     5  C   -0.345138
     6  H    0.192221
     7  H    0.132371
     8  H    0.131426
     9  H    0.187236
 Sum of Mulliken charges =   0.00000

 Dipole moment (field-independent basis, Debye):
    X=             -1.2622    Y=             -8.7115    Z=             -0.1960  Tot=              8.8046
 N-N= 1.023378348236D+02 E-N=-1.679178079429D+02  KE=-2.198030270828D+01
 Orbital energies and kinetic energies (alpha):
                                 1                 2
   1         O                -3.846058         -3.128501
   2         O                -1.336185         -1.191858
   3         O                -0.981432         -0.878454
   4         O                -0.956513         -0.906478
   5         O                -0.948464         -0.936848
   6         O                -0.890024         -0.737459
   7         O                -0.749736         -0.630680

 Normal termination of Gaussian 09 at Fri Dec 11 13:41:25 2015.
