 Gaussian 09, Revision D.01,
 Gaussian 09:  ES64L-G09RevD.01 24-Apr-2013

 ------------------------------------------------------------
 #P AM1(Input,print) CIS(Singlets,NStates=15) pop(full) force
 ------------------------------------------------------------

 -----------------
 AM1-Reparam Input
 -----------------
 Symbolic Z-matrix:
 Charge =  0 Multiplicity = 1

                         Standard orientation:
 ---------------------------------------------------------------------
 Center     Atomic      Atomic             Coordinates (Angstroms)
 Number     Number       Type             X           Y           Z
 ---------------------------------------------------------------------
      1          6           0       -1.137190    0.380335    0.010335
      2          6           0       -0.696027   -0.885175   -0.005211
      3          8           0        0.690219   -0.967181    0.003865
      4          6           0        1.061751    0.335255   -0.003555
      5          6           0        0.039693    1.178220   -0.013275
      6          1           0        0.091382    2.257813   -0.001811
      7          1           0        2.232895    0.449551    0.037523
      8          1           0       -1.277352   -1.790679   -0.025039
      9          1           0       -2.178041    0.768954    0.028640
 ---------------------------------------------------------------------

 SCF Done:  E(RAM1) =   2.85023324660     A.U. after   14 cycles

 Excitation energies and oscillator strengths:

 Excited State   1:      Singlet-A      5.3077 eV  233.59 nm  f=0.3367  <S**2>=0.000
      13 -> 14         0.69598
 This state for optimization and/or second-order correction.
 Total Energy, E(CIS) =   3.04528732349
 Copying the excited state density for this state as the 1-particle RhoCI density.

 Excited State   2:      Singlet-A      5.8225 eV  212.94 nm  f=0.0002  <S**2>=0.000
      11 -> 15         0.12494
      13 -> 15         0.67683
      13 -> 17        -0.10211

 Excited State   3:      Singlet-A      6.5222 eV  190.09 nm  f=0.0022  <S**2>=0.000
      11 -> 16        -0.11822
      13 -> 16         0.65319
      13 -> 17        -0.12849
      13 -> 18        -0.15987

 Excited State   4:      Singlet-A      6.7722 eV  183.08 nm  f=0.0001  <S**2>=0.000
      12 -> 14         0.69634

 Excited State   5:      Singlet-A      7.6272 eV  162.55 nm  f=0.0125  <S**2>=0.000
      10 -> 14        -0.17887
      13 -> 15         0.11735
      13 -> 17         0.54063
      13 -> 18        -0.29518
      13 -> 19        -0.11511
      13 -> 21        -0.22062

 Excited State   6:      Singlet-A      7.8076 eV  158.80 nm  f=0.0071  <S**2>=0.000
      10 -> 14         0.40614
      11 -> 14         0.10349
      13 -> 16        -0.14989
      13 -> 17        -0.20933
      13 -> 18        -0.38773
      13 -> 21        -0.29516

 Excited State   7:      Singlet-A      7.9299 eV  156.35 nm  f=0.0010  <S**2>=0.000
      10 -> 14         0.51639
      11 -> 14         0.12529
      13 -> 17         0.34828
      13 -> 18         0.21582
      13 -> 21         0.16664

 Excited State   8:      Singlet-A      8.5320 eV  145.32 nm  f=0.0004  <S**2>=0.000
      13 -> 19         0.65246
      13 -> 21        -0.18844

 Excited State   9:      Singlet-A      8.6156 eV  143.91 nm  f=0.0494  <S**2>=0.000
       8 -> 15         0.11547
      10 -> 14        -0.15159
      11 -> 14         0.59552
      12 -> 15         0.28215

 Excited State  10:      Singlet-A      8.9280 eV  138.87 nm  f=0.1470  <S**2>=0.000
       8 -> 15         0.14296
      10 -> 17        -0.10736
      11 -> 14        -0.25148
      12 -> 15         0.50291
      12 -> 16        -0.19191
      12 -> 18         0.15416
      13 -> 18         0.13648
      13 -> 21        -0.16344

 Excited State  11:      Singlet-A      8.9436 eV  138.63 nm  f=0.0211  <S**2>=0.000
      12 -> 15         0.16498
      13 -> 18        -0.39977
      13 -> 19         0.16107
      13 -> 21         0.49535

 Excited State  12:      Singlet-A      9.2641 eV  133.83 nm  f=0.0917  <S**2>=0.000
      11 -> 15        -0.12344
      13 -> 20         0.67120
      13 -> 21        -0.10541

 Excited State  13:      Singlet-A      9.3767 eV  132.23 nm  f=0.0006  <S**2>=0.000
       7 -> 15        -0.13761
      10 -> 15        -0.11454
      11 -> 15         0.63509
      13 -> 15        -0.14758
      13 -> 20         0.12541

 Excited State  14:      Singlet-A      9.4388 eV  131.36 nm  f=0.0287  <S**2>=0.000
       9 -> 15         0.16563
      10 -> 15        -0.28926
      10 -> 17         0.25743
      11 -> 14        -0.11718
      12 -> 15         0.24433
      12 -> 16         0.32758
      12 -> 18        -0.24244
      12 -> 21        -0.12188

 Excited State  15:      Singlet-A      9.8634 eV  125.70 nm  f=0.1014  <S**2>=0.000
       8 -> 15         0.18687
       8 -> 16        -0.13404
       9 -> 15        -0.19330
      10 -> 15         0.33128
      10 -> 19         0.17280
      11 -> 14        -0.12655
      12 -> 16         0.38769
      12 -> 17         0.17296

 The electronic state is 1-A.
 Alpha  occ. eigenvalues --   -1.70811  -1.12284  -0.90593  -0.78152  -0.74165
 Alpha  occ. eigenvalues --   -0.65607  -0.63131  -0.51288  -0.49070  -0.42298
 Alpha  occ. eigenvalues --   -0.41872  -0.38753  -0.26981
 Alpha virt. eigenvalues --    0.13163   0.16081   0.20118   0.26228   0.28182
 Alpha virt. eigenvalues --    0.29511   0.30884   0.32473   0.36884   0.46628
 Alpha virt. eigenvalues --    0.49373

 Mulliken charges:
               1
     1  C   -0.114768
     2  C   -1.942755
     3  O    3.193560
     4  C   -1.911118
     5  C   -0.152699
     6  H    0.170711
     7  H    0.287194
     8  H    0.302437
     9  H    0.167437
 Sum of Mulliken charges =   0.00000

 Dipole moment (field-independent basis, Debye):
    X=              6.6250    Y=             -8.9619    Z=              0.1719  Tot=             11.1461
 N-N= 1.038552157761D+02 E-N=-1.691604015252D+02  KE=-1.474949338198D+01
 Orbital energies and kinetic energies (alpha):
                                 1                 2
   1         O                -1.708110         -1.203142
   2         O                -1.122836         -1.001268
   3         O                -0.905928         -0.850250
   4         O                -0.781521         -0.579787
   5         O                -0.741646         -0.667896
   6         O                -0.656069         -0.569748
   7         O                -0.631313         -0.527393

 Normal termination of Gaussian 09 at Tue Dec 15 17:06:02 2015.
