 Gaussian 09, Revision D.01,
 Gaussian 09:  ES64L-G09RevD.01 24-Apr-2013

 ------------------------------------------------------------
 #P AM1(Input,print) CIS(Singlets,NStates=15) pop(full) force
 ------------------------------------------------------------

 -----------------
 AM1-Reparam Input
 -----------------
 Symbolic Z-matrix:
 Charge =  0 Multiplicity = 1

                         Standard orientation:
 ---------------------------------------------------------------------
 Center     Atomic      Atomic             Coordinates (Angstroms)
 Number     Number       Type             X           Y           Z
 ---------------------------------------------------------------------
      1          6           0        0.867254    0.750367   -0.006659
      2          6           0        1.031277   -0.573175    0.003733
      3          8           0       -0.267478   -1.103384   -0.017968
      4          6           0       -1.161435   -0.142458    0.039961
      5          6           0       -0.452088    1.109645   -0.021723
      6          1           0       -0.915346    2.034524    0.000670
      7          1           0       -2.163544   -0.350638   -0.026643
      8          1           0        1.785176   -1.221629    0.023659
      9          1           0        1.723492    1.498536    0.054184
 ---------------------------------------------------------------------

 SCF Done:  E(RAM1) =   1.80857851726     A.U. after   14 cycles

 Excitation energies and oscillator strengths:

 Excited State   1:      Singlet-A      5.7582 eV  215.32 nm  f=0.3168  <S**2>=0.000
      13 -> 14         0.68485
 This state for optimization and/or second-order correction.
 Total Energy, E(CIS) =   2.02018920346
 Copying the excited state density for this state as the 1-particle RhoCI density.

 Excited State   2:      Singlet-A      6.8753 eV  180.33 nm  f=0.0121  <S**2>=0.000
      13 -> 15         0.68027
      13 -> 17        -0.10023

 Excited State   3:      Singlet-A      7.4795 eV  165.77 nm  f=0.0048  <S**2>=0.000
      12 -> 14         0.68455
      13 -> 16        -0.12713

 Excited State   4:      Singlet-A      7.6082 eV  162.96 nm  f=0.0017  <S**2>=0.000
      12 -> 14         0.13836
      13 -> 16         0.65481
      13 -> 19        -0.14354

 Excited State   5:      Singlet-A      8.3923 eV  147.74 nm  f=0.0032  <S**2>=0.000
      10 -> 14         0.63397
      11 -> 14        -0.16131
      13 -> 17        -0.18275
      13 -> 18        -0.12009
      13 -> 21         0.10798

 Excited State   6:      Singlet-A      8.5369 eV  145.23 nm  f=0.0017  <S**2>=0.000
      10 -> 14         0.23198
      13 -> 17         0.46834
      13 -> 18         0.38408
      13 -> 21        -0.20114

 Excited State   7:      Singlet-A      9.0877 eV  136.43 nm  f=0.0657  <S**2>=0.000
      10 -> 14         0.16518
      11 -> 14         0.61435
      12 -> 15        -0.13261
      12 -> 17         0.19022

 Excited State   8:      Singlet-A      9.5698 eV  129.56 nm  f=0.0076  <S**2>=0.000
      11 -> 15         0.17214
      11 -> 16        -0.17103
      13 -> 17        -0.41226
      13 -> 18         0.47471
      13 -> 19        -0.12745

 Excited State   9:      Singlet-A      9.7381 eV  127.32 nm  f=0.2763  <S**2>=0.000
       9 -> 15         0.11182
      10 -> 15        -0.20129
      10 -> 16        -0.15170
      10 -> 18        -0.19145
      11 -> 14         0.25353
      12 -> 15         0.40856
      12 -> 16         0.10563
      12 -> 17        -0.25165
      13 -> 14        -0.12967

 Excited State  10:      Singlet-A      9.9848 eV  124.17 nm  f=0.0018  <S**2>=0.000
      11 -> 15         0.33995
      13 -> 17         0.11564
      13 -> 18         0.15799
      13 -> 19         0.52975
      13 -> 21         0.15391

 Excited State  11:      Singlet-A     10.2934 eV  120.45 nm  f=0.0080  <S**2>=0.000
      10 -> 15         0.41417
      10 -> 18         0.10357
      11 -> 15        -0.13634
      12 -> 15         0.20813
      12 -> 16         0.44821
      12 -> 19        -0.10362

 Excited State  12:      Singlet-A     10.4327 eV  118.84 nm  f=0.0148  <S**2>=0.000
      11 -> 15         0.50915
      12 -> 16         0.16045
      12 -> 17         0.13022
      13 -> 15         0.12841
      13 -> 16        -0.12605
      13 -> 17         0.10240
      13 -> 18        -0.15917
      13 -> 19        -0.27924
      13 -> 21        -0.10514

 Excited State  13:      Singlet-A     10.4895 eV  118.20 nm  f=0.1405  <S**2>=0.000
      10 -> 15        -0.42573
      10 -> 16         0.10071
      12 -> 15        -0.20520
      12 -> 16         0.44362

 Excited State  14:      Singlet-A     10.5798 eV  117.19 nm  f=0.0451  <S**2>=0.000
       9 -> 15         0.17759
      11 -> 14        -0.10342
      11 -> 15        -0.11162
      12 -> 15         0.30097
      12 -> 17         0.41141
      12 -> 18         0.25070
      12 -> 19         0.16747

 Excited State  15:      Singlet-A     10.7474 eV  115.36 nm  f=0.0008  <S**2>=0.000
      13 -> 17         0.13334
      13 -> 18         0.13878
      13 -> 19        -0.21472
      13 -> 21         0.61986

 The electronic state is 1-A.
 Alpha  occ. eigenvalues --   -2.00525  -1.28385  -1.02114  -0.90094  -0.86805
 Alpha  occ. eigenvalues --   -0.77522  -0.75330  -0.66084  -0.62511  -0.53490
 Alpha  occ. eigenvalues --   -0.52904  -0.50127  -0.39265
 Alpha virt. eigenvalues --    0.03788   0.10239   0.13258   0.18162   0.19956
 Alpha virt. eigenvalues --    0.21867   0.24920   0.25962   0.29292   0.36717
 Alpha virt. eigenvalues --    0.42938

 Mulliken charges:
               1
     1  C   -0.080848
     2  C   -1.877840
     3  O    3.189569
     4  C   -1.947476
     5  C   -0.158087
     6  H    0.156014
     7  H    0.286583
     8  H    0.260872
     9  H    0.171212
 Sum of Mulliken charges =   0.00000

 Dipole moment (field-independent basis, Debye):
    X=             -2.3015    Y=             -9.3592    Z=             -0.5600  Tot=              9.6543
 N-N= 1.059975149833D+02 E-N=-1.709532641661D+02  KE=-1.572149723235D+01
 Orbital energies and kinetic energies (alpha):
                                 1                 2
   1         O                -2.005247         -1.387422
   2         O                -1.283851         -1.049034
   3         O                -1.021145         -0.881890
   4         O                -0.900943         -0.597936
   5         O                -0.868047         -0.710905
   6         O                -0.775217         -0.619122
   7         O                -0.753299         -0.548638

 Normal termination of Gaussian 09 at Tue Dec 15 17:09:10 2015.
