 Gaussian 09, Revision D.01,
 Gaussian 09:  ES64L-G09RevD.01 24-Apr-2013

 ------------------------------------------------------------
 #P AM1(Input,print) CIS(Singlets,NStates=15) pop(full) force
 ------------------------------------------------------------

 -----------------
 AM1-Reparam Input
 -----------------
 Symbolic Z-matrix:
 Charge =  0 Multiplicity = 1

                         Standard orientation:
 ---------------------------------------------------------------------
 Center     Atomic      Atomic             Coordinates (Angstroms)
 Number     Number       Type             X           Y           Z
 ---------------------------------------------------------------------
      1          6           0        0.998752    0.679922   -0.001949
      2          6           0        0.970490   -0.617294   -0.003461
      3          8           0       -0.401906   -1.116253   -0.007436
      4          6           0       -1.112923    0.025511    0.003450
      5          6           0       -0.424883    1.084749   -0.002005
      6          1           0       -0.759060    2.137273    0.008006
      7          1           0       -2.161964   -0.160181    0.024412
      8          1           0        1.666415   -1.403271    0.051075
      9          1           0        1.881249    1.318878   -0.000214
 ---------------------------------------------------------------------

 SCF Done:  E(RAM1) =   2.80413682784     A.U. after   14 cycles

 Excitation energies and oscillator strengths:

 Excited State   1:      Singlet-A      4.8782 eV  254.16 nm  f=0.0609  <S**2>=0.000
      13 -> 14         0.30545
      13 -> 15         0.61843
 This state for optimization and/or second-order correction.
 Total Energy, E(CIS) =   2.98340793720
 Copying the excited state density for this state as the 1-particle RhoCI density.

 Excited State   2:      Singlet-A      4.9144 eV  252.29 nm  f=0.2871  <S**2>=0.000
      13 -> 14         0.62680
      13 -> 15        -0.30204

 Excited State   3:      Singlet-A      5.8042 eV  213.61 nm  f=0.0003  <S**2>=0.000
      10 -> 16        -0.10535
      13 -> 16         0.66648
      13 -> 17         0.14107
      13 -> 19        -0.10555

 Excited State   4:      Singlet-A      6.5276 eV  189.94 nm  f=0.0003  <S**2>=0.000
      12 -> 14         0.69761

 Excited State   5:      Singlet-A      7.0776 eV  175.18 nm  f=0.0037  <S**2>=0.000
      13 -> 16        -0.15800
      13 -> 17         0.50188
      13 -> 18        -0.39115
      13 -> 21         0.21111

 Excited State   6:      Singlet-A      7.1742 eV  172.82 nm  f=0.0063  <S**2>=0.000
      13 -> 15        -0.10098
      13 -> 17         0.45213
      13 -> 18         0.40582
      13 -> 19         0.25063
      13 -> 21        -0.21011

 Excited State   7:      Singlet-A      7.9378 eV  156.19 nm  f=0.0008  <S**2>=0.000
      11 -> 14         0.26076
      13 -> 18        -0.27359
      13 -> 19         0.58119

 Excited State   8:      Singlet-A      8.0503 eV  154.01 nm  f=0.0011  <S**2>=0.000
      11 -> 14         0.64308
      13 -> 18         0.13151
      13 -> 19        -0.20572

 Excited State   9:      Singlet-A      8.2916 eV  149.53 nm  f=0.1336  <S**2>=0.000
       8 -> 15         0.15267
      12 -> 15         0.63218
      12 -> 16        -0.12235
      12 -> 18         0.11101

 Excited State  10:      Singlet-A      8.6441 eV  143.43 nm  f=0.0087  <S**2>=0.000
      13 -> 18         0.27427
      13 -> 19         0.14800
      13 -> 20        -0.28778
      13 -> 21         0.55497

 Excited State  11:      Singlet-A      8.7847 eV  141.14 nm  f=0.0240  <S**2>=0.000
       8 -> 16         0.17421
      10 -> 14         0.45547
      11 -> 17         0.12471
      11 -> 18         0.10933
      12 -> 16        -0.41125
      12 -> 18         0.14526

 Excited State  12:      Singlet-A      9.0741 eV  136.63 nm  f=0.1041  <S**2>=0.000
      13 -> 20         0.62038
      13 -> 21         0.30296

 Excited State  13:      Singlet-A      9.1884 eV  134.94 nm  f=0.0349  <S**2>=0.000
       9 -> 15        -0.17909
      10 -> 14         0.32268
      11 -> 15        -0.23591
      11 -> 17        -0.25465
      12 -> 15         0.18093
      12 -> 16         0.12407
      12 -> 17         0.22975
      12 -> 18        -0.31426
      12 -> 21         0.10065

 Excited State  14:      Singlet-A      9.4606 eV  131.05 nm  f=0.2287  <S**2>=0.000
       8 -> 16        -0.12400
      10 -> 14         0.31527
      11 -> 16         0.17698
      11 -> 17         0.18633
      12 -> 16         0.45579
      12 -> 18         0.27745

 Excited State  15:      Singlet-A      9.5687 eV  129.57 nm  f=0.0053  <S**2>=0.000
       7 -> 15        -0.17492
      10 -> 15         0.66418
      13 -> 15        -0.10311

 The electronic state is 1-A.
 Alpha  occ. eigenvalues --   -1.75505  -1.13825  -0.94372  -0.79018  -0.74839
 Alpha  occ. eigenvalues --   -0.65493  -0.63110  -0.51951  -0.49161  -0.42785
 Alpha  occ. eigenvalues --   -0.41702  -0.36915  -0.23995
 Alpha virt. eigenvalues --    0.13990   0.16150   0.19984   0.26911   0.28745
 Alpha virt. eigenvalues --    0.30488   0.32894   0.33858   0.44382   0.54014
 Alpha virt. eigenvalues --    0.56666

 Mulliken charges:
               1
     1  C   -0.022122
     2  C   -1.916477
     3  O    3.333330
     4  C   -1.933946
     5  C   -0.171751
     6  H    0.121407
     7  H    0.253482
     8  H    0.229101
     9  H    0.106976
 Sum of Mulliken charges =   0.00000

 Dipole moment (field-independent basis, Debye):
    X=             -4.6152    Y=            -11.7126    Z=              0.0319  Tot=             12.5891
 N-N= 1.038004072045D+02 E-N=-1.688527379251D+02  KE=-1.488639169460D+01
 Orbital energies and kinetic energies (alpha):
                                 1                 2
   1         O                -1.755053         -1.231623
   2         O                -1.138255         -1.004144
   3         O                -0.943721         -0.884388
   4         O                -0.790176         -0.582206
   5         O                -0.748394         -0.686783
   6         O                -0.654934         -0.527329
   7         O                -0.631097         -0.525625

 Normal termination of Gaussian 09 at Tue Dec 15 17:05:27 2015.
