 Gaussian 09, Revision D.01,
 Gaussian 09:  ES64L-G09RevD.01 24-Apr-2013

 ------------------------------------------------------------
 #P AM1(Input,print) CIS(Singlets,NStates=15) pop(full) force
 ------------------------------------------------------------

 -----------------
 AM1-Reparam Input
 -----------------
 Symbolic Z-matrix:
 Charge =  0 Multiplicity = 1

                         Standard orientation:
 ---------------------------------------------------------------------
 Center     Atomic      Atomic             Coordinates (Angstroms)
 Number     Number       Type             X           Y           Z
 ---------------------------------------------------------------------
      1          6           0        0.906798    0.776835   -0.013504
      2          6           0        1.034385   -0.574751    0.020855
      3          8           0       -0.305036   -1.109669   -0.002194
      4          6           0       -1.147473   -0.105361   -0.002074
      5          6           0       -0.458687    1.060529   -0.015200
      6          1           0       -0.909003    2.133576    0.071905
      7          1           0       -2.221451   -0.316488    0.014679
      8          1           0        1.834847   -1.276483   -0.028184
      9          1           0        1.725766    1.393239    0.018693
 ---------------------------------------------------------------------

 SCF Done:  E(RAM1) =  0.283352699049E-01 A.U. after   13 cycles

 Excitation energies and oscillator strengths:

 Excited State   1:      Singlet-A      4.3329 eV  286.15 nm  f=0.0993  <S**2>=0.000
      12 -> 15         0.17532
      13 -> 14         0.67266
 This state for optimization and/or second-order correction.
 Total Energy, E(CIS) =  0.187566474921
 Copying the excited state density for this state as the 1-particle RhoCI density.

 Excited State   2:      Singlet-A      4.5974 eV  269.68 nm  f=0.0005  <S**2>=0.000
      13 -> 15        -0.11092
      13 -> 16         0.67797

 Excited State   3:      Singlet-A      5.0878 eV  243.69 nm  f=0.0126  <S**2>=0.000
      12 -> 14        -0.39533
      13 -> 15         0.56998
      13 -> 16         0.10860

 Excited State   4:      Singlet-A      5.9141 eV  209.64 nm  f=0.0018  <S**2>=0.000
      12 -> 16        -0.28007
      12 -> 19        -0.10605
      12 -> 22         0.13869
      13 -> 17        -0.29558
      13 -> 18         0.12043
      13 -> 19         0.37935
      13 -> 22        -0.22786
      13 -> 23         0.20238

 Excited State   5:      Singlet-A      5.9232 eV  209.32 nm  f=0.0019  <S**2>=0.000
       7 -> 16        -0.15518
      12 -> 16         0.58375
      13 -> 19         0.17313
      13 -> 22        -0.14247
      13 -> 23         0.11561

 Excited State   6:      Singlet-A      6.0628 eV  204.50 nm  f=0.0015  <S**2>=0.000
      12 -> 17         0.12874
      12 -> 18         0.11664
      12 -> 20        -0.16661
      12 -> 23        -0.11143
      13 -> 17         0.34649
      13 -> 18         0.32417
      13 -> 19         0.13640
      13 -> 20        -0.24263
      13 -> 22        -0.22042
      13 -> 23        -0.17878

 Excited State   7:      Singlet-A      6.2530 eV  198.28 nm  f=0.3643  <S**2>=0.000
       9 -> 16        -0.10399
      12 -> 14         0.53995
      13 -> 15         0.37503

 Excited State   8:      Singlet-A      6.4810 eV  191.30 nm  f=0.0046  <S**2>=0.000
      12 -> 18        -0.13460
      13 -> 17        -0.25574
      13 -> 18         0.46642
      13 -> 19        -0.36149
      13 -> 20        -0.15358
      13 -> 23         0.10337

 Excited State   9:      Singlet-A      6.6360 eV  186.84 nm  f=0.1175  <S**2>=0.000
      12 -> 15         0.66214
      13 -> 14        -0.16008

 Excited State  10:      Singlet-A      6.8762 eV  180.31 nm  f=0.0034  <S**2>=0.000
       9 -> 15         0.11647
      10 -> 14        -0.37037
      11 -> 14         0.49564
      11 -> 15        -0.24590

 Excited State  11:      Singlet-A      7.1711 eV  172.89 nm  f=0.0014  <S**2>=0.000
      12 -> 17        -0.13186
      12 -> 18        -0.32667
      12 -> 19         0.15310
      12 -> 20         0.10525
      12 -> 22         0.14398
      13 -> 17         0.33128
      13 -> 18         0.22109
      13 -> 19         0.12734
      13 -> 20         0.27032
      13 -> 22         0.11678
      13 -> 23         0.14994

 Excited State  12:      Singlet-A      7.2747 eV  170.43 nm  f=0.0002  <S**2>=0.000
       9 -> 14         0.15036
      10 -> 14        -0.23910
      10 -> 15        -0.12252
      11 -> 14        -0.15089
      12 -> 17         0.26086
      12 -> 19         0.21771
      12 -> 20         0.15850
      13 -> 17        -0.12741
      13 -> 19         0.18605
      13 -> 21        -0.21224
      13 -> 22         0.31820

 Excited State  13:      Singlet-A      7.3339 eV  169.06 nm  f=0.0021  <S**2>=0.000
       9 -> 14        -0.21679
      10 -> 14         0.33337
      10 -> 15         0.26423
      11 -> 14         0.33140
      12 -> 17         0.15178
      12 -> 19         0.17161
      13 -> 19         0.17292
      13 -> 22         0.16097

 Excited State  14:      Singlet-A      7.4848 eV  165.65 nm  f=0.0108  <S**2>=0.000
      11 -> 15         0.10735
      12 -> 17         0.14809
      12 -> 19         0.13166
      12 -> 20         0.21243
      12 -> 21        -0.17615
      12 -> 23        -0.16765
      13 -> 17         0.13071
      13 -> 18        -0.20666
      13 -> 19        -0.11468
      13 -> 20        -0.25340
      13 -> 21         0.30303
      13 -> 22        -0.11004
      13 -> 23         0.25386

 Excited State  15:      Singlet-A      7.7932 eV  159.09 nm  f=0.0074  <S**2>=0.000
       9 -> 14         0.24111
      10 -> 15        -0.15982
      12 -> 17        -0.14682
      12 -> 18         0.21657
      12 -> 19         0.10365
      12 -> 20        -0.21724
      12 -> 23         0.11715
      13 -> 20        -0.12012
      13 -> 21         0.21760
      13 -> 22         0.23322
      13 -> 23         0.24906
      13 -> 24         0.22097

 The electronic state is 1-A.
 Alpha  occ. eigenvalues --   -1.56514  -1.24175  -1.09541  -0.82138  -0.81221
 Alpha  occ. eigenvalues --   -0.68203  -0.60009  -0.56710  -0.51523  -0.49920
 Alpha  occ. eigenvalues --   -0.48651  -0.40012  -0.34201
 Alpha virt. eigenvalues --    0.02913   0.06798   0.08825   0.14022   0.14474
 Alpha virt. eigenvalues --    0.15347   0.17923   0.18499   0.19324   0.20803
 Alpha virt. eigenvalues --    0.22447

 Mulliken charges:
               1
     1  C   -0.156775
     2  C   -0.126583
     3  O   -0.096495
     4  C   -0.064883
     5  C   -0.250622
     6  H    0.159555
     7  H    0.191514
     8  H    0.193035
     9  H    0.151255
 Sum of Mulliken charges =   0.00000

 Dipole moment (field-independent basis, Debye):
    X=              0.0227    Y=              0.3791    Z=              0.0639  Tot=              0.3851
 N-N= 1.034870972481D+02 E-N=-1.711148591261D+02  KE=-1.654632933354D+01
 Orbital energies and kinetic energies (alpha):
                                 1                 2
   1         O                -1.565137         -1.315954
   2         O                -1.241750         -1.054129
   3         O                -1.095409         -0.956991
   4         O                -0.821384         -0.724245
   5         O                -0.812207         -0.701779
   6         O                -0.682026         -0.601003
   7         O                -0.600093         -0.487698

 Normal termination of Gaussian 09 at Fri Dec 11 13:18:13 2015.
