 Gaussian 09, Revision D.01,
 Gaussian 09:  ES64L-G09RevD.01 24-Apr-2013

 ------------------------------------------------------------
 #P AM1(Input,print) CIS(Singlets,NStates=15) pop(full) force
 ------------------------------------------------------------

 -----------------
 AM1-Reparam Input
 -----------------
 Symbolic Z-matrix:
 Charge =  0 Multiplicity = 1

                         Standard orientation:
 ---------------------------------------------------------------------
 Center     Atomic      Atomic             Coordinates (Angstroms)
 Number     Number       Type             X           Y           Z
 ---------------------------------------------------------------------
      1          6           0       -0.937434    0.729833   -0.021719
      2          6           0       -0.962978   -0.593631    0.027571
      3          8           0        0.283689   -1.138888   -0.009341
      4          6           0        1.131678   -0.042859    0.014813
      5          6           0        0.467148    1.095240   -0.003600
      6          1           0        0.883264    2.063284    0.038627
      7          1           0        2.221465   -0.377353   -0.046116
      8          1           0       -1.789787   -1.219029   -0.025289
      9          1           0       -1.774941    1.512701    0.005117
 ---------------------------------------------------------------------

 SCF Done:  E(RAM1) =   2.62852821678     A.U. after   13 cycles

 Excitation energies and oscillator strengths:

 Excited State   1:      Singlet-A      4.9223 eV  251.88 nm  f=0.3608  <S**2>=0.000
      13 -> 14         0.69954
 This state for optimization and/or second-order correction.
 Total Energy, E(CIS) =   2.80941929808
 Copying the excited state density for this state as the 1-particle RhoCI density.

 Excited State   2:      Singlet-A      5.7867 eV  214.26 nm  f=0.0004  <S**2>=0.000
      13 -> 15         0.65265
      13 -> 16        -0.16133
      13 -> 17        -0.13676
      13 -> 19        -0.12699

 Excited State   3:      Singlet-A      6.2729 eV  197.65 nm  f=0.0024  <S**2>=0.000
      13 -> 15         0.16992
      13 -> 16         0.65999
      13 -> 18        -0.11334

 Excited State   4:      Singlet-A      6.3600 eV  194.94 nm  f=0.0002  <S**2>=0.000
      12 -> 14         0.69894

 Excited State   5:      Singlet-A      7.4288 eV  166.90 nm  f=0.0054  <S**2>=0.000
      10 -> 14         0.15858
      11 -> 14         0.64034
      13 -> 17         0.22861

 Excited State   6:      Singlet-A      7.4936 eV  165.45 nm  f=0.0004  <S**2>=0.000
      11 -> 14        -0.22609
      13 -> 15         0.10473
      13 -> 17         0.62805
      13 -> 21        -0.10658

 Excited State   7:      Singlet-A      8.5280 eV  145.38 nm  f=0.1135  <S**2>=0.000
      10 -> 14         0.66907
      11 -> 14        -0.16865

 Excited State   8:      Singlet-A      8.9165 eV  139.05 nm  f=0.0104  <S**2>=0.000
      10 -> 15        -0.21123
      12 -> 15        -0.10787
      13 -> 18         0.63154

 Excited State   9:      Singlet-A      8.9861 eV  137.97 nm  f=0.1286  <S**2>=0.000
       8 -> 15         0.10639
       9 -> 16         0.10891
      11 -> 18        -0.12158
      12 -> 15         0.53717
      12 -> 16        -0.20557
      12 -> 17        -0.27060
      13 -> 18         0.10487

 Excited State  10:      Singlet-A      9.2113 eV  134.60 nm  f=0.0005  <S**2>=0.000
      10 -> 16        -0.17376
      13 -> 19         0.64832

 Excited State  11:      Singlet-A      9.5763 eV  129.47 nm  f=0.1750  <S**2>=0.000
       9 -> 15         0.11800
      11 -> 15        -0.33437
      11 -> 16        -0.23551
      11 -> 18         0.18240
      12 -> 15         0.30505
      12 -> 16         0.14192
      12 -> 17         0.33630

 Excited State  12:      Singlet-A      9.6983 eV  127.84 nm  f=0.0814  <S**2>=0.000
      11 -> 15        -0.19043
      11 -> 16         0.26528
      11 -> 19         0.10360
      12 -> 16         0.54108
      12 -> 17        -0.20885

 Excited State  13:      Singlet-A      9.9493 eV  124.62 nm  f=0.0054  <S**2>=0.000
       7 -> 15         0.11007
      10 -> 15         0.60572
      11 -> 15        -0.13526
      13 -> 15         0.12679
      13 -> 18         0.19274

 Excited State  14:      Singlet-A     10.2008 eV  121.54 nm  f=0.0229  <S**2>=0.000
       8 -> 15         0.28159
       9 -> 15         0.10415
       9 -> 16        -0.12366
      10 -> 15         0.15819
      11 -> 15         0.39488
      11 -> 17         0.12849
      11 -> 19        -0.17919
      12 -> 15         0.10712
      12 -> 16         0.23867
      12 -> 17         0.15839
      12 -> 18         0.11104

 Excited State  15:      Singlet-A     10.2929 eV  120.46 nm  f=0.0062  <S**2>=0.000
       7 -> 16        -0.12238
      10 -> 16         0.58938
      11 -> 16        -0.19613
      13 -> 16        -0.11243
      13 -> 18        -0.11844
      13 -> 19         0.15992

 The electronic state is 1-A.
 Alpha  occ. eigenvalues --   -1.84425  -1.12672  -0.87672  -0.78936  -0.74478
 Alpha  occ. eigenvalues --   -0.66659  -0.62991  -0.54570  -0.53890  -0.44519
 Alpha  occ. eigenvalues --   -0.43853  -0.40859  -0.28222
 Alpha virt. eigenvalues --    0.09671   0.16101   0.18244   0.25433   0.28574
 Alpha virt. eigenvalues --    0.30376   0.36852   0.41357   0.47608   0.55731
 Alpha virt. eigenvalues --    0.58932

 Mulliken charges:
               1
     1  C   -0.210642
     2  C   -2.001020
     3  O    3.429985
     4  C   -1.954350
     5  C   -0.182076
     6  H    0.182806
     7  H    0.260697
     8  H    0.281196
     9  H    0.193405
 Sum of Mulliken charges =   0.00000

 Dipole moment (field-independent basis, Debye):
    X=              2.9135    Y=            -11.6255    Z=             -0.5731  Tot=             11.9987
 N-N= 1.040012787297D+02 E-N=-1.697252301295D+02  KE=-1.434537345086D+01
 Orbital energies and kinetic energies (alpha):
                                 1                 2
   1         O                -1.844248         -1.240113
   2         O                -1.126724         -0.972411
   3         O                -0.876719         -0.805497
   4         O                -0.789365         -0.521964
   5         O                -0.744776         -0.621378
   6         O                -0.666587         -0.529893
   7         O                -0.629911         -0.500279

 Normal termination of Gaussian 09 at Tue Dec 15 17:07:49 2015.
