 Gaussian 09, Revision D.01,
 Gaussian 09:  ES64L-G09RevD.01 24-Apr-2013

 ------------------------------------------------------------
 #P AM1(Input,print) CIS(Singlets,NStates=15) pop(full) force
 ------------------------------------------------------------

 -----------------
 AM1-Reparam Input
 -----------------
 Symbolic Z-matrix:
 Charge =  0 Multiplicity = 1

                         Standard orientation:
 ---------------------------------------------------------------------
 Center     Atomic      Atomic             Coordinates (Angstroms)
 Number     Number       Type             X           Y           Z
 ---------------------------------------------------------------------
      1          6           0       -1.115220    0.506248    0.010032
      2          6           0       -0.781567   -0.769679   -0.008981
      3          8           0        0.554626   -1.039254   -0.005218
      4          6           0        1.133608    0.197050    0.015542
      5          6           0        0.174769    1.171781   -0.010840
      6          1           0        0.351075    2.265793    0.005408
      7          1           0        2.262143    0.197772   -0.014644
      8          1           0       -1.455427   -1.702582    0.031262
      9          1           0       -2.064344    0.920648   -0.014796
 ---------------------------------------------------------------------

 SCF Done:  E(RAM1) =  0.223096884830E-01 A.U. after   13 cycles

 Excitation energies and oscillator strengths:

 Excited State   1:      Singlet-A      4.5223 eV  274.16 nm  f=0.0777  <S**2>=0.000
      12 -> 15         0.20142
      13 -> 14         0.67060
 This state for optimization and/or second-order correction.
 Total Energy, E(CIS) =  0.188500478639
 Copying the excited state density for this state as the 1-particle RhoCI density.

 Excited State   2:      Singlet-A      5.1291 eV  241.73 nm  f=0.0068  <S**2>=0.000
      12 -> 14        -0.35508
      13 -> 15         0.50997
      13 -> 16        -0.31355

 Excited State   3:      Singlet-A      5.2011 eV  238.38 nm  f=0.0018  <S**2>=0.000
      12 -> 14        -0.20554
      13 -> 15         0.25839
      13 -> 16         0.59612
      13 -> 19        -0.10204
      13 -> 22         0.12754

 Excited State   4:      Singlet-A      5.8749 eV  211.04 nm  f=0.0012  <S**2>=0.000
      12 -> 16         0.11589
      12 -> 18         0.12174
      12 -> 21         0.13820
      13 -> 17         0.23017
      13 -> 18         0.46057
      13 -> 19         0.16100
      13 -> 21         0.20736
      13 -> 22         0.15019
      13 -> 23        -0.20969
      13 -> 24        -0.10987

 Excited State   5:      Singlet-A      6.0611 eV  204.56 nm  f=0.0023  <S**2>=0.000
       7 -> 16        -0.16067
      12 -> 16         0.57303
      12 -> 18        -0.16359
      12 -> 19        -0.10390
      12 -> 22         0.14923
      13 -> 19        -0.15659
      13 -> 21        -0.13551

 Excited State   6:      Singlet-A      6.1978 eV  200.05 nm  f=0.0014  <S**2>=0.000
      12 -> 16        -0.22411
      12 -> 18        -0.12312
      12 -> 21         0.12780
      13 -> 17        -0.30619
      13 -> 18         0.36527
      13 -> 19        -0.26120
      13 -> 20         0.14818
      13 -> 21        -0.17886

 Excited State   7:      Singlet-A      6.2887 eV  197.16 nm  f=0.3199  <S**2>=0.000
      12 -> 14         0.50147
      12 -> 15         0.25714
      13 -> 15         0.35646

 Excited State   8:      Singlet-A      6.3841 eV  194.21 nm  f=0.0041  <S**2>=0.000
      11 -> 14        -0.12112
      12 -> 18        -0.14196
      12 -> 19         0.18594
      13 -> 17         0.49932
      13 -> 18        -0.10090
      13 -> 19        -0.12849
      13 -> 21        -0.26981
      13 -> 22        -0.11387
      13 -> 23        -0.13419

 Excited State   9:      Singlet-A      6.4509 eV  192.20 nm  f=0.1996  <S**2>=0.000
      12 -> 14        -0.19493
      12 -> 15         0.60610
      13 -> 14        -0.17775
      13 -> 15        -0.16230

 Excited State  10:      Singlet-A      6.8796 eV  180.22 nm  f=0.0002  <S**2>=0.000
      12 -> 17         0.42290
      12 -> 18        -0.31011
      12 -> 20        -0.15181
      13 -> 19         0.35166
      13 -> 22        -0.13209

 Excited State  11:      Singlet-A      7.1724 eV  172.86 nm  f=0.0022  <S**2>=0.000
       9 -> 14        -0.18678
      11 -> 14         0.46478
      11 -> 15        -0.39617
      12 -> 17        -0.12638
      13 -> 17         0.10939

 Excited State  12:      Singlet-A      7.2856 eV  170.18 nm  f=0.0019  <S**2>=0.000
       9 -> 14         0.14913
      10 -> 14         0.56440
      10 -> 15         0.28019
      12 -> 19        -0.11655
      13 -> 22        -0.11565

 Excited State  13:      Singlet-A      7.3650 eV  168.34 nm  f=0.0011  <S**2>=0.000
      11 -> 14        -0.22285
      12 -> 17        -0.23506
      12 -> 20         0.31746
      12 -> 21         0.13224
      12 -> 23         0.17758
      13 -> 16         0.11262
      13 -> 19         0.35566
      13 -> 20         0.18920
      13 -> 22        -0.16199

 Excited State  14:      Singlet-A      7.4411 eV  166.62 nm  f=0.0011  <S**2>=0.000
      10 -> 14         0.18472
      10 -> 15         0.10373
      12 -> 17        -0.10656
      12 -> 18        -0.29642
      12 -> 19         0.18510
      12 -> 22         0.11568
      13 -> 17        -0.12410
      13 -> 18        -0.20199
      13 -> 22         0.40442
      13 -> 23        -0.11180
      13 -> 24        -0.12768

 Excited State  15:      Singlet-A      7.5611 eV  163.98 nm  f=0.0109  <S**2>=0.000
       9 -> 14         0.18254
      11 -> 14         0.15976
      11 -> 15         0.22611
      12 -> 19         0.23062
      13 -> 20         0.41829
      13 -> 21         0.20026
      13 -> 23         0.24371
      13 -> 24        -0.13311

 The electronic state is 1-A.
 Alpha  occ. eigenvalues --   -1.56594  -1.24240  -1.08846  -0.82415  -0.80348
 Alpha  occ. eigenvalues --   -0.67889  -0.60208  -0.55708  -0.51680  -0.50467
 Alpha  occ. eigenvalues --   -0.48455  -0.39448  -0.34878
 Alpha virt. eigenvalues --    0.03411   0.06472   0.09890   0.12975   0.14610
 Alpha virt. eigenvalues --    0.15000   0.17467   0.18606   0.18650   0.20730
 Alpha virt. eigenvalues --    0.22432

 Mulliken charges:
               1
     1  C   -0.189947
     2  C   -0.106299
     3  O   -0.075298
     4  C   -0.113799
     5  C   -0.211732
     6  H    0.159307
     7  H    0.194011
     8  H    0.181394
     9  H    0.162361
 Sum of Mulliken charges =   0.00000

 Dipole moment (field-independent basis, Debye):
    X=             -0.1433    Y=              0.3209    Z=              0.0021  Tot=              0.3514
 N-N= 1.033099034550D+02 E-N=-1.708296595805D+02  KE=-1.652200523937D+01
 Orbital energies and kinetic energies (alpha):
                                 1                 2
   1         O                -1.565941         -1.314955
   2         O                -1.242405         -1.054623
   3         O                -1.088462         -0.950734
   4         O                -0.824155         -0.702091
   5         O                -0.803476         -0.717240
   6         O                -0.678887         -0.600580
   7         O                -0.602080         -0.487946

 Normal termination of Gaussian 09 at Tue Dec 15 16:12:07 2015.
