 Gaussian 09, Revision D.01,
 Gaussian 09:  ES64L-G09RevD.01 24-Apr-2013

 ------------------------------------------------------------
 #P AM1(Input,print) CIS(Singlets,NStates=15) pop(full) force
 ------------------------------------------------------------

 -----------------
 AM1-Reparam Input
 -----------------
 Symbolic Z-matrix:
 Charge =  0 Multiplicity = 1

                         Standard orientation:
 ---------------------------------------------------------------------
 Center     Atomic      Atomic             Coordinates (Angstroms)
 Number     Number       Type             X           Y           Z
 ---------------------------------------------------------------------
      1          6           0        0.476524    1.086467    0.033147
      2          6           0        1.157561   -0.080477   -0.016795
      3          8           0        0.259620   -1.161541   -0.013717
      4          6           0       -0.983331   -0.547575    0.051192
      5          6           0       -0.933816    0.784504   -0.032855
      6          1           0       -1.724804    1.440999   -0.075685
      7          1           0       -1.811747   -1.292232   -0.027602
      8          1           0        2.184792   -0.385207   -0.014027
      9          1           0        0.973178    2.071253    0.018917
 ---------------------------------------------------------------------

 SCF Done:  E(RAM1) =   2.13776163227     A.U. after   13 cycles

 Excitation energies and oscillator strengths:

 Excited State   1:      Singlet-A      5.3604 eV  231.30 nm  f=0.3407  <S**2>=0.000
      13 -> 14         0.69485
 This state for optimization and/or second-order correction.
 Total Energy, E(CIS) =   2.33475351204
 Copying the excited state density for this state as the 1-particle RhoCI density.

 Excited State   2:      Singlet-A      6.0476 eV  205.01 nm  f=0.0005  <S**2>=0.000
      11 -> 15        -0.10499
      13 -> 15         0.68000

 Excited State   3:      Singlet-A      6.5147 eV  190.31 nm  f=0.0013  <S**2>=0.000
      11 -> 16         0.10085
      13 -> 16         0.67038
      13 -> 17        -0.11012

 Excited State   4:      Singlet-A      7.2225 eV  171.66 nm  f=0.0005  <S**2>=0.000
      12 -> 14         0.69836

 Excited State   5:      Singlet-A      7.9877 eV  155.22 nm  f=0.0078  <S**2>=0.000
      10 -> 14        -0.13468
      11 -> 14        -0.11137
      13 -> 17         0.48059
      13 -> 18        -0.34068
      13 -> 20        -0.19340
      13 -> 22        -0.24894

 Excited State   6:      Singlet-A      8.1703 eV  151.75 nm  f=0.0087  <S**2>=0.000
      10 -> 14         0.43420
      11 -> 14         0.32987
      13 -> 17        -0.17570
      13 -> 18        -0.33300
      13 -> 20        -0.11601
      13 -> 22        -0.15934

 Excited State   7:      Singlet-A      8.3330 eV  148.79 nm  f=0.0091  <S**2>=0.000
      10 -> 14         0.31326
      11 -> 14         0.25433
      13 -> 16         0.10042
      13 -> 17         0.44746
      13 -> 18         0.28832
      13 -> 22         0.14279

 Excited State   8:      Singlet-A      8.8968 eV  139.36 nm  f=0.0281  <S**2>=0.000
      10 -> 14        -0.36731
      11 -> 14         0.45473
      12 -> 15        -0.11687
      13 -> 19         0.33056

 Excited State   9:      Singlet-A      8.9604 eV  138.37 nm  f=0.0059  <S**2>=0.000
      11 -> 14         0.10696
      13 -> 18        -0.25262
      13 -> 20         0.61210

 Excited State  10:      Singlet-A      9.4883 eV  130.67 nm  f=0.0966  <S**2>=0.000
       9 -> 15        -0.16892
      12 -> 15         0.52746
      12 -> 16        -0.21129
      12 -> 18         0.13979
      13 -> 21         0.16167

 Excited State  11:      Singlet-A      9.5423 eV  129.93 nm  f=0.0094  <S**2>=0.000
      12 -> 15         0.11339
      13 -> 18        -0.32207
      13 -> 21        -0.24176
      13 -> 22         0.54196

 Excited State  12:      Singlet-A      9.6754 eV  128.14 nm  f=0.1274  <S**2>=0.000
      10 -> 14         0.16282
      11 -> 14        -0.24180
      13 -> 19         0.58609
      13 -> 20         0.12694
      13 -> 21         0.15629

 Excited State  13:      Singlet-A      9.8340 eV  126.08 nm  f=0.0884  <S**2>=0.000
      12 -> 15        -0.13109
      13 -> 19        -0.10290
      13 -> 20        -0.11778
      13 -> 21         0.58079
      13 -> 22         0.28095

 Excited State  14:      Singlet-A      9.9585 eV  124.50 nm  f=0.0341  <S**2>=0.000
      10 -> 15        -0.10125
      11 -> 15         0.49089
      11 -> 17        -0.10800
      12 -> 15        -0.14181
      12 -> 16        -0.34135
      12 -> 18         0.14254
      13 -> 15         0.10872

 Excited State  15:      Singlet-A     10.1227 eV  122.48 nm  f=0.0718  <S**2>=0.000
      10 -> 15        -0.18471
      10 -> 16         0.13940
      11 -> 15         0.30532
      12 -> 15         0.13160
      12 -> 16         0.49580
      12 -> 17        -0.11543

 The electronic state is 1-A.
 Alpha  occ. eigenvalues --   -1.92420  -1.18863  -0.92477  -0.80108  -0.78187
 Alpha  occ. eigenvalues --   -0.69024  -0.64729  -0.54092  -0.53021  -0.44160
 Alpha  occ. eigenvalues --   -0.43503  -0.40636  -0.27542
 Alpha virt. eigenvalues --    0.12685   0.17140   0.19109   0.26832   0.29011
 Alpha virt. eigenvalues --    0.29925   0.30669   0.32356   0.33673   0.38881
 Alpha virt. eigenvalues --    0.41975

 Mulliken charges:
               1
     1  C   -0.142036
     2  C   -1.851481
     3  O    3.195506
     4  C   -1.848621
     5  C   -0.155490
     6  H    0.152200
     7  H    0.250521
     8  H    0.247065
     9  H    0.152336
 Sum of Mulliken charges =   0.00000

 Dipole moment (field-independent basis, Debye):
    X=              2.3387    Y=            -11.5746    Z=             -0.5776  Tot=             11.8226
 N-N= 1.036924319836D+02 E-N=-1.686391753067D+02  KE=-1.529492027560D+01
 Orbital energies and kinetic energies (alpha):
                                 1                 2
   1         O                -1.924202         -1.330190
   2         O                -1.188630         -1.059506
   3         O                -0.924773         -0.888095
   4         O                -0.801075         -0.571636
   5         O                -0.781866         -0.673446
   6         O                -0.690245         -0.592950
   7         O                -0.647293         -0.527016

 Normal termination of Gaussian 09 at Tue Dec 15 17:08:49 2015.
