 Gaussian 09, Revision D.01,
 Gaussian 09:  ES64L-G09RevD.01 24-Apr-2013

 ------------------------------------------------------------
 #P AM1(Input,print) CIS(Singlets,NStates=15) pop(full) force
 ------------------------------------------------------------

 -----------------
 AM1-Reparam Input
 -----------------
 Symbolic Z-matrix:
 Charge =  0 Multiplicity = 1

                         Standard orientation:
 ---------------------------------------------------------------------
 Center     Atomic      Atomic             Coordinates (Angstroms)
 Number     Number       Type             X           Y           Z
 ---------------------------------------------------------------------
      1          6           0        0.476524    1.086467    0.033147
      2          6           0        1.157561   -0.080477   -0.016795
      3          8           0        0.259620   -1.161541   -0.013717
      4          6           0       -0.983331   -0.547575    0.051192
      5          6           0       -0.933816    0.784504   -0.032855
      6          1           0       -1.724804    1.440999   -0.075685
      7          1           0       -1.811747   -1.292232   -0.027602
      8          1           0        2.184792   -0.385207   -0.014027
      9          1           0        0.973178    2.071253    0.018917
 ---------------------------------------------------------------------

 SCF Done:  E(RAM1) =   2.85159552902     A.U. after   13 cycles

 Excitation energies and oscillator strengths:

 Excited State   1:      Singlet-A      5.1663 eV  239.99 nm  f=0.3307  <S**2>=0.000
      13 -> 14         0.69498
 This state for optimization and/or second-order correction.
 Total Energy, E(CIS) =   3.04145467383
 Copying the excited state density for this state as the 1-particle RhoCI density.

 Excited State   2:      Singlet-A      6.0472 eV  205.03 nm  f=0.0005  <S**2>=0.000
      11 -> 15         0.12037
      13 -> 15         0.66705
      13 -> 17         0.11797
      13 -> 18         0.12796

 Excited State   3:      Singlet-A      6.4868 eV  191.13 nm  f=0.0019  <S**2>=0.000
      11 -> 16        -0.11364
      13 -> 16         0.64484
      13 -> 17         0.16080
      13 -> 18        -0.17607

 Excited State   4:      Singlet-A      6.7634 eV  183.32 nm  f=0.0003  <S**2>=0.000
      12 -> 14         0.69342

 Excited State   5:      Singlet-A      7.5655 eV  163.88 nm  f=0.0152  <S**2>=0.000
      10 -> 14         0.13251
      13 -> 15        -0.14509
      13 -> 17         0.50062
      13 -> 18         0.33383
      13 -> 20        -0.15474
      13 -> 21         0.23767

 Excited State   6:      Singlet-A      7.7873 eV  159.21 nm  f=0.0110  <S**2>=0.000
      10 -> 14         0.36054
      11 -> 14        -0.14953
      13 -> 16        -0.17516
      13 -> 17         0.29276
      13 -> 18        -0.35512
      13 -> 20         0.20070
      13 -> 21        -0.20807

 Excited State   7:      Singlet-A      7.9053 eV  156.84 nm  f=0.0081  <S**2>=0.000
      10 -> 14         0.51102
      11 -> 14        -0.23473
      13 -> 16         0.10038
      13 -> 17        -0.33854
      13 -> 18         0.15036
      13 -> 21         0.12649

 Excited State   8:      Singlet-A      8.4247 eV  147.17 nm  f=0.0010  <S**2>=0.000
      13 -> 18         0.32341
      13 -> 19         0.51505
      13 -> 20         0.25774
      13 -> 21        -0.20399

 Excited State   9:      Singlet-A      8.5925 eV  144.29 nm  f=0.0796  <S**2>=0.000
      10 -> 14         0.27424
      11 -> 14         0.61045
      12 -> 15         0.11857

 Excited State  10:      Singlet-A      8.9556 eV  138.44 nm  f=0.0096  <S**2>=0.000
      13 -> 18        -0.27505
      13 -> 19         0.45708
      13 -> 20        -0.27868
      13 -> 21         0.35005

 Excited State  11:      Singlet-A      9.1728 eV  135.17 nm  f=0.0936  <S**2>=0.000
       8 -> 15        -0.15392
      10 -> 17         0.14160
      12 -> 15         0.49508
      12 -> 16        -0.23060
      12 -> 18         0.19344
      13 -> 20         0.10760
      13 -> 21         0.14109

 Excited State  12:      Singlet-A      9.3850 eV  132.11 nm  f=0.0951  <S**2>=0.000
      12 -> 15        -0.16490
      13 -> 20         0.51306
      13 -> 21         0.42241

 Excited State  13:      Singlet-A      9.6498 eV  128.48 nm  f=0.0609  <S**2>=0.000
      10 -> 17        -0.12825
      11 -> 15         0.39710
      11 -> 17         0.11881
      12 -> 15         0.25169
      12 -> 16         0.34345
      12 -> 18        -0.15457
      12 -> 19         0.13899
      12 -> 21        -0.10573

 Excited State  14:      Singlet-A      9.8121 eV  126.36 nm  f=0.0586  <S**2>=0.000
      10 -> 15        -0.11303
      10 -> 16         0.15019
      11 -> 15        -0.39443
      12 -> 15         0.12300
      12 -> 16         0.44404
      12 -> 17         0.13297

 Excited State  15:      Singlet-A      9.8336 eV  126.08 nm  f=0.1500  <S**2>=0.000
       8 -> 15         0.11114
       9 -> 16         0.10336
      10 -> 15         0.22655
      10 -> 16         0.21459
      10 -> 17         0.23230
      11 -> 15         0.29105
      12 -> 15        -0.15862
      12 -> 16         0.17055
      12 -> 17         0.23812
      12 -> 18         0.10814
      12 -> 19        -0.19620

 The electronic state is 1-A.
 Alpha  occ. eigenvalues --   -1.69764  -1.11400  -0.91134  -0.78627  -0.74600
 Alpha  occ. eigenvalues --   -0.66057  -0.62148  -0.52069  -0.49733  -0.42869
 Alpha  occ. eigenvalues --   -0.42015  -0.39076  -0.26846
 Alpha virt. eigenvalues --    0.12549   0.17682   0.19637   0.26008   0.28375
 Alpha virt. eigenvalues --    0.29566   0.31172   0.31996   0.34892   0.44515
 Alpha virt. eigenvalues --    0.47444

 Mulliken charges:
               1
     1  C   -0.129774
     2  C   -1.915864
     3  O    3.196677
     4  C   -1.911748
     5  C   -0.145727
     6  H    0.172661
     7  H    0.281974
     8  H    0.280413
     9  H    0.171386
 Sum of Mulliken charges =   0.00000

 Dipole moment (field-independent basis, Debye):
    X=              2.2711    Y=            -11.2651    Z=             -0.5938  Tot=             11.5071
 N-N= 1.034955395395D+02 E-N=-1.684296188274D+02  KE=-1.473152041934D+01
 Orbital energies and kinetic energies (alpha):
                                 1                 2
   1         O                -1.697641         -1.175383
   2         O                -1.113999         -0.994152
   3         O                -0.911344         -0.850208
   4         O                -0.786267         -0.597111
   5         O                -0.746003         -0.666978
   6         O                -0.660572         -0.568449
   7         O                -0.621475         -0.519173

 Normal termination of Gaussian 09 at Tue Dec 15 17:06:07 2015.
