 Gaussian 09, Revision D.01,
 Gaussian 09:  ES64L-G09RevD.01 24-Apr-2013

 ------------------------------------------------------------
 #P AM1(Input,print) CIS(Singlets,NStates=15) pop(full) force
 ------------------------------------------------------------

 -----------------
 AM1-Reparam Input
 -----------------
 Symbolic Z-matrix:
 Charge =  0 Multiplicity = 1

                         Standard orientation:
 ---------------------------------------------------------------------
 Center     Atomic      Atomic             Coordinates (Angstroms)
 Number     Number       Type             X           Y           Z
 ---------------------------------------------------------------------
      1          6           0       -0.758455    0.927988   -0.011958
      2          6           0       -1.090365   -0.318593    0.029877
      3          8           0        0.016607   -1.170386   -0.037171
      4          6           0        1.068205   -0.332823    0.042094
      5          6           0        0.758371    0.984817   -0.009150
      6          1           0        1.365174    1.773344   -0.016099
      7          1           0        2.037449   -0.902824   -0.007160
      8          1           0       -2.057556   -0.851726    0.034843
      9          1           0       -1.344462    1.775963   -0.019400
 ---------------------------------------------------------------------

 SCF Done:  E(RAM1) =  0.334552477745E-01 A.U. after   13 cycles

 Excitation energies and oscillator strengths:

 Excited State   1:      Singlet-A      4.6936 eV  264.16 nm  f=0.0584  <S**2>=0.000
      12 -> 15         0.23253
      13 -> 14         0.65958
 This state for optimization and/or second-order correction.
 Total Energy, E(CIS) =  0.205940145423
 Copying the excited state density for this state as the 1-particle RhoCI density.

 Excited State   2:      Singlet-A      5.2916 eV  234.30 nm  f=0.0065  <S**2>=0.000
      12 -> 14        -0.41976
      13 -> 15         0.56135

 Excited State   3:      Singlet-A      5.4650 eV  226.87 nm  f=0.0002  <S**2>=0.000
      13 -> 16         0.67163
      13 -> 19         0.12669

 Excited State   4:      Singlet-A      5.9083 eV  209.85 nm  f=0.0047  <S**2>=0.000
      12 -> 16        -0.13555
      12 -> 18         0.13034
      12 -> 21         0.14462
      13 -> 17        -0.20027
      13 -> 18         0.49381
      13 -> 19        -0.10209
      13 -> 21         0.29741
      13 -> 23        -0.11207
      13 -> 24         0.10424

 Excited State   5:      Singlet-A      5.9905 eV  206.97 nm  f=0.0018  <S**2>=0.000
       7 -> 16        -0.15741
      12 -> 16         0.62204
      12 -> 18         0.16153
      12 -> 22         0.11042
      13 -> 21         0.11272

 Excited State   6:      Singlet-A      6.1785 eV  200.67 nm  f=0.1076  <S**2>=0.000
      12 -> 14         0.33935
      12 -> 15         0.37413
      13 -> 14        -0.10874
      13 -> 15         0.22506
      13 -> 17        -0.30420
      13 -> 18        -0.13393

 Excited State   7:      Singlet-A      6.2535 eV  198.26 nm  f=0.0517  <S**2>=0.000
      12 -> 14         0.21407
      12 -> 15         0.25520
      13 -> 15         0.14583
      13 -> 17         0.52036
      13 -> 18         0.10948
      13 -> 20         0.10941
      13 -> 23        -0.11843

 Excited State   8:      Singlet-A      6.3969 eV  193.82 nm  f=0.3250  <S**2>=0.000
      12 -> 14        -0.33580
      12 -> 15         0.46294
      13 -> 14        -0.17152
      13 -> 15        -0.29525

 Excited State   9:      Singlet-A      6.5200 eV  190.16 nm  f=0.0009  <S**2>=0.000
      12 -> 18         0.15730
      12 -> 19        -0.29362
      12 -> 21        -0.22398
      12 -> 23        -0.17150
      12 -> 24         0.12869
      13 -> 19         0.37244
      13 -> 21         0.28446
      13 -> 23         0.13792

 Excited State  10:      Singlet-A      6.7839 eV  182.76 nm  f=0.0053  <S**2>=0.000
      12 -> 17         0.60060
      12 -> 18        -0.17239
      12 -> 20         0.14342
      13 -> 17        -0.13801
      13 -> 18         0.10959
      13 -> 19         0.11761

 Excited State  11:      Singlet-A      7.0896 eV  174.88 nm  f=0.0058  <S**2>=0.000
      10 -> 14         0.31329
      10 -> 15         0.10909
      11 -> 14         0.45841
      11 -> 15         0.37225

 Excited State  12:      Singlet-A      7.2915 eV  170.04 nm  f=0.0053  <S**2>=0.000
      11 -> 14         0.19358
      11 -> 15        -0.13976
      12 -> 19         0.21596
      12 -> 20        -0.19514
      12 -> 23         0.11126
      13 -> 16        -0.11212
      13 -> 18         0.19195
      13 -> 19         0.35568
      13 -> 20        -0.30358
      13 -> 21        -0.15145
      13 -> 24         0.11160

 Excited State  13:      Singlet-A      7.4832 eV  165.68 nm  f=0.0006  <S**2>=0.000
       9 -> 14        -0.10771
       9 -> 15         0.10605
      10 -> 14         0.14743
      10 -> 15        -0.12997
      11 -> 14        -0.38900
      11 -> 15         0.45123
      13 -> 19         0.16466
      13 -> 20        -0.13879

 Excited State  14:      Singlet-A      7.5844 eV  163.47 nm  f=0.0015  <S**2>=0.000
      10 -> 14         0.15070
      12 -> 18        -0.24406
      12 -> 19         0.22894
      12 -> 24         0.14557
      13 -> 18        -0.22033
      13 -> 21         0.35543
      13 -> 22        -0.25829
      13 -> 23        -0.11116
      13 -> 24         0.17227

 Excited State  15:      Singlet-A      7.7141 eV  160.72 nm  f=0.0039  <S**2>=0.000
       8 -> 15         0.13016
       9 -> 14         0.34708
       9 -> 15        -0.19820
      10 -> 14         0.42276
      10 -> 15         0.13639
      11 -> 14        -0.18432
      11 -> 15        -0.13335
      13 -> 21        -0.11370

 The electronic state is 1-A.
 Alpha  occ. eigenvalues --   -1.56102  -1.23920  -1.10792  -0.83421  -0.80258
 Alpha  occ. eigenvalues --   -0.68468  -0.59969  -0.56445  -0.52015  -0.51053
 Alpha  occ. eigenvalues --   -0.48324  -0.39395  -0.35698
 Alpha virt. eigenvalues --    0.03603   0.06092   0.10168   0.12497   0.14570
 Alpha virt. eigenvalues --    0.15734   0.17624   0.18636   0.19349   0.21006
 Alpha virt. eigenvalues --    0.22283

 Mulliken charges:
               1
     1  C   -0.188631
     2  C   -0.092387
     3  O   -0.100242
     4  C   -0.084729
     5  C   -0.212997
     6  H    0.160135
     7  H    0.181311
     8  H    0.182996
     9  H    0.154543
 Sum of Mulliken charges =   0.00000

 Dipole moment (field-independent basis, Debye):
    X=             -0.0181    Y=              0.3359    Z=             -0.0095  Tot=              0.3365
 N-N= 1.034584582733D+02 E-N=-1.709671232567D+02  KE=-1.656569126553D+01
 Orbital energies and kinetic energies (alpha):
                                 1                 2
   1         O                -1.561020         -1.312525
   2         O                -1.239202         -1.050669
   3         O                -1.107921         -0.966597
   4         O                -0.834206         -0.713978
   5         O                -0.802583         -0.718972
   6         O                -0.684676         -0.604248
   7         O                -0.599691         -0.486440

 Normal termination of Gaussian 09 at Tue Dec 15 16:10:33 2015.
