 Gaussian 09, Revision D.01,
 Gaussian 09:  ES64L-G09RevD.01 24-Apr-2013

 ------------------------------------------------------------
 #P AM1(Input,print) CIS(Singlets,NStates=15) pop(full) force
 ------------------------------------------------------------

 -----------------
 AM1-Reparam Input
 -----------------
 Symbolic Z-matrix:
 Charge =  0 Multiplicity = 1

                         Standard orientation:
 ---------------------------------------------------------------------
 Center     Atomic      Atomic             Coordinates (Angstroms)
 Number     Number       Type             X           Y           Z
 ---------------------------------------------------------------------
      1          6           0        0.225668    1.175268    0.009621
      2          6           0        1.134246    0.127333   -0.014697
      3          8           0        0.512387   -1.068016    0.009717
      4          6           0       -0.839463   -0.714196   -0.009019
      5          6           0       -1.062685    0.545460   -0.011297
      6          1           0       -1.968830    1.034051    0.041291
      7          1           0       -1.511663   -1.649770    0.015622
      8          1           0        2.190800    0.169636    0.015316
      9          1           0        0.443995    2.187015    0.002382
 ---------------------------------------------------------------------

 SCF Done:  E(RAM1) =   2.09506091214     A.U. after   13 cycles

 Excitation energies and oscillator strengths:

 Excited State   1:      Singlet-A      5.3046 eV  233.73 nm  f=0.3446  <S**2>=0.000
      13 -> 14         0.69600
 This state for optimization and/or second-order correction.
 Total Energy, E(CIS) =   2.29000102723
 Copying the excited state density for this state as the 1-particle RhoCI density.

 Excited State   2:      Singlet-A      6.4680 eV  191.69 nm  f=0.0008  <S**2>=0.000
      13 -> 15         0.65206
      13 -> 18         0.20776

 Excited State   3:      Singlet-A      6.6472 eV  186.52 nm  f=0.0077  <S**2>=0.000
      13 -> 15         0.12246
      13 -> 16         0.63335
      13 -> 17         0.21129
      13 -> 18        -0.13989

 Excited State   4:      Singlet-A      6.7443 eV  183.84 nm  f=0.0004  <S**2>=0.000
      12 -> 14         0.69472

 Excited State   5:      Singlet-A      7.8310 eV  158.32 nm  f=0.0034  <S**2>=0.000
      13 -> 15        -0.13947
      13 -> 16         0.12236
      13 -> 18         0.49667
      13 -> 19         0.38805
      13 -> 20         0.15840
      13 -> 21         0.13301

 Excited State   6:      Singlet-A      7.8609 eV  157.72 nm  f=0.0084  <S**2>=0.000
      10 -> 14        -0.42434
      11 -> 14         0.55460

 Excited State   7:      Singlet-A      8.5349 eV  145.27 nm  f=0.0245  <S**2>=0.000
      13 -> 16        -0.14678
      13 -> 17         0.60793
      13 -> 18         0.10909
      13 -> 19        -0.23387

 Excited State   8:      Singlet-A      8.7951 eV  140.97 nm  f=0.0865  <S**2>=0.000
      10 -> 14         0.51957
      11 -> 14         0.39092
      12 -> 15        -0.18086

 Excited State   9:      Singlet-A      8.8744 eV  139.71 nm  f=0.0002  <S**2>=0.000
      13 -> 16        -0.14973
      13 -> 17         0.22208
      13 -> 18        -0.38227
      13 -> 19         0.50259

 Excited State  10:      Singlet-A      9.3638 eV  132.41 nm  f=0.1531  <S**2>=0.000
       8 -> 15        -0.11288
      10 -> 14         0.17054
      11 -> 14         0.14018
      11 -> 17         0.11025
      12 -> 15         0.42751
      12 -> 16        -0.25808
      12 -> 18         0.28163
      12 -> 19         0.16509

 Excited State  11:      Singlet-A      9.7345 eV  127.37 nm  f=0.0038  <S**2>=0.000
      13 -> 18        -0.13648
      13 -> 19        -0.14948
      13 -> 20         0.65930
      13 -> 21         0.10538

 Excited State  12:      Singlet-A      9.8491 eV  125.88 nm  f=0.0620  <S**2>=0.000
       9 -> 15        -0.11753
      10 -> 15         0.10183
      11 -> 15        -0.17677
      11 -> 17        -0.10521
      12 -> 15         0.45254
      12 -> 16         0.28303
      12 -> 17         0.11877
      12 -> 18        -0.16852
      12 -> 19        -0.18332

 Excited State  13:      Singlet-A      9.9835 eV  124.19 nm  f=0.0639  <S**2>=0.000
      13 -> 19        -0.11817
      13 -> 20        -0.14336
      13 -> 21         0.65829

 Excited State  14:      Singlet-A     10.0564 eV  123.29 nm  f=0.1079  <S**2>=0.000
      10 -> 16        -0.22631
      10 -> 17        -0.12360
      11 -> 16         0.31944
      11 -> 17         0.16482
      12 -> 16         0.42462
      12 -> 17         0.21061
      12 -> 19         0.18285

 Excited State  15:      Singlet-A     10.2538 eV  120.92 nm  f=0.0031  <S**2>=0.000
      10 -> 15         0.33021
      10 -> 16         0.33905
      10 -> 17         0.10723
      11 -> 15         0.37120
      11 -> 16         0.22791
      13 -> 15        -0.10154

 The electronic state is 1-A.
 Alpha  occ. eigenvalues --   -1.93496  -1.21213  -0.94998  -0.81961  -0.78930
 Alpha  occ. eigenvalues --   -0.68835  -0.64756  -0.53753  -0.52733  -0.43722
 Alpha  occ. eigenvalues --   -0.43444  -0.40086  -0.28069
 Alpha virt. eigenvalues --    0.12100   0.18187   0.20233   0.26984   0.28029
 Alpha virt. eigenvalues --    0.30386   0.32496   0.32644   0.35136   0.44679
 Alpha virt. eigenvalues --    0.47955

 Mulliken charges:
               1
     1  C   -0.261046
     2  C   -2.018795
     3  O    3.169270
     4  C   -1.952456
     5  C   -0.157948
     6  H    0.243050
     7  H    0.356280
     8  H    0.373042
     9  H    0.248603
 Sum of Mulliken charges =   0.00000

 Dipole moment (field-independent basis, Debye):
    X=              4.2775    Y=            -10.2112    Z=              0.4420  Tot=             11.0797
 N-N= 1.045772267906D+02 E-N=-1.701236422421D+02  KE=-1.552076924556D+01
 Orbital energies and kinetic energies (alpha):
                                 1                 2
   1         O                -1.934961         -1.378772
   2         O                -1.212133         -1.091474
   3         O                -0.949984         -0.886662
   4         O                -0.819607         -0.589790
   5         O                -0.789295         -0.669713
   6         O                -0.688354         -0.575186
   7         O                -0.647563         -0.526122

 Normal termination of Gaussian 09 at Tue Dec 15 17:07:13 2015.
