 Gaussian 09, Revision D.01,
 Gaussian 09:  ES64L-G09RevD.01 24-Apr-2013

 ------------------------------------------------------------
 #P AM1(Input,print) CIS(Singlets,NStates=15) pop(full) force
 ------------------------------------------------------------

 -----------------
 AM1-Reparam Input
 -----------------
 Symbolic Z-matrix:
 Charge =  0 Multiplicity = 1

                         Standard orientation:
 ---------------------------------------------------------------------
 Center     Atomic      Atomic             Coordinates (Angstroms)
 Number     Number       Type             X           Y           Z
 ---------------------------------------------------------------------
      1          6           0       -0.948388    0.813173   -0.020257
      2          6           0       -0.985423   -0.618480   -0.014085
      3          8           0        0.261296   -1.072863    0.015507
      4          6           0        1.185691   -0.120481   -0.012115
      5          6           0        0.485941    1.046557    0.028516
      6          1           0        0.912059    2.022266   -0.028832
      7          1           0        2.133718   -0.338212   -0.046274
      8          1           0       -1.858493   -1.254421    0.018396
      9          1           0       -1.704583    1.428654    0.040298
 ---------------------------------------------------------------------

 SCF Done:  E(RAM1) =   2.81817417346     A.U. after   13 cycles

 Excitation energies and oscillator strengths:

 Excited State   1:      Singlet-A      5.2772 eV  234.94 nm  f=0.3550  <S**2>=0.000
      13 -> 14         0.69538
 This state for optimization and/or second-order correction.
 Total Energy, E(CIS) =   3.01210629838
 Copying the excited state density for this state as the 1-particle RhoCI density.

 Excited State   2:      Singlet-A      6.4196 eV  193.13 nm  f=0.0011  <S**2>=0.000
       9 -> 14         0.14018
      12 -> 14         0.68204

 Excited State   3:      Singlet-A      6.6071 eV  187.65 nm  f=0.0130  <S**2>=0.000
      13 -> 15         0.64814
      13 -> 17         0.23663

 Excited State   4:      Singlet-A      7.0497 eV  175.87 nm  f=0.0035  <S**2>=0.000
      13 -> 16         0.62361
      13 -> 18         0.25554
      13 -> 19        -0.12660

 Excited State   5:      Singlet-A      7.7023 eV  160.97 nm  f=0.0004  <S**2>=0.000
      11 -> 15         0.12162
      13 -> 15        -0.14015
      13 -> 16         0.18467
      13 -> 17         0.30707
      13 -> 19         0.51886
      13 -> 20        -0.21712

 Excited State   6:      Singlet-A      7.8834 eV  157.27 nm  f=0.0038  <S**2>=0.000
       9 -> 14         0.16282
      10 -> 14         0.67199

 Excited State   7:      Singlet-A      8.3559 eV  148.38 nm  f=0.1252  <S**2>=0.000
      11 -> 14         0.69342

 Excited State   8:      Singlet-A      8.6112 eV  143.98 nm  f=0.0117  <S**2>=0.000
      11 -> 16        -0.14341
      13 -> 15        -0.15417
      13 -> 17         0.55118
      13 -> 19        -0.30861
      13 -> 20         0.17084

 Excited State   9:      Singlet-A      8.9514 eV  138.51 nm  f=0.0010  <S**2>=0.000
       9 -> 14         0.14972
      11 -> 15        -0.15631
      13 -> 16        -0.17928
      13 -> 18         0.56268
      13 -> 19         0.20006
      13 -> 20         0.17849

 Excited State  10:      Singlet-A      9.2319 eV  134.30 nm  f=0.0032  <S**2>=0.000
       9 -> 14         0.61325
      10 -> 14        -0.14670
      12 -> 14        -0.15096
      13 -> 19        -0.15304
      13 -> 20        -0.17403

 Excited State  11:      Singlet-A      9.3039 eV  133.26 nm  f=0.0145  <S**2>=0.000
       9 -> 16        -0.17334
       9 -> 18        -0.10776
      10 -> 15        -0.14668
      10 -> 16        -0.13289
      10 -> 17        -0.11497
      12 -> 15         0.47489
      12 -> 16         0.12775
      12 -> 17         0.25394
      12 -> 19         0.19576

 Excited State  12:      Singlet-A      9.4068 eV  131.80 nm  f=0.0122  <S**2>=0.000
       9 -> 14         0.19353
      13 -> 18        -0.27314
      13 -> 19         0.18590
      13 -> 20         0.54892
      13 -> 21         0.16160

 Excited State  13:      Singlet-A      9.5525 eV  129.79 nm  f=0.0864  <S**2>=0.000
      10 -> 15         0.18905
      10 -> 17         0.12109
      12 -> 15         0.15579
      12 -> 16         0.52619
      12 -> 17        -0.10035
      12 -> 18         0.16748
      12 -> 19        -0.23359

 Excited State  14:      Singlet-A      9.8095 eV  126.39 nm  f=0.0789  <S**2>=0.000
      12 -> 15        -0.14891
      12 -> 16         0.16032
      13 -> 20        -0.15896
      13 -> 21         0.61692

 Excited State  15:      Singlet-A      9.8467 eV  125.91 nm  f=0.1150  <S**2>=0.000
      10 -> 15         0.30524
      12 -> 15         0.36268
      12 -> 16        -0.30907
      12 -> 18        -0.11285
      12 -> 19        -0.25481
      13 -> 21         0.22633

 The electronic state is 1-A.
 Alpha  occ. eigenvalues --   -1.73780  -1.11367  -0.94752  -0.80756  -0.76039
 Alpha  occ. eigenvalues --   -0.67917  -0.64661  -0.57199  -0.49953  -0.46299
 Alpha  occ. eigenvalues --   -0.44411  -0.41150  -0.30908
 Alpha virt. eigenvalues --    0.08716   0.17671   0.19515   0.23327   0.25724
 Alpha virt. eigenvalues --    0.26229   0.27814   0.29246   0.39523   0.47238
 Alpha virt. eigenvalues --    0.53363

 Mulliken charges:
               1
     1  C   -0.122258
     2  C   -2.026996
     3  O    3.240329
     4  C   -1.971604
     5  C   -0.137568
     6  H    0.192158
     7  H    0.310752
     8  H    0.330453
     9  H    0.184734
 Sum of Mulliken charges =   0.00000

 Dipole moment (field-independent basis, Debye):
    X=              1.9065    Y=             -8.6031    Z=              0.3878  Tot=              8.8204
 N-N= 1.043602285806D+02 E-N=-1.694748275008D+02  KE=-1.482539422322D+01
 Orbital energies and kinetic energies (alpha):
                                 1                 2
   1         O                -1.737801         -1.243459
   2         O                -1.113673         -0.972776
   3         O                -0.947521         -0.848579
   4         O                -0.807564         -0.608408
   5         O                -0.760391         -0.692287
   6         O                -0.679171         -0.575559
   7         O                -0.646612         -0.516075

 Normal termination of Gaussian 09 at Tue Dec 15 17:05:58 2015.
