 Gaussian 09, Revision D.01,
 Gaussian 09:  ES64L-G09RevD.01 24-Apr-2013

 ------------------------------------------------------------
 #P AM1(Input,print) CIS(Singlets,NStates=15) pop(full) force
 ------------------------------------------------------------

 -----------------
 AM1-Reparam Input
 -----------------
 Symbolic Z-matrix:
 Charge =  0 Multiplicity = 1

                         Standard orientation:
 ---------------------------------------------------------------------
 Center     Atomic      Atomic             Coordinates (Angstroms)
 Number     Number       Type             X           Y           Z
 ---------------------------------------------------------------------
      1          6           0       -0.923480    0.800700    0.007144
      2          6           0       -1.009410   -0.554554   -0.002617
      3          8           0        0.229269   -1.121560    0.003120
      4          6           0        1.170285   -0.149929    0.002709
      5          6           0        0.523621    1.086046   -0.008737
      6          1           0        0.971874    2.054273    0.038401
      7          1           0        2.139677   -0.461506   -0.026468
      8          1           0       -1.856605   -1.193391    0.002057
      9          1           0       -1.655201    1.479529   -0.029949
 ---------------------------------------------------------------------

 SCF Done:  E(RAM1) =   1.38661114004     A.U. after   13 cycles

 Excitation energies and oscillator strengths:

 Excited State   1:      Singlet-A      5.8122 eV  213.32 nm  f=0.3288  <S**2>=0.000
      13 -> 14         0.69341
 This state for optimization and/or second-order correction.
 Total Energy, E(CIS) =   1.60020728847
 Copying the excited state density for this state as the 1-particle RhoCI density.

 Excited State   2:      Singlet-A      6.3997 eV  193.74 nm  f=0.0012  <S**2>=0.000
      13 -> 15         0.65969
      13 -> 17         0.19703

 Excited State   3:      Singlet-A      6.7414 eV  183.92 nm  f=0.0001  <S**2>=0.000
      12 -> 15        -0.11753
      13 -> 16         0.63443
      13 -> 19         0.14493
      13 -> 21        -0.14415
      13 -> 22        -0.14163

 Excited State   4:      Singlet-A      7.2442 eV  171.15 nm  f=0.0000  <S**2>=0.000
      11 -> 14         0.68239
      12 -> 14         0.10624

 Excited State   5:      Singlet-A      7.7817 eV  159.33 nm  f=0.0062  <S**2>=0.000
      12 -> 15        -0.11461
      13 -> 15        -0.14657
      13 -> 17         0.49330
      13 -> 19        -0.20278
      13 -> 20         0.16270
      13 -> 22         0.36716

 Excited State   6:      Singlet-A      7.9483 eV  155.99 nm  f=0.0054  <S**2>=0.000
      12 -> 16         0.11202
      13 -> 15        -0.10229
      13 -> 16        -0.16675
      13 -> 17         0.43572
      13 -> 19         0.22650
      13 -> 20        -0.22002
      13 -> 22        -0.35946

 Excited State   7:      Singlet-A      8.3409 eV  148.65 nm  f=0.0418  <S**2>=0.000
      12 -> 14         0.60625
      13 -> 18         0.32967

 Excited State   8:      Singlet-A      8.4396 eV  146.91 nm  f=0.0009  <S**2>=0.000
      10 -> 14         0.68940
      13 -> 17         0.10453

 Excited State   9:      Singlet-A      8.7598 eV  141.54 nm  f=0.0047  <S**2>=0.000
      12 -> 15        -0.17010
      13 -> 19         0.33378
      13 -> 20         0.15884
      13 -> 21         0.55854

 Excited State  10:      Singlet-A      8.7695 eV  141.38 nm  f=0.0047  <S**2>=0.000
      13 -> 16        -0.11389
      13 -> 19         0.51568
      13 -> 20         0.10084
      13 -> 21        -0.35981
      13 -> 22         0.26216

 Excited State  11:      Singlet-A      9.2033 eV  134.72 nm  f=0.0647  <S**2>=0.000
      12 -> 16         0.22845
      13 -> 20         0.57084
      13 -> 22        -0.30097

 Excited State  12:      Singlet-A      9.3203 eV  133.03 nm  f=0.1983  <S**2>=0.000
      12 -> 14        -0.30934
      12 -> 15         0.18690
      13 -> 18         0.56891

 Excited State  13:      Singlet-A      9.3409 eV  132.73 nm  f=0.0259  <S**2>=0.000
      12 -> 14         0.10687
      12 -> 15         0.56611
      12 -> 17         0.13455
      13 -> 16         0.17909
      13 -> 18        -0.19501
      13 -> 21         0.13625
      13 -> 22         0.15233

 Excited State  14:      Singlet-A      9.8001 eV  126.51 nm  f=0.0042  <S**2>=0.000
       7 -> 15         0.11302
      12 -> 15        -0.14541
      12 -> 16         0.59372
      13 -> 15         0.14554
      13 -> 20        -0.19315
      13 -> 23         0.11043

 Excited State  15:      Singlet-A      9.9008 eV  125.23 nm  f=0.0959  <S**2>=0.000
       8 -> 15         0.21397
      10 -> 17        -0.17833
      11 -> 15        -0.36739
      11 -> 16         0.38676
      11 -> 19         0.16629
      11 -> 20        -0.11278
      11 -> 22        -0.11768

 The electronic state is 1-A.
 Alpha  occ. eigenvalues --   -1.89304  -1.17415  -0.96589  -0.79460  -0.77773
 Alpha  occ. eigenvalues --   -0.68143  -0.61467  -0.51208  -0.48192  -0.41994
 Alpha  occ. eigenvalues --   -0.38317  -0.37526  -0.24984
 Alpha virt. eigenvalues --    0.16217   0.21761   0.23197   0.28982   0.30477
 Alpha virt. eigenvalues --    0.31085   0.32961   0.33347   0.34008   0.40514
 Alpha virt. eigenvalues --    0.46452

 Mulliken charges:
               1
     1  C   -0.048453
     2  C   -1.564990
     3  O    2.797063
     4  C   -1.564138
     5  C   -0.085566
     6  H    0.068950
     7  H    0.160998
     8  H    0.168142
     9  H    0.067994
 Sum of Mulliken charges =   0.00000

 Dipole moment (field-independent basis, Debye):
    X=              1.5669    Y=             -9.1336    Z=              0.0085  Tot=              9.2670
 N-N= 1.035068299914D+02 E-N=-1.697188583982D+02  KE=-1.587410871993D+01
 Orbital energies and kinetic energies (alpha):
                                 1                 2
   1         O                -1.893045         -1.383576
   2         O                -1.174154         -1.063767
   3         O                -0.965892         -0.876770
   4         O                -0.794601         -0.642608
   5         O                -0.777726         -0.713383
   6         O                -0.681430         -0.622701
   7         O                -0.614668         -0.533361

 Normal termination of Gaussian 09 at Tue Dec 15 17:07:57 2015.
