 Gaussian 09, Revision D.01,
 Gaussian 09:  ES64L-G09RevD.01 24-Apr-2013

 ------------------------------------------------------------
 #P AM1(Input,print) CIS(Singlets,NStates=15) pop(full) force
 ------------------------------------------------------------

 -----------------
 AM1-Reparam Input
 -----------------
 Symbolic Z-matrix:
 Charge =  0 Multiplicity = 1

                         Standard orientation:
 ---------------------------------------------------------------------
 Center     Atomic      Atomic             Coordinates (Angstroms)
 Number     Number       Type             X           Y           Z
 ---------------------------------------------------------------------
      1          6           0       -0.281351    1.148219   -0.011564
      2          6           0       -1.110725    0.093769    0.001486
      3          8           0       -0.445888   -1.085625   -0.008252
      4          6           0        0.885337   -0.704822   -0.005958
      5          6           0        1.004143    0.621537    0.018903
      6          1           0        1.947620    1.175873   -0.023501
      7          1           0        1.577096   -1.497072    0.026344
      8          1           0       -2.272191   -0.085348    0.053848
      9          1           0       -0.669843    2.139323   -0.007879
 ---------------------------------------------------------------------

 SCF Done:  E(RAM1) =   1.74343278069     A.U. after   13 cycles

 Excitation energies and oscillator strengths:

 Excited State   1:      Singlet-A      5.5131 eV  224.89 nm  f=0.3134  <S**2>=0.000
      10 -> 17        -0.11338
      13 -> 14         0.69074
 This state for optimization and/or second-order correction.
 Total Energy, E(CIS) =   1.94603416612
 Copying the excited state density for this state as the 1-particle RhoCI density.

 Excited State   2:      Singlet-A      5.8117 eV  213.34 nm  f=0.0034  <S**2>=0.000
      11 -> 15         0.13677
      13 -> 15         0.67459
      13 -> 17         0.11844

 Excited State   3:      Singlet-A      6.5452 eV  189.43 nm  f=0.0025  <S**2>=0.000
      11 -> 16        -0.13207
      13 -> 16         0.65186
      13 -> 17         0.16111
      13 -> 19         0.11200

 Excited State   4:      Singlet-A      7.3353 eV  169.02 nm  f=0.0002  <S**2>=0.000
      12 -> 14         0.65168
      13 -> 21        -0.20684

 Excited State   5:      Singlet-A      7.4944 eV  165.44 nm  f=0.0223  <S**2>=0.000
      12 -> 14        -0.13563
      13 -> 15        -0.11291
      13 -> 16        -0.11620
      13 -> 17         0.63448
      13 -> 19        -0.10589
      13 -> 21        -0.12999

 Excited State   6:      Singlet-A      7.8148 eV  158.65 nm  f=0.0024  <S**2>=0.000
      12 -> 14         0.20338
      13 -> 16        -0.10376
      13 -> 17         0.17691
      13 -> 20        -0.19995
      13 -> 21         0.59307

 Excited State   7:      Singlet-A      8.0972 eV  153.12 nm  f=0.0016  <S**2>=0.000
      10 -> 14         0.68150
      11 -> 14        -0.10985

 Excited State   8:      Singlet-A      8.4309 eV  147.06 nm  f=0.0005  <S**2>=0.000
      13 -> 16        -0.12628
      13 -> 18         0.34040
      13 -> 19         0.57184
      13 -> 21        -0.12849

 Excited State   9:      Singlet-A      8.6087 eV  144.02 nm  f=0.0029  <S**2>=0.000
      13 -> 18         0.60378
      13 -> 19        -0.32630
      13 -> 21         0.12648

 Excited State  10:      Singlet-A      8.7642 eV  141.47 nm  f=0.0444  <S**2>=0.000
       8 -> 15        -0.11660
      11 -> 14         0.61744
      12 -> 15        -0.23344

 Excited State  11:      Singlet-A      9.0858 eV  136.46 nm  f=0.0761  <S**2>=0.000
       8 -> 15        -0.13060
      10 -> 17         0.11729
      11 -> 14        -0.14963
      11 -> 15         0.41668
      12 -> 15        -0.34404
      12 -> 16         0.12800
      13 -> 15        -0.10160
      13 -> 20         0.26355

 Excited State  12:      Singlet-A      9.1709 eV  135.19 nm  f=0.0974  <S**2>=0.000
      11 -> 14         0.11081
      12 -> 15         0.20835
      13 -> 19         0.11153
      13 -> 20         0.58867
      13 -> 21         0.19899

 Excited State  13:      Singlet-A      9.2047 eV  134.70 nm  f=0.0378  <S**2>=0.000
       8 -> 15         0.15193
      10 -> 17        -0.12618
      11 -> 15         0.49550
      12 -> 15         0.29207
      12 -> 16        -0.13212
      12 -> 21        -0.12092
      13 -> 15        -0.11534

 Excited State  14:      Singlet-A      9.5417 eV  129.94 nm  f=0.0966  <S**2>=0.000
       9 -> 15        -0.16062
      10 -> 15         0.47800
      10 -> 16         0.10342
      10 -> 17         0.28197
      11 -> 14         0.12205
      12 -> 15         0.24531
      12 -> 16         0.11918
      12 -> 18         0.10431
      12 -> 21         0.12610

 Excited State  15:      Singlet-A      9.8559 eV  125.80 nm  f=0.1491  <S**2>=0.000
       8 -> 15        -0.13607
       8 -> 16         0.15664
       9 -> 15        -0.15626
      10 -> 15         0.29312
      10 -> 19        -0.21562
      11 -> 14        -0.17182
      12 -> 15        -0.12104
      12 -> 16        -0.28658
      12 -> 17         0.22019
      12 -> 18        -0.17922
      12 -> 20         0.12573
      12 -> 21        -0.11128

 The electronic state is 1-A.
 Alpha  occ. eigenvalues --   -1.91233  -1.23886  -0.98663  -0.81899  -0.80346
 Alpha  occ. eigenvalues --   -0.68194  -0.63447  -0.52367  -0.51702  -0.42214
 Alpha  occ. eigenvalues --   -0.41497  -0.40126  -0.27258
 Alpha virt. eigenvalues --    0.14280   0.15713   0.19773   0.25426   0.28277
 Alpha virt. eigenvalues --    0.29495   0.30281   0.31071   0.36114   0.45642
 Alpha virt. eigenvalues --    0.49309

 Mulliken charges:
               1
     1  C   -0.146994
     2  C   -1.913135
     3  O    3.166875
     4  C   -1.920589
     5  C   -0.099660
     6  H    0.167991
     7  H    0.288808
     8  H    0.281714
     9  H    0.174991
 Sum of Mulliken charges =   0.00000

 Dipole moment (field-independent basis, Debye):
    X=             -4.4196    Y=            -10.1518    Z=              0.0541  Tot=             11.0723
 N-N= 1.042124238302D+02 E-N=-1.699235381096D+02  KE=-1.575778692833D+01
 Orbital energies and kinetic energies (alpha):
                                 1                 2
   1         O                -1.912328         -1.378859
   2         O                -1.238855         -1.120993
   3         O                -0.986626         -0.920479
   4         O                -0.818993         -0.624190
   5         O                -0.803455         -0.691532
   6         O                -0.681943         -0.589300
   7         O                -0.634475         -0.521614

 Normal termination of Gaussian 09 at Tue Dec 15 17:07:00 2015.
