 Gaussian 09, Revision D.01,
 Gaussian 09:  ES64L-G09RevD.01 24-Apr-2013

 ------------------------------------------------------------
 #P AM1(Input,print) CIS(Singlets,NStates=15) pop(full) force
 ------------------------------------------------------------

 -----------------
 AM1-Reparam Input
 -----------------
 Symbolic Z-matrix:
 Charge =  0 Multiplicity = 1

                         Standard orientation:
 ---------------------------------------------------------------------
 Center     Atomic      Atomic             Coordinates (Angstroms)
 Number     Number       Type             X           Y           Z
 ---------------------------------------------------------------------
      1          6           0        0.906798    0.776835   -0.013504
      2          6           0        1.034385   -0.574751    0.020855
      3          8           0       -0.305036   -1.109669   -0.002194
      4          6           0       -1.147473   -0.105361   -0.002074
      5          6           0       -0.458687    1.060529   -0.015200
      6          1           0       -0.909003    2.133576    0.071905
      7          1           0       -2.221451   -0.316488    0.014679
      8          1           0        1.834847   -1.276483   -0.028184
      9          1           0        1.725766    1.393239    0.018693
 ---------------------------------------------------------------------

 SCF Done:  E(RAM1) =  -4.50852292091     A.U. after   13 cycles

 Excitation energies and oscillator strengths:

 Excited State   1:      Singlet-A      6.6639 eV  186.05 nm  f=0.2019  <S**2>=0.000
      13 -> 14         0.68188
 This state for optimization and/or second-order correction.
 Total Energy, E(CIS) =  -4.26363000112
 Copying the excited state density for this state as the 1-particle RhoCI density.

 Excited State   2:      Singlet-A      7.3971 eV  167.61 nm  f=0.0034  <S**2>=0.000
      13 -> 15         0.68411
      13 -> 16         0.11251

 Excited State   3:      Singlet-A      7.9098 eV  156.75 nm  f=0.0025  <S**2>=0.000
       9 -> 14         0.18675
      11 -> 14        -0.17570
      12 -> 14         0.57373
      13 -> 16         0.29073

 Excited State   4:      Singlet-A      7.9930 eV  155.12 nm  f=0.0167  <S**2>=0.000
       9 -> 14        -0.14224
      12 -> 14        -0.27943
      13 -> 16         0.61090

 Excited State   5:      Singlet-A      8.4867 eV  146.09 nm  f=0.0028  <S**2>=0.000
       9 -> 14         0.19043
      11 -> 14         0.65814
      12 -> 14         0.10449

 Excited State   6:      Singlet-A      9.1500 eV  135.50 nm  f=0.0177  <S**2>=0.000
      10 -> 14         0.46385
      13 -> 17         0.50199

 Excited State   7:      Singlet-A      9.5280 eV  130.13 nm  f=0.0366  <S**2>=0.000
       9 -> 14         0.27623
      12 -> 14        -0.12006
      12 -> 15         0.18662
      13 -> 18         0.56096

 Excited State   8:      Singlet-A      9.5397 eV  129.97 nm  f=0.0630  <S**2>=0.000
       9 -> 14        -0.18416
      10 -> 14        -0.17637
      12 -> 14         0.10272
      12 -> 15         0.48277
      12 -> 16         0.16545
      12 -> 18        -0.10597
      13 -> 17         0.28708
      13 -> 18        -0.10762

 Excited State   9:      Singlet-A      9.7160 eV  127.61 nm  f=0.0191  <S**2>=0.000
       9 -> 14         0.49214
      11 -> 14        -0.10206
      12 -> 14        -0.20524
      12 -> 15         0.14909
      13 -> 18        -0.37734

 Excited State  10:      Singlet-A     10.0025 eV  123.95 nm  f=0.1495  <S**2>=0.000
       9 -> 14         0.16955
       9 -> 18         0.10939
      10 -> 14        -0.29788
      11 -> 15         0.31749
      11 -> 16         0.21470
      12 -> 18         0.23283
      13 -> 17         0.31138

 Excited State  11:      Singlet-A     10.2493 eV  120.97 nm  f=0.0774  <S**2>=0.000
      10 -> 15         0.33038
      10 -> 16        -0.16210
      12 -> 16         0.15897
      13 -> 19         0.53778

 Excited State  12:      Singlet-A     10.3958 eV  119.26 nm  f=0.4127  <S**2>=0.000
       9 -> 15         0.11001
       9 -> 18         0.13429
      10 -> 14         0.16290
      11 -> 16         0.15422
      12 -> 15         0.34647
      12 -> 16        -0.34161
      12 -> 18         0.23712
      13 -> 17        -0.12567
      13 -> 19         0.23131

 Excited State  13:      Singlet-A     10.7058 eV  115.81 nm  f=0.0110  <S**2>=0.000
      10 -> 15         0.57972
      10 -> 16         0.21462
      13 -> 19        -0.25898

 Excited State  14:      Singlet-A     10.7701 eV  115.12 nm  f=0.6080  <S**2>=0.000
       9 -> 15         0.26142
       9 -> 16        -0.15066
      10 -> 14         0.23013
      10 -> 17        -0.12343
      11 -> 15        -0.11364
      11 -> 16         0.28822
      11 -> 18         0.10451
      12 -> 16         0.38057
      13 -> 17        -0.13378

 Excited State  15:      Singlet-A     10.9569 eV  113.16 nm  f=0.8723  <S**2>=0.000
       8 -> 15        -0.16536
       9 -> 15        -0.29916
       9 -> 16         0.12499
      10 -> 14         0.23417
      11 -> 15         0.38989
      11 -> 18         0.18396
      12 -> 16         0.13979
      13 -> 17        -0.10671

 The electronic state is 1-A.
 Alpha  occ. eigenvalues --   -3.76821  -1.27860  -0.97884  -0.93217  -0.87854
 Alpha  occ. eigenvalues --   -0.84293  -0.79948  -0.70482  -0.62648  -0.60398
 Alpha  occ. eigenvalues --   -0.59400  -0.55082  -0.47644
 Alpha virt. eigenvalues --   -0.00845   0.04006   0.06610   0.09968   0.13722
 Alpha virt. eigenvalues --    0.15766   0.21933   0.24184   0.35489   0.38084
 Alpha virt. eigenvalues --    0.40179

 Mulliken charges:
               1
     1  C   -0.024200
     2  C   -1.109704
     3  O    2.474477
     4  C   -1.162271
     5  C   -0.172600
     6  H    0.028197
     7  H    0.017588
     8  H   -0.024312
     9  H   -0.027175
 Sum of Mulliken charges =   0.00000

 Dipole moment (field-independent basis, Debye):
    X=             -2.9767    Y=             -8.9727    Z=             -0.0981  Tot=              9.4541
 N-N= 1.059910463394D+02 E-N=-1.732207659059D+02  KE=-2.170773326478D+01
 Orbital energies and kinetic energies (alpha):
                                 1                 2
   1         O                -3.768214         -3.046895
   2         O                -1.278597         -1.058303
   3         O                -0.978843         -0.721114
   4         O                -0.932170         -0.782193
   5         O                -0.878545         -0.795297
   6         O                -0.842926         -0.631528
   7         O                -0.799484         -0.755361

 Normal termination of Gaussian 09 at Fri Dec 11 13:41:30 2015.
