 Gaussian 09, Revision D.01,
 Gaussian 09:  ES64L-G09RevD.01 24-Apr-2013

 ------------------------------------------------------------
 #P AM1(Input,print) CIS(Singlets,NStates=15) pop(full) force
 ------------------------------------------------------------

 -----------------
 AM1-Reparam Input
 -----------------
 Symbolic Z-matrix:
 Charge =  0 Multiplicity = 1

                         Standard orientation:
 ---------------------------------------------------------------------
 Center     Atomic      Atomic             Coordinates (Angstroms)
 Number     Number       Type             X           Y           Z
 ---------------------------------------------------------------------
      1          6           0        0.906798    0.776835   -0.013504
      2          6           0        1.034385   -0.574751    0.020855
      3          8           0       -0.305036   -1.109669   -0.002194
      4          6           0       -1.147473   -0.105361   -0.002074
      5          6           0       -0.458687    1.060529   -0.015200
      6          1           0       -0.909003    2.133576    0.071905
      7          1           0       -2.221451   -0.316488    0.014679
      8          1           0        1.834847   -1.276483   -0.028184
      9          1           0        1.725766    1.393239    0.018693
 ---------------------------------------------------------------------

 SCF Done:  E(RAM1) =  -7.63609794216     A.U. after   13 cycles

 Excitation energies and oscillator strengths:

 Excited State   1:      Singlet-A      7.0619 eV  175.57 nm  f=0.3183  <S**2>=0.000
      12 -> 14        -0.25176
      13 -> 14         0.64928
 This state for optimization and/or second-order correction.
 Total Energy, E(CIS) =  -7.37657919363
 Copying the excited state density for this state as the 1-particle RhoCI density.

 Excited State   2:      Singlet-A      7.4627 eV  166.14 nm  f=0.0684  <S**2>=0.000
      11 -> 14         0.18048
      12 -> 14         0.63076
      13 -> 14         0.24592

 Excited State   3:      Singlet-A      7.9312 eV  156.32 nm  f=0.0077  <S**2>=0.000
      11 -> 14         0.67947
      12 -> 14        -0.17832

 Excited State   4:      Singlet-A      9.6336 eV  128.70 nm  f=0.0080  <S**2>=0.000
      13 -> 15         0.66807
      13 -> 17         0.11134
      13 -> 18         0.15249

 Excited State   5:      Singlet-A     10.4562 eV  118.57 nm  f=0.0058  <S**2>=0.000
      13 -> 16         0.28035
      13 -> 17         0.59913
      13 -> 20        -0.14030

 Excited State   6:      Singlet-A     10.6645 eV  116.26 nm  f=0.0080  <S**2>=0.000
      10 -> 14        -0.37539
      13 -> 16         0.52739
      13 -> 17        -0.26470

 Excited State   7:      Singlet-A     11.5072 eV  107.75 nm  f=0.2685  <S**2>=0.000
      10 -> 14         0.56767
      13 -> 16         0.35328
      13 -> 17        -0.12468

 Excited State   8:      Singlet-A     11.8700 eV  104.45 nm  f=0.0083  <S**2>=0.000
       9 -> 14        -0.12182
      12 -> 15        -0.20714
      12 -> 19        -0.11827
      13 -> 18         0.13022
      13 -> 19         0.57725
      13 -> 20         0.11315

 Excited State   9:      Singlet-A     11.8780 eV  104.38 nm  f=0.0460  <S**2>=0.000
      10 -> 14         0.11685
      11 -> 15        -0.26297
      12 -> 15         0.49601
      12 -> 17         0.18953
      12 -> 18         0.17518
      12 -> 19        -0.10508
      13 -> 18        -0.12823
      13 -> 19         0.12667

 Excited State  10:      Singlet-A     11.9884 eV  103.42 nm  f=0.0197  <S**2>=0.000
      11 -> 15         0.28167
      11 -> 18         0.11290
      12 -> 15         0.36349
      12 -> 17        -0.17921
      12 -> 19         0.23815
      12 -> 20         0.13652
      13 -> 18         0.24711
      13 -> 19         0.17038

 Excited State  11:      Singlet-A     12.0374 eV  103.00 nm  f=0.0100  <S**2>=0.000
       9 -> 14         0.15005
      11 -> 15        -0.15566
      12 -> 17         0.12506
      13 -> 15        -0.12321
      13 -> 18         0.55613
      13 -> 19        -0.20687
      13 -> 20         0.11679

 Excited State  12:      Singlet-A     12.1118 eV  102.37 nm  f=0.0096  <S**2>=0.000
       7 -> 14        -0.10979
       9 -> 14         0.64537
      13 -> 19         0.16886

 Excited State  13:      Singlet-A     12.5399 eV   98.87 nm  f=0.0058  <S**2>=0.000
       8 -> 14         0.62905
      12 -> 16        -0.17606
      13 -> 20         0.18899

 Excited State  14:      Singlet-A     12.6554 eV   97.97 nm  f=0.0182  <S**2>=0.000
       8 -> 14        -0.18099
      12 -> 16         0.11533
      13 -> 18        -0.16382
      13 -> 19        -0.13726
      13 -> 20         0.57430
      13 -> 24        -0.13535

 Excited State  15:      Singlet-A     12.8750 eV   96.30 nm  f=0.2363  <S**2>=0.000
       8 -> 17        -0.14147
       9 -> 17        -0.10573
      11 -> 21         0.11107
      12 -> 16         0.13113
      12 -> 17         0.35882
      12 -> 18        -0.14320
      12 -> 19         0.43333
      12 -> 20        -0.10901
      12 -> 21        -0.16770

 The electronic state is 1-A.
 Alpha  occ. eigenvalues --   -3.67083  -1.23902  -0.93467  -0.90909  -0.89134
 Alpha  occ. eigenvalues --   -0.84598  -0.74359  -0.60266  -0.58213  -0.53764
 Alpha  occ. eigenvalues --   -0.46657  -0.44985  -0.36715
 Alpha virt. eigenvalues --    0.11373   0.22330   0.26072   0.26433   0.31355
 Alpha virt. eigenvalues --    0.32171   0.36643   0.37543   0.43281   0.44601
 Alpha virt. eigenvalues --    0.45338

 Mulliken charges:
               1
     1  C   -0.226340
     2  C   -1.697377
     3  O    2.951334
     4  C   -1.744787
     5  C   -0.296415
     6  H    0.221415
     7  H    0.299227
     8  H    0.267549
     9  H    0.225393
 Sum of Mulliken charges =   0.00000

 Dipole moment (field-independent basis, Debye):
    X=             -3.2118    Y=             -9.6084    Z=             -0.0735  Tot=             10.1312
 N-N= 1.019502434165D+02 E-N=-1.700896514160D+02  KE=-2.460197152486D+01
 Orbital energies and kinetic energies (alpha):
                                 1                 2
   1         O                -3.670827         -3.051530
   2         O                -1.239023         -1.246690
   3         O                -0.934666         -0.858650
   4         O                -0.909085         -0.977201
   5         O                -0.891342         -0.907174
   6         O                -0.845981         -0.966887
   7         O                -0.743592         -0.805006

 Normal termination of Gaussian 09 at Fri Dec 11 13:41:38 2015.
