 Gaussian 09, Revision D.01,
 Gaussian 09:  ES64L-G09RevD.01 24-Apr-2013

 ------------------------------------------------------------
 #P AM1(Input,print) CIS(Singlets,NStates=15) pop(full) force
 ------------------------------------------------------------

 -----------------
 AM1-Reparam Input
 -----------------
 Symbolic Z-matrix:
 Charge =  0 Multiplicity = 1

                         Standard orientation:
 ---------------------------------------------------------------------
 Center     Atomic      Atomic             Coordinates (Angstroms)
 Number     Number       Type             X           Y           Z
 ---------------------------------------------------------------------
      1          6           0        0.426935    1.086993    0.006452
      2          6           0        1.158484   -0.062068    0.034016
      3          8           0        0.323832   -1.092775   -0.013920
      4          6           0       -0.987586   -0.654582   -0.000887
      5          6           0       -0.950789    0.774502   -0.023468
      6          1           0       -1.781889    1.417671    0.030627
      7          1           0       -1.744242   -1.345937    0.070045
      8          1           0        2.197984   -0.256572   -0.078761
      9          1           0        0.855220    2.057965   -0.007227
 ---------------------------------------------------------------------

 SCF Done:  E(RAM1) =   1.36833550330     A.U. after   13 cycles

 Excitation energies and oscillator strengths:

 Excited State   1:      Singlet-A      6.1114 eV  202.87 nm  f=0.3020  <S**2>=0.000
      13 -> 14         0.68676
 This state for optimization and/or second-order correction.
 Total Energy, E(CIS) =   1.59292381229
 Copying the excited state density for this state as the 1-particle RhoCI density.

 Excited State   2:      Singlet-A      6.5952 eV  187.99 nm  f=0.0134  <S**2>=0.000
      12 -> 15         0.10766
      13 -> 15         0.63145
      13 -> 16         0.14507
      13 -> 17         0.20057

 Excited State   3:      Singlet-A      7.1520 eV  173.36 nm  f=0.0019  <S**2>=0.000
      12 -> 15        -0.14595
      12 -> 16        -0.11517
      13 -> 15        -0.15487
      13 -> 16         0.60608
      13 -> 17         0.13411
      13 -> 21         0.11724
      13 -> 22        -0.14714

 Excited State   4:      Singlet-A      7.5196 eV  164.88 nm  f=0.0016  <S**2>=0.000
       9 -> 14         0.10719
      11 -> 14         0.66861
      12 -> 14         0.15680

 Excited State   5:      Singlet-A      7.9753 eV  155.46 nm  f=0.0100  <S**2>=0.000
      10 -> 14        -0.15012
      12 -> 16         0.16999
      13 -> 15        -0.14173
      13 -> 16        -0.14408
      13 -> 17         0.60544
      13 -> 22        -0.11438

 Excited State   6:      Singlet-A      8.2603 eV  150.10 nm  f=0.0024  <S**2>=0.000
      12 -> 15        -0.18491
      13 -> 17         0.16140
      13 -> 18        -0.32381
      13 -> 21         0.13865
      13 -> 22         0.53088

 Excited State   7:      Singlet-A      8.3297 eV  148.85 nm  f=0.0016  <S**2>=0.000
      10 -> 14         0.67820
      13 -> 17         0.15096

 Excited State   8:      Singlet-A      8.3998 eV  147.60 nm  f=0.0714  <S**2>=0.000
      11 -> 14        -0.14207
      12 -> 14         0.63928
      13 -> 19        -0.22440

 Excited State   9:      Singlet-A      8.9371 eV  138.73 nm  f=0.0002  <S**2>=0.000
      12 -> 15         0.34078
      12 -> 16         0.16156
      13 -> 18        -0.21612
      13 -> 20        -0.15069
      13 -> 21         0.49980
      13 -> 22        -0.14600

 Excited State  10:      Singlet-A      8.9945 eV  137.84 nm  f=0.0001  <S**2>=0.000
      13 -> 16        -0.10457
      13 -> 18         0.55149
      13 -> 19        -0.10395
      13 -> 21         0.31051
      13 -> 22         0.22802

 Excited State  11:      Singlet-A      9.2153 eV  134.54 nm  f=0.0140  <S**2>=0.000
      12 -> 15         0.48501
      12 -> 17         0.13615
      13 -> 15        -0.13817
      13 -> 16         0.17124
      13 -> 20         0.26047
      13 -> 21        -0.14247
      13 -> 22         0.26662

 Excited State  12:      Singlet-A      9.3816 eV  132.16 nm  f=0.0698  <S**2>=0.000
      12 -> 16        -0.26024
      13 -> 19         0.26424
      13 -> 20         0.49467
      13 -> 21         0.25267

 Excited State  13:      Singlet-A      9.6106 eV  129.01 nm  f=0.1469  <S**2>=0.000
      12 -> 14         0.21359
      12 -> 16         0.11364
      13 -> 18         0.11902
      13 -> 19         0.56827
      13 -> 20        -0.19896

 Excited State  14:      Singlet-A      9.8667 eV  125.66 nm  f=0.0306  <S**2>=0.000
       8 -> 15         0.12389
       9 -> 15        -0.12798
      10 -> 15        -0.25551
      10 -> 17        -0.22585
      11 -> 15         0.10386
      11 -> 16         0.15540
      11 -> 17         0.19455
      11 -> 18         0.14748
      12 -> 16         0.33977
      13 -> 20         0.19967

 Excited State  15:      Singlet-A      9.9089 eV  125.12 nm  f=0.0360  <S**2>=0.000
       9 -> 15        -0.11988
      10 -> 15        -0.13151
      10 -> 17        -0.10821
      11 -> 15         0.47729
      11 -> 17         0.17200
      12 -> 15         0.10774
      12 -> 16        -0.30359
      13 -> 20        -0.14618

 The electronic state is 1-A.
 Alpha  occ. eigenvalues --   -1.89523  -1.18275  -0.96235  -0.79069  -0.77971
 Alpha  occ. eigenvalues --   -0.67985  -0.61957  -0.51436  -0.48269  -0.41339
 Alpha  occ. eigenvalues --   -0.39036  -0.37048  -0.26424
 Alpha virt. eigenvalues --    0.16550   0.21038   0.24110   0.27783   0.30447
 Alpha virt. eigenvalues --    0.30742   0.32512   0.32761   0.34427   0.40564
 Alpha virt. eigenvalues --    0.46790

 Mulliken charges:
               1
     1  C   -0.069045
     2  C   -1.584433
     3  O    2.814007
     4  C   -1.601643
     5  C   -0.040491
     6  H    0.071650
     7  H    0.165456
     8  H    0.175549
     9  H    0.068951
 Sum of Mulliken charges =   0.00000

 Dipole moment (field-independent basis, Debye):
    X=              2.9563    Y=             -8.4592    Z=             -0.3955  Tot=              8.9697
 N-N= 1.035710175423D+02 E-N=-1.698328533192D+02  KE=-1.588117973034D+01
 Orbital energies and kinetic energies (alpha):
                                 1                 2
   1         O                -1.895232         -1.388298
   2         O                -1.182750         -1.066740
   3         O                -0.962350         -0.871945
   4         O                -0.790687         -0.637306
   5         O                -0.779708         -0.709461
   6         O                -0.679853         -0.629583
   7         O                -0.619567         -0.538113

 Normal termination of Gaussian 09 at Tue Dec 15 17:07:55 2015.
