 Gaussian 09, Revision D.01,
 Gaussian 09:  ES64L-G09RevD.01 24-Apr-2013

 ------------------------------------------------------------
 #P AM1(Input,print) CIS(Singlets,NStates=15) pop(full) force
 ------------------------------------------------------------

 -----------------
 AM1-Reparam Input
 -----------------
 Symbolic Z-matrix:
 Charge =  0 Multiplicity = 1

                         Standard orientation:
 ---------------------------------------------------------------------
 Center     Atomic      Atomic             Coordinates (Angstroms)
 Number     Number       Type             X           Y           Z
 ---------------------------------------------------------------------
      1          6           0       -0.743460    0.905586    0.007329
      2          6           0       -1.067291   -0.314285    0.004573
      3          8           0        0.009564   -1.178529    0.003626
      4          6           0        1.093313   -0.336497   -0.019341
      5          6           0        0.704809    0.997165   -0.017738
      6          1           0        1.398201    1.779010    0.077998
      7          1           0        2.038640   -0.796708    0.062001
      8          1           0       -2.043865   -0.840370   -0.004796
      9          1           0       -1.393711    1.774489   -0.013147
 ---------------------------------------------------------------------

 SCF Done:  E(RAM1) =  0.313118436424E-01 A.U. after   14 cycles

 Excitation energies and oscillator strengths:

 Excited State   1:      Singlet-A      4.5565 eV  272.10 nm  f=0.0858  <S**2>=0.000
      12 -> 15         0.19408
      13 -> 14         0.67038
 This state for optimization and/or second-order correction.
 Total Energy, E(CIS) =  0.198761173991
 Copying the excited state density for this state as the 1-particle RhoCI density.

 Excited State   2:      Singlet-A      5.2482 eV  236.24 nm  f=0.0057  <S**2>=0.000
      12 -> 14        -0.35762
      13 -> 15         0.51648
      13 -> 16         0.30547

 Excited State   3:      Singlet-A      5.3299 eV  232.62 nm  f=0.0009  <S**2>=0.000
      12 -> 14         0.21950
      13 -> 15        -0.22990
      13 -> 16         0.60866
      13 -> 22         0.10393

 Excited State   4:      Singlet-A      5.7934 eV  214.01 nm  f=0.0015  <S**2>=0.000
      12 -> 18         0.12490
      13 -> 17        -0.19686
      13 -> 18         0.49982
      13 -> 20         0.15152
      13 -> 21         0.26761
      13 -> 22        -0.19099
      13 -> 23         0.12530

 Excited State   5:      Singlet-A      6.0801 eV  203.92 nm  f=0.0183  <S**2>=0.000
       7 -> 16        -0.17555
      12 -> 14         0.13752
      12 -> 15         0.11953
      12 -> 16         0.61426
      12 -> 22         0.15118
      13 -> 15         0.11685

 Excited State   6:      Singlet-A      6.2930 eV  197.02 nm  f=0.2665  <S**2>=0.000
      12 -> 14         0.49871
      12 -> 15         0.14539
      12 -> 16        -0.19573
      13 -> 15         0.36375

 Excited State   7:      Singlet-A      6.4121 eV  193.36 nm  f=0.0108  <S**2>=0.000
      11 -> 14        -0.11949
      13 -> 17         0.58591
      13 -> 18         0.13311
      13 -> 19         0.22652
      13 -> 20        -0.12184
      13 -> 23         0.13774

 Excited State   8:      Singlet-A      6.5542 eV  189.17 nm  f=0.0083  <S**2>=0.000
      12 -> 15        -0.11171
      12 -> 18         0.15754
      12 -> 19        -0.20973
      12 -> 21        -0.10789
      12 -> 22         0.13229
      12 -> 23         0.16629
      12 -> 24        -0.12622
      13 -> 18        -0.17551
      13 -> 19         0.40358
      13 -> 21         0.11880
      13 -> 22        -0.23670
      13 -> 23        -0.19528

 Excited State   9:      Singlet-A      6.6308 eV  186.98 nm  f=0.1712  <S**2>=0.000
      12 -> 15         0.62726
      13 -> 14        -0.17382

 Excited State  10:      Singlet-A      7.0070 eV  176.94 nm  f=0.0088  <S**2>=0.000
      10 -> 14         0.44858
      10 -> 15         0.12118
      11 -> 14         0.43430
      11 -> 15         0.22191

 Excited State  11:      Singlet-A      7.0475 eV  175.93 nm  f=0.0002  <S**2>=0.000
      12 -> 17         0.58127
      12 -> 18        -0.12438
      12 -> 19         0.11708
      12 -> 20        -0.13421
      13 -> 17        -0.13872
      13 -> 19         0.19004
      13 -> 20        -0.12611

 Excited State  12:      Singlet-A      7.3621 eV  168.41 nm  f=0.0042  <S**2>=0.000
      12 -> 17        -0.13706
      12 -> 18        -0.20914
      12 -> 19         0.28620
      12 -> 20         0.13318
      12 -> 22        -0.10879
      12 -> 23        -0.16355
      13 -> 19         0.35428
      13 -> 20         0.26359
      13 -> 21        -0.16652
      13 -> 24        -0.17693

 Excited State  13:      Singlet-A      7.6043 eV  163.05 nm  f=0.0048  <S**2>=0.000
      10 -> 14        -0.15367
      11 -> 14         0.22312
      12 -> 18         0.16360
      12 -> 19        -0.10063
      13 -> 18         0.21485
      13 -> 19         0.15190
      13 -> 22         0.49141
      13 -> 23        -0.16242

 Excited State  14:      Singlet-A      7.6424 eV  162.23 nm  f=0.0024  <S**2>=0.000
       8 -> 15        -0.10920
       9 -> 14        -0.26169
       9 -> 15         0.12081
      10 -> 14        -0.37690
      11 -> 14         0.40660
      13 -> 22        -0.19412

 Excited State  15:      Singlet-A      7.7389 eV  160.21 nm  f=0.0000  <S**2>=0.000
       9 -> 14         0.39526
       9 -> 15        -0.27805
      10 -> 14        -0.11812
      10 -> 15         0.18617
      11 -> 14         0.17366
      11 -> 15        -0.34945
      13 -> 19        -0.10402

 The electronic state is 1-A.
 Alpha  occ. eigenvalues --   -1.56670  -1.24599  -1.10585  -0.82822  -0.80708
 Alpha  occ. eigenvalues --   -0.68673  -0.59998  -0.56083  -0.51630  -0.50695
 Alpha  occ. eigenvalues --   -0.49214  -0.40131  -0.35217
 Alpha virt. eigenvalues --    0.03075   0.06680   0.10205   0.13235   0.14488
 Alpha virt. eigenvalues --    0.15963   0.17627   0.18453   0.18818   0.20721
 Alpha virt. eigenvalues --    0.22082

 Mulliken charges:
               1
     1  C   -0.187401
     2  C   -0.086938
     3  O   -0.093706
     4  C   -0.103095
     5  C   -0.208181
     6  H    0.162911
     7  H    0.179695
     8  H    0.179541
     9  H    0.157172
 Sum of Mulliken charges =   0.00000

 Dipole moment (field-independent basis, Debye):
    X=             -0.0213    Y=              0.4718    Z=              0.1389  Tot=              0.4923
 N-N= 1.036367620191D+02 E-N=-1.712949638199D+02  KE=-1.657544292555D+01
 Orbital energies and kinetic energies (alpha):
                                 1                 2
   1         O                -1.566698         -1.320723
   2         O                -1.245990         -1.050714
   3         O                -1.105846         -0.966154
   4         O                -0.828222         -0.711650
   5         O                -0.807076         -0.715500
   6         O                -0.686730         -0.604840
   7         O                -0.599979         -0.487337

 Normal termination of Gaussian 09 at Tue Dec 15 16:11:17 2015.
