 Gaussian 09, Revision D.01,
 Gaussian 09:  ES64L-G09RevD.01 24-Apr-2013

 ------------------------------------------------------------
 #P AM1(Input,print) CIS(Singlets,NStates=15) pop(full) force
 ------------------------------------------------------------

 -----------------
 AM1-Reparam Input
 -----------------
 Symbolic Z-matrix:
 Charge =  0 Multiplicity = 1

                         Standard orientation:
 ---------------------------------------------------------------------
 Center     Atomic      Atomic             Coordinates (Angstroms)
 Number     Number       Type             X           Y           Z
 ---------------------------------------------------------------------
      1          6           0        0.757171    0.896867   -0.007864
      2          6           0        1.115852   -0.438017   -0.018797
      3          8           0       -0.113448   -1.144788    0.022470
      4          6           0       -1.135647   -0.256853   -0.027972
      5          6           0       -0.613125    0.984238    0.020463
      6          1           0       -1.228986    1.966866   -0.028794
      7          1           0       -2.111270   -0.674049    0.012461
      8          1           0        1.989501   -0.939612   -0.011258
      9          1           0        1.512834    1.687690    0.052856
 ---------------------------------------------------------------------

 SCF Done:  E(RAM1) =  0.261767024039E-01 A.U. after   13 cycles

 Excitation energies and oscillator strengths:

 Excited State   1:      Singlet-A      4.3205 eV  286.96 nm  f=0.1149  <S**2>=0.000
      12 -> 15         0.17751
      13 -> 14         0.67331
 This state for optimization and/or second-order correction.
 Total Energy, E(CIS) =  0.184953497899
 Copying the excited state density for this state as the 1-particle RhoCI density.

 Excited State   2:      Singlet-A      4.6802 eV  264.91 nm  f=0.0007  <S**2>=0.000
      13 -> 16         0.69204

 Excited State   3:      Singlet-A      5.0446 eV  245.78 nm  f=0.0064  <S**2>=0.000
      12 -> 14        -0.43010
      13 -> 15         0.55485

 Excited State   4:      Singlet-A      5.9030 eV  210.04 nm  f=0.0009  <S**2>=0.000
       7 -> 16        -0.18908
      12 -> 16         0.62375
      13 -> 17        -0.12737

 Excited State   5:      Singlet-A      5.9145 eV  209.63 nm  f=0.0017  <S**2>=0.000
      12 -> 16         0.19945
      12 -> 17         0.14416
      12 -> 20        -0.10570
      12 -> 22        -0.10174
      13 -> 17         0.43492
      13 -> 18         0.16701
      13 -> 19         0.11468
      13 -> 20        -0.25044
      13 -> 21        -0.15531
      13 -> 22        -0.17107
      13 -> 23         0.16609

 Excited State   6:      Singlet-A      6.0301 eV  205.61 nm  f=0.0008  <S**2>=0.000
      12 -> 18        -0.13425
      12 -> 22         0.10307
      12 -> 23         0.10401
      13 -> 17        -0.23504
      13 -> 18         0.39338
      13 -> 19         0.26926
      13 -> 21         0.10077
      13 -> 22        -0.23671
      13 -> 23        -0.22670

 Excited State   7:      Singlet-A      6.1690 eV  200.98 nm  f=0.3482  <S**2>=0.000
      11 -> 16        -0.10086
      12 -> 14         0.51193
      13 -> 15         0.41189

 Excited State   8:      Singlet-A      6.6263 eV  187.11 nm  f=0.0273  <S**2>=0.000
      12 -> 15        -0.31021
      13 -> 18        -0.33006
      13 -> 19         0.47586
      13 -> 21         0.11246
      13 -> 23         0.10582

 Excited State   9:      Singlet-A      6.6555 eV  186.29 nm  f=0.1041  <S**2>=0.000
      12 -> 15         0.59675
      13 -> 14        -0.14450
      13 -> 18        -0.18284
      13 -> 19         0.24005

 Excited State  10:      Singlet-A      6.8216 eV  181.75 nm  f=0.0116  <S**2>=0.000
      10 -> 14         0.53240
      10 -> 15         0.14884
      11 -> 14         0.33455
      11 -> 15        -0.18628

 Excited State  11:      Singlet-A      7.1901 eV  172.44 nm  f=0.0002  <S**2>=0.000
       9 -> 14        -0.11323
      10 -> 14        -0.29676
      10 -> 15        -0.17959
      11 -> 14         0.41139
      11 -> 15        -0.14969
      12 -> 17        -0.20467
      12 -> 19         0.10448
      13 -> 17         0.16616
      13 -> 19         0.18023
      13 -> 20         0.16170

 Excited State  12:      Singlet-A      7.2733 eV  170.46 nm  f=0.0007  <S**2>=0.000
      10 -> 14        -0.14404
      10 -> 15        -0.12168
      11 -> 14         0.28894
      12 -> 17         0.25206
      12 -> 18         0.21105
      12 -> 19        -0.21403
      12 -> 21        -0.14359
      13 -> 17        -0.25067
      13 -> 19        -0.14395
      13 -> 20        -0.14304
      13 -> 21        -0.13813
      13 -> 22        -0.17558

 Excited State  13:      Singlet-A      7.4191 eV  167.12 nm  f=0.0003  <S**2>=0.000
      12 -> 17         0.16893
      12 -> 19         0.40529
      12 -> 21         0.13702
      12 -> 22        -0.14693
      13 -> 17        -0.22866
      13 -> 18         0.18658
      13 -> 22         0.26691
      13 -> 23         0.16117
      13 -> 24        -0.14446

 Excited State  14:      Singlet-A      7.5482 eV  164.26 nm  f=0.0001  <S**2>=0.000
       9 -> 15        -0.14188
      12 -> 17        -0.22240
      12 -> 18         0.36489
      12 -> 21        -0.21268
      12 -> 23        -0.13985
      13 -> 18         0.21135
      13 -> 20         0.27810
      13 -> 21        -0.10481
      13 -> 23         0.12470
      13 -> 24        -0.10762

 Excited State  15:      Singlet-A      7.7031 eV  160.95 nm  f=0.0035  <S**2>=0.000
      11 -> 15        -0.11789
      12 -> 19        -0.20166
      12 -> 21        -0.20612
      12 -> 23        -0.20982
      13 -> 18         0.14337
      13 -> 20        -0.23240
      13 -> 21         0.27041
      13 -> 22         0.38565
      13 -> 23         0.12565

 The electronic state is 1-A.
 Alpha  occ. eigenvalues --   -1.55494  -1.23359  -1.10188  -0.82862  -0.80672
 Alpha  occ. eigenvalues --   -0.68246  -0.59399  -0.57217  -0.51041  -0.49693
 Alpha  occ. eigenvalues --   -0.49216  -0.40102  -0.34205
 Alpha virt. eigenvalues --    0.02460   0.06843   0.09115   0.14075   0.14434
 Alpha virt. eigenvalues --    0.15740   0.17582   0.18210   0.19527   0.20728
 Alpha virt. eigenvalues --    0.22141

 Mulliken charges:
               1
     1  C   -0.184906
     2  C   -0.107105
     3  O   -0.106425
     4  C   -0.075876
     5  C   -0.215918
     6  H    0.159162
     7  H    0.188545
     8  H    0.187813
     9  H    0.154710
 Sum of Mulliken charges =   0.00000

 Dipole moment (field-independent basis, Debye):
    X=             -0.0163    Y=              0.5293    Z=              0.0336  Tot=              0.5307
 N-N= 1.034197323022D+02 E-N=-1.710186732687D+02  KE=-1.653455601384D+01
 Orbital energies and kinetic energies (alpha):
                                 1                 2
   1         O                -1.554936         -1.311777
   2         O                -1.233588         -1.044060
   3         O                -1.101879         -0.964611
   4         O                -0.828624         -0.736410
   5         O                -0.806721         -0.692037
   6         O                -0.682462         -0.601733
   7         O                -0.593994         -0.484025

 Normal termination of Gaussian 09 at Tue Dec 15 16:23:54 2015.
