 Gaussian 09, Revision D.01,
 Gaussian 09:  ES64L-G09RevD.01 24-Apr-2013

 ------------------------------------------------------------
 #P AM1(Input,print) CIS(Singlets,NStates=15) pop(full) force
 ------------------------------------------------------------

 -----------------
 AM1-Reparam Input
 -----------------
 Symbolic Z-matrix:
 Charge =  0 Multiplicity = 1

                         Standard orientation:
 ---------------------------------------------------------------------
 Center     Atomic      Atomic             Coordinates (Angstroms)
 Number     Number       Type             X           Y           Z
 ---------------------------------------------------------------------
      1          6           0       -1.020417    0.619512   -0.026118
      2          6           0       -0.891285   -0.654347    0.012216
      3          8           0        0.411707   -1.029125   -0.003098
      4          6           0        1.176884    0.035336   -0.000925
      5          6           0        0.295869    1.087925    0.013852
      6          1           0        0.646310    2.146935   -0.021383
      7          1           0        2.242712   -0.100238    0.002443
      8          1           0       -1.675040   -1.535533   -0.006018
      9          1           0       -1.873945    1.191277    0.055588
 ---------------------------------------------------------------------

 SCF Done:  E(RAM1) =  0.508303120867E-01 A.U. after   13 cycles

 Excitation energies and oscillator strengths:

 Excited State   1:      Singlet-A      4.6283 eV  267.88 nm  f=0.0977  <S**2>=0.000
      12 -> 15         0.20352
      13 -> 14         0.66775
 This state for optimization and/or second-order correction.
 Total Energy, E(CIS) =  0.220917636287
 Copying the excited state density for this state as the 1-particle RhoCI density.

 Excited State   2:      Singlet-A      4.8747 eV  254.34 nm  f=0.0000  <S**2>=0.000
      13 -> 16         0.67103
      13 -> 17        -0.10203
      13 -> 18        -0.13107

 Excited State   3:      Singlet-A      5.2279 eV  237.16 nm  f=0.0177  <S**2>=0.000
      12 -> 14        -0.36581
      13 -> 15         0.59832

 Excited State   4:      Singlet-A      5.8141 eV  213.25 nm  f=0.0002  <S**2>=0.000
      12 -> 18         0.13930
      13 -> 17        -0.16371
      13 -> 18         0.50892
      13 -> 19        -0.14674
      13 -> 21         0.12611
      13 -> 22         0.28166
      13 -> 23        -0.20253

 Excited State   5:      Singlet-A      6.0931 eV  203.48 nm  f=0.0020  <S**2>=0.000
       7 -> 16        -0.15266
      12 -> 16         0.64237
      12 -> 21         0.12804

 Excited State   6:      Singlet-A      6.4122 eV  193.36 nm  f=0.3205  <S**2>=0.000
      11 -> 16        -0.10129
      12 -> 14         0.56507
      13 -> 15         0.34265

 Excited State   7:      Singlet-A      6.4424 eV  192.45 nm  f=0.0010  <S**2>=0.000
      12 -> 22         0.12702
      13 -> 17         0.47656
      13 -> 19        -0.44034
      13 -> 20         0.14911

 Excited State   8:      Singlet-A      6.5096 eV  190.46 nm  f=0.0009  <S**2>=0.000
      10 -> 14         0.14207
      12 -> 19        -0.18280
      12 -> 20         0.14677
      12 -> 23        -0.14816
      13 -> 17         0.34086
      13 -> 18         0.15440
      13 -> 19         0.28674
      13 -> 22         0.23945
      13 -> 23         0.22874

 Excited State   9:      Singlet-A      6.7261 eV  184.33 nm  f=0.1716  <S**2>=0.000
      12 -> 15         0.65402
      13 -> 14        -0.18241

 Excited State  10:      Singlet-A      6.8386 eV  181.30 nm  f=0.0020  <S**2>=0.000
      10 -> 14        -0.30489
      11 -> 14         0.54932
      11 -> 15         0.20309
      13 -> 23         0.10631

 Excited State  11:      Singlet-A      7.1063 eV  174.47 nm  f=0.0010  <S**2>=0.000
      12 -> 17         0.39185
      12 -> 19        -0.28418
      12 -> 20         0.15576
      12 -> 21        -0.12696
      13 -> 17        -0.15014
      13 -> 18        -0.21394
      13 -> 19        -0.14740
      13 -> 21         0.10192
      13 -> 22         0.28586
      13 -> 23         0.10215

 Excited State  12:      Singlet-A      7.4178 eV  167.14 nm  f=0.0008  <S**2>=0.000
      10 -> 14        -0.17347
      12 -> 17         0.20873
      12 -> 19         0.25721
      12 -> 20         0.12534
      12 -> 22         0.13379
      12 -> 23         0.11155
      13 -> 17         0.13548
      13 -> 19         0.32365
      13 -> 20         0.35746
      13 -> 21         0.10854
      13 -> 23        -0.11082

 Excited State  13:      Singlet-A      7.4702 eV  165.97 nm  f=0.0080  <S**2>=0.000
       9 -> 14        -0.10365
      10 -> 14        -0.32586
      10 -> 15         0.32621
      11 -> 14        -0.25890
      11 -> 15         0.22202
      12 -> 17        -0.11486
      12 -> 23        -0.12056
      13 -> 18        -0.10219
      13 -> 20        -0.12772
      13 -> 21         0.22393

 Excited State  14:      Singlet-A      7.5276 eV  164.71 nm  f=0.0016  <S**2>=0.000
      10 -> 14         0.22987
      10 -> 15        -0.13251
      11 -> 14         0.16661
      12 -> 19         0.10074
      12 -> 20        -0.14583
      12 -> 21         0.16250
      12 -> 23        -0.11065
      13 -> 16        -0.10451
      13 -> 18        -0.26979
      13 -> 21         0.37538
      13 -> 22         0.16383
      13 -> 23        -0.20298

 Excited State  15:      Singlet-A      7.8018 eV  158.92 nm  f=0.0095  <S**2>=0.000
       9 -> 14        -0.12028
      10 -> 15         0.13748
      12 -> 17        -0.14261
      12 -> 18         0.17494
      12 -> 19         0.11844
      12 -> 20        -0.23094
      12 -> 23        -0.13763
      13 -> 17        -0.11863
      13 -> 20         0.28380
      13 -> 21        -0.15105
      13 -> 22         0.21652
      13 -> 23         0.36396

 The electronic state is 1-A.
 Alpha  occ. eigenvalues --   -1.60977  -1.25497  -1.10702  -0.83317  -0.80782
 Alpha  occ. eigenvalues --   -0.68879  -0.61910  -0.56305  -0.52194  -0.49444
 Alpha  occ. eigenvalues --   -0.48306  -0.40208  -0.34728
 Alpha virt. eigenvalues --    0.03807   0.07024   0.09175   0.13103   0.14641
 Alpha virt. eigenvalues --    0.15783   0.18032   0.18939   0.19508   0.20744
 Alpha virt. eigenvalues --    0.23288

 Mulliken charges:
               1
     1  C   -0.173653
     2  C   -0.108547
     3  O   -0.074756
     4  C   -0.094721
     5  C   -0.248408
     6  H    0.148046
     7  H    0.199748
     8  H    0.195140
     9  H    0.157151
 Sum of Mulliken charges =   0.00000

 Dipole moment (field-independent basis, Debye):
    X=             -0.0815    Y=              0.0581    Z=              0.0182  Tot=              0.1017
 N-N= 1.044487602521D+02 E-N=-1.726800327420D+02  KE=-1.665081144191D+01
 Orbital energies and kinetic energies (alpha):
                                 1                 2
   1         O                -1.609766         -1.350248
   2         O                -1.254972         -1.061588
   3         O                -1.107021         -0.961086
   4         O                -0.833166         -0.705202
   5         O                -0.807822         -0.716642
   6         O                -0.688793         -0.605684
   7         O                -0.619102         -0.500854

 Normal termination of Gaussian 09 at Tue Dec 15 16:17:12 2015.
