 Gaussian 09, Revision D.01,
 Gaussian 09:  ES64L-G09RevD.01 24-Apr-2013

 ------------------------------------------------------------
 #P AM1(Input,print) CIS(Singlets,NStates=15) pop(full) force
 ------------------------------------------------------------

 -----------------
 AM1-Reparam Input
 -----------------
 Symbolic Z-matrix:
 Charge =  0 Multiplicity = 1

                         Standard orientation:
 ---------------------------------------------------------------------
 Center     Atomic      Atomic             Coordinates (Angstroms)
 Number     Number       Type             X           Y           Z
 ---------------------------------------------------------------------
      1          6           0        0.233851    1.154702    0.003250
      2          6           0        1.135344    0.102583   -0.003083
      3          8           0        0.513178   -1.038706   -0.012188
      4          6           0       -0.894355   -0.752286    0.020260
      5          6           0       -1.039467    0.578183   -0.021205
      6          1           0       -1.994764    1.099424   -0.005095
      7          1           0       -1.506241   -1.562490    0.034581
      8          1           0        2.247521    0.079366    0.026829
      9          1           0        0.535823    2.194256    0.045854
 ---------------------------------------------------------------------

 SCF Done:  E(RAM1) =   2.60113596797     A.U. after   14 cycles

 Excitation energies and oscillator strengths:

 Excited State   1:      Singlet-A      5.1898 eV  238.90 nm  f=0.3442  <S**2>=0.000
      13 -> 14         0.69774
 This state for optimization and/or second-order correction.
 Total Energy, E(CIS) =   2.79185921512
 Copying the excited state density for this state as the 1-particle RhoCI density.

 Excited State   2:      Singlet-A      6.0568 eV  204.70 nm  f=0.0017  <S**2>=0.000
      10 -> 15         0.10630
      13 -> 15         0.67327
      13 -> 18        -0.12108

 Excited State   3:      Singlet-A      6.7299 eV  184.23 nm  f=0.0014  <S**2>=0.000
      12 -> 14         0.67888
      13 -> 16         0.14666

 Excited State   4:      Singlet-A      6.8627 eV  180.66 nm  f=0.0027  <S**2>=0.000
      11 -> 14         0.12004
      12 -> 14        -0.14972
      13 -> 16         0.65163

 Excited State   5:      Singlet-A      7.3482 eV  168.73 nm  f=0.0053  <S**2>=0.000
      11 -> 14         0.68576
      13 -> 16        -0.10411

 Excited State   6:      Singlet-A      8.0107 eV  154.77 nm  f=0.0000  <S**2>=0.000
      13 -> 16        -0.11101
      13 -> 17         0.66085
      13 -> 18        -0.10547
      13 -> 21         0.12323

 Excited State   7:      Singlet-A      8.5351 eV  145.26 nm  f=0.1038  <S**2>=0.000
      10 -> 14         0.67923

 Excited State   8:      Singlet-A      9.0307 eV  137.29 nm  f=0.0081  <S**2>=0.000
       7 -> 15        -0.11814
      10 -> 15         0.29173
      13 -> 18         0.60560

 Excited State   9:      Singlet-A      9.3474 eV  132.64 nm  f=0.0171  <S**2>=0.000
       9 -> 15         0.15195
      10 -> 14         0.10901
      11 -> 16         0.24286
      11 -> 18        -0.15365
      12 -> 15         0.45892
      12 -> 16        -0.12950
      12 -> 17        -0.30942

 Excited State  10:      Singlet-A      9.4791 eV  130.80 nm  f=0.1819  <S**2>=0.000
      11 -> 15         0.54834
      11 -> 18        -0.18008
      12 -> 15        -0.30461
      13 -> 18        -0.10729

 Excited State  11:      Singlet-A      9.7760 eV  126.82 nm  f=0.0053  <S**2>=0.000
       7 -> 16         0.10661
      10 -> 15         0.14732
      10 -> 16         0.33120
      13 -> 17        -0.12523
      13 -> 19         0.56272

 Excited State  12:      Singlet-A      9.8051 eV  126.45 nm  f=0.0113  <S**2>=0.000
       7 -> 15        -0.12505
      10 -> 15         0.57886
      13 -> 15        -0.16727
      13 -> 18        -0.25280
      13 -> 19        -0.19158

 Excited State  13:      Singlet-A     10.0047 eV  123.93 nm  f=0.1822  <S**2>=0.000
      11 -> 15        -0.13216
      11 -> 16         0.28825
      11 -> 19         0.13471
      12 -> 16         0.53036
      12 -> 17        -0.18941
      12 -> 19         0.14417

 Excited State  14:      Singlet-A     10.3415 eV  119.89 nm  f=0.0119  <S**2>=0.000
       8 -> 16        -0.12035
       9 -> 15         0.22435
      11 -> 15         0.17004
      11 -> 16        -0.10902
      11 -> 17         0.17026
      11 -> 19        -0.10634
      12 -> 15         0.26287
      12 -> 16         0.36106
      12 -> 17         0.30172

 Excited State  15:      Singlet-A     10.5877 eV  117.10 nm  f=0.0007  <S**2>=0.000
       8 -> 14        -0.10951
       9 -> 14         0.66969
      10 -> 16         0.10426

 The electronic state is 1-A.
 Alpha  occ. eigenvalues --   -1.84990  -1.13089  -0.87797  -0.79421  -0.75075
 Alpha  occ. eigenvalues --   -0.66913  -0.63514  -0.56361  -0.54585  -0.44891
 Alpha  occ. eigenvalues --   -0.44189  -0.42657  -0.30307
 Alpha virt. eigenvalues --    0.09249   0.14960   0.19440   0.25368   0.27068
 Alpha virt. eigenvalues --    0.30269   0.35839   0.40484   0.48156   0.55622
 Alpha virt. eigenvalues --    0.59767

 Mulliken charges:
               1
     1  C   -0.263001
     2  C   -2.036271
     3  O    3.436262
     4  C   -1.961632
     5  C   -0.107576
     6  H    0.191479
     7  H    0.247976
     8  H    0.294621
     9  H    0.198142
 Sum of Mulliken charges =   0.00000

 Dipole moment (field-independent basis, Debye):
    X=              5.4927    Y=             -9.9420    Z=             -0.1875  Tot=             11.3599
 N-N= 1.040645457698D+02 E-N=-1.696803687787D+02  KE=-1.437068405290D+01
 Orbital energies and kinetic energies (alpha):
                                 1                 2
   1         O                -1.849901         -1.246973
   2         O                -1.130890         -0.971434
   3         O                -0.877970         -0.793644
   4         O                -0.794206         -0.527506
   5         O                -0.750748         -0.628365
   6         O                -0.669133         -0.544478
   7         O                -0.635138         -0.494525

 Normal termination of Gaussian 09 at Tue Dec 15 17:07:35 2015.
