 Gaussian 09, Revision D.01,
 Gaussian 09:  ES64L-G09RevD.01 24-Apr-2013

 ------------------------------------------------------------
 #P AM1(Input,print) CIS(Singlets,NStates=15) pop(full) force
 ------------------------------------------------------------

 -----------------
 AM1-Reparam Input
 -----------------
 Symbolic Z-matrix:
 Charge =  0 Multiplicity = 1

                         Standard orientation:
 ---------------------------------------------------------------------
 Center     Atomic      Atomic             Coordinates (Angstroms)
 Number     Number       Type             X           Y           Z
 ---------------------------------------------------------------------
      1          6           0       -0.758455    0.927988   -0.011958
      2          6           0       -1.090365   -0.318593    0.029877
      3          8           0        0.016607   -1.170386   -0.037171
      4          6           0        1.068205   -0.332823    0.042094
      5          6           0        0.758371    0.984817   -0.009150
      6          1           0        1.365174    1.773344   -0.016099
      7          1           0        2.037449   -0.902824   -0.007160
      8          1           0       -2.057556   -0.851726    0.034843
      9          1           0       -1.344462    1.775963   -0.019400
 ---------------------------------------------------------------------

 SCF Done:  E(RAM1) =   2.17395673146     A.U. after   13 cycles

 Excitation energies and oscillator strengths:

 Excited State   1:      Singlet-A      5.0564 eV  245.20 nm  f=0.3644  <S**2>=0.000
      13 -> 14         0.69718
 This state for optimization and/or second-order correction.
 Total Energy, E(CIS) =   2.35977550116
 Copying the excited state density for this state as the 1-particle RhoCI density.

 Excited State   2:      Singlet-A      5.5747 eV  222.40 nm  f=0.0004  <S**2>=0.000
      13 -> 15         0.67910
      13 -> 17        -0.12965

 Excited State   3:      Singlet-A      6.0444 eV  205.12 nm  f=0.0008  <S**2>=0.000
      13 -> 16         0.67877
      13 -> 18         0.13734

 Excited State   4:      Singlet-A      6.7947 eV  182.47 nm  f=0.0004  <S**2>=0.000
      12 -> 14         0.70276

 Excited State   5:      Singlet-A      7.4710 eV  165.95 nm  f=0.0009  <S**2>=0.000
      13 -> 15         0.11115
      13 -> 17         0.52928
      13 -> 18         0.37791
      13 -> 22         0.21629

 Excited State   6:      Singlet-A      8.1471 eV  152.18 nm  f=0.0195  <S**2>=0.000
      10 -> 14         0.17552
      13 -> 17        -0.40353
      13 -> 18         0.51987

 Excited State   7:      Singlet-A      8.4632 eV  146.50 nm  f=0.0005  <S**2>=0.000
      10 -> 14         0.66780
      13 -> 17         0.12191
      13 -> 18        -0.11372

 Excited State   8:      Singlet-A      8.7864 eV  141.11 nm  f=0.0050  <S**2>=0.000
      11 -> 14        -0.22212
      13 -> 19         0.61689
      13 -> 20         0.12420
      13 -> 22         0.13258

 Excited State   9:      Singlet-A      8.8246 eV  140.50 nm  f=0.0278  <S**2>=0.000
      11 -> 14         0.55607
      12 -> 16        -0.15964
      13 -> 19         0.15962
      13 -> 20         0.31634

 Excited State  10:      Singlet-A      9.1274 eV  135.84 nm  f=0.2197  <S**2>=0.000
       9 -> 15         0.13021
      12 -> 15         0.54898
      12 -> 16        -0.29001
      12 -> 17        -0.15260
      12 -> 18        -0.13050

 Excited State  11:      Singlet-A      9.4414 eV  131.32 nm  f=0.0021  <S**2>=0.000
      13 -> 17        -0.12178
      13 -> 18        -0.19754
      13 -> 20        -0.11331
      13 -> 21        -0.29794
      13 -> 22         0.57263

 Excited State  12:      Singlet-A      9.6125 eV  128.98 nm  f=0.0535  <S**2>=0.000
      11 -> 15        -0.11708
      12 -> 15         0.15038
      12 -> 16         0.19350
      13 -> 19        -0.23032
      13 -> 20         0.43210
      13 -> 21         0.32091
      13 -> 22         0.21160

 Excited State  13:      Singlet-A      9.7474 eV  127.20 nm  f=0.0763  <S**2>=0.000
      11 -> 14         0.14389
      11 -> 15         0.14343
      12 -> 15         0.25593
      12 -> 16         0.45209
      13 -> 21        -0.35304
      13 -> 22        -0.12447

 Excited State  14:      Singlet-A      9.8018 eV  126.49 nm  f=0.1750  <S**2>=0.000
      11 -> 14        -0.26539
      11 -> 15         0.28283
      12 -> 16        -0.26935
      13 -> 19        -0.11277
      13 -> 20         0.36534
      13 -> 21        -0.29457

 Excited State  15:      Singlet-A      9.8539 eV  125.82 nm  f=0.0145  <S**2>=0.000
       7 -> 15         0.12458
      11 -> 15         0.57138
      13 -> 15         0.10671
      13 -> 20        -0.15008
      13 -> 21         0.26736
      13 -> 22         0.15342

 The electronic state is 1-A.
 Alpha  occ. eigenvalues --   -1.93656  -1.18511  -0.93482  -0.81162  -0.77803
 Alpha  occ. eigenvalues --   -0.69878  -0.65422  -0.53992  -0.53048  -0.45719
 Alpha  occ. eigenvalues --   -0.44477  -0.40084  -0.26586
 Alpha virt. eigenvalues --    0.11695   0.16070   0.17816   0.27462   0.29010
 Alpha virt. eigenvalues --    0.30642   0.31105   0.32991   0.33453   0.39925
 Alpha virt. eigenvalues --    0.43221

 Mulliken charges:
               1
     1  C   -0.118342
     2  C   -1.817590
     3  O    3.187247
     4  C   -1.846553
     5  C   -0.214375
     6  H    0.154870
     7  H    0.253214
     8  H    0.253984
     9  H    0.147545
 Sum of Mulliken charges =   0.00000

 Dipole moment (field-independent basis, Debye):
    X=              0.0298    Y=            -11.7768    Z=             -1.0500  Tot=             11.8235
 N-N= 1.040564662738D+02 E-N=-1.691623062529D+02  KE=-1.532632485107D+01
 Orbital energies and kinetic energies (alpha):
                                 1                 2
   1         O                -1.936561         -1.351600
   2         O                -1.185110         -1.055140
   3         O                -0.934819         -0.892734
   4         O                -0.811619         -0.570319
   5         O                -0.778028         -0.674614
   6         O                -0.698784         -0.589285
   7         O                -0.654223         -0.525582

 Normal termination of Gaussian 09 at Tue Dec 15 17:09:12 2015.
