 Gaussian 09, Revision D.01,
 Gaussian 09:  ES64L-G09RevD.01 24-Apr-2013

 ------------------------------------------------------------
 #P AM1(Input,print) CIS(Singlets,NStates=15) pop(full) force
 ------------------------------------------------------------

 -----------------
 AM1-Reparam Input
 -----------------
 Symbolic Z-matrix:
 Charge =  0 Multiplicity = 1

                         Standard orientation:
 ---------------------------------------------------------------------
 Center     Atomic      Atomic             Coordinates (Angstroms)
 Number     Number       Type             X           Y           Z
 ---------------------------------------------------------------------
      1          6           0       -0.649209    0.952741   -0.010527
      2          6           0       -1.125689   -0.286260   -0.018166
      3          8           0       -0.016815   -1.185070    0.020537
      4          6           0        1.071734   -0.378041   -0.018015
      5          6           0        0.715134    0.952553    0.003449
      6          1           0        1.405952    1.806359    0.024339
      7          1           0        1.996069   -0.867944    0.000200
      8          1           0       -2.049384   -0.749091    0.004314
      9          1           0       -1.289940    1.845278    0.066410
 ---------------------------------------------------------------------

 SCF Done:  E(RAM1) =   2.85646541291     A.U. after   13 cycles

 Excitation energies and oscillator strengths:

 Excited State   1:      Singlet-A      5.5499 eV  223.40 nm  f=0.3127  <S**2>=0.000
      13 -> 14         0.69163
 This state for optimization and/or second-order correction.
 Total Energy, E(CIS) =   3.06041885081
 Copying the excited state density for this state as the 1-particle RhoCI density.

 Excited State   2:      Singlet-A      6.5768 eV  188.52 nm  f=0.0042  <S**2>=0.000
      10 -> 15        -0.10607
      13 -> 15         0.64287
      13 -> 17         0.22111

 Excited State   3:      Singlet-A      6.9637 eV  178.04 nm  f=0.0019  <S**2>=0.000
      12 -> 14         0.61547
      13 -> 16         0.29103

 Excited State   4:      Singlet-A      7.0349 eV  176.24 nm  f=0.0009  <S**2>=0.000
      12 -> 14        -0.32035
      13 -> 16         0.57380
      13 -> 18        -0.13353

 Excited State   5:      Singlet-A      7.7594 eV  159.79 nm  f=0.0079  <S**2>=0.000
      10 -> 14         0.33948
      11 -> 14         0.57093
      13 -> 17         0.17350

 Excited State   6:      Singlet-A      8.0090 eV  154.81 nm  f=0.0070  <S**2>=0.000
      10 -> 14        -0.10552
      10 -> 15         0.10889
      11 -> 14        -0.18702
      13 -> 15        -0.18301
      13 -> 17         0.55838
      13 -> 18         0.19298
      13 -> 21        -0.20914

 Excited State   7:      Singlet-A      8.2285 eV  150.68 nm  f=0.0045  <S**2>=0.000
      10 -> 16         0.10276
      13 -> 16         0.14745
      13 -> 17        -0.28193
      13 -> 18         0.44143
      13 -> 19         0.12423
      13 -> 21        -0.40167

 Excited State   8:      Singlet-A      8.7667 eV  141.43 nm  f=0.0552  <S**2>=0.000
      10 -> 14         0.53285
      11 -> 14        -0.29838
      13 -> 19        -0.26691

 Excited State   9:      Singlet-A      8.7723 eV  141.34 nm  f=0.0130  <S**2>=0.000
      10 -> 14         0.22363
      11 -> 14        -0.15700
      13 -> 16        -0.11303
      13 -> 18        -0.13560
      13 -> 19         0.58997

 Excited State  10:      Singlet-A      9.1876 eV  134.95 nm  f=0.0046  <S**2>=0.000
      13 -> 18         0.45638
      13 -> 19         0.13274
      13 -> 20         0.16208
      13 -> 21         0.48241

 Excited State  11:      Singlet-A      9.3549 eV  132.53 nm  f=0.0326  <S**2>=0.000
       8 -> 15         0.11160
       9 -> 15        -0.12528
      10 -> 14        -0.10010
      10 -> 17         0.14747
      11 -> 16         0.16463
      11 -> 17         0.20739
      11 -> 18        -0.13228
      12 -> 15         0.36677
      12 -> 17         0.21070
      12 -> 18         0.22791
      12 -> 21        -0.12099

 Excited State  12:      Singlet-A      9.5652 eV  129.62 nm  f=0.0928  <S**2>=0.000
      13 -> 19        -0.13339
      13 -> 20         0.65311
      13 -> 21        -0.15776

 Excited State  13:      Singlet-A      9.8561 eV  125.79 nm  f=0.2326  <S**2>=0.000
      11 -> 15         0.37290
      11 -> 16         0.12122
      11 -> 17         0.13425
      12 -> 15        -0.18877
      12 -> 16         0.43679
      12 -> 17         0.10582
      12 -> 19         0.18604

 Excited State  14:      Singlet-A      9.8752 eV  125.55 nm  f=0.0393  <S**2>=0.000
      10 -> 15        -0.10090
      11 -> 15        -0.31704
      11 -> 17        -0.12745
      12 -> 15         0.31869
      12 -> 16         0.41864
      12 -> 17         0.10463
      12 -> 18        -0.11502
      12 -> 20         0.13207

 Excited State  15:      Singlet-A      9.9573 eV  124.52 nm  f=0.0484  <S**2>=0.000
       7 -> 15         0.12044
      10 -> 15         0.55349
      10 -> 17         0.12984
      11 -> 15        -0.18198
      12 -> 15        -0.17570
      12 -> 16         0.14969
      12 -> 19         0.10078
      13 -> 15         0.15473

 The electronic state is 1-A.
 Alpha  occ. eigenvalues --   -1.70628  -1.13212  -0.91998  -0.78349  -0.76053
 Alpha  occ. eigenvalues --   -0.66537  -0.63104  -0.53110  -0.49967  -0.42386
 Alpha  occ. eigenvalues --   -0.41893  -0.39469  -0.28476
 Alpha virt. eigenvalues --    0.13236   0.18968   0.21048   0.25068   0.27876
 Alpha virt. eigenvalues --    0.28859   0.30545   0.32176   0.35358   0.44773
 Alpha virt. eigenvalues --    0.48031

 Mulliken charges:
               1
     1  C   -0.081809
     2  C   -1.923024
     3  O    3.208224
     4  C   -1.961854
     5  C   -0.167852
     6  H    0.178343
     7  H    0.296269
     8  H    0.280644
     9  H    0.171060
 Sum of Mulliken charges =   0.00000

 Dipole moment (field-independent basis, Debye):
    X=              0.0374    Y=            -10.9172    Z=              0.6696  Tot=             10.9378
 N-N= 1.040273826845D+02 E-N=-1.692422510607D+02  KE=-1.479594059395D+01
 Orbital energies and kinetic energies (alpha):
                                 1                 2
   1         O                -1.706278         -1.191775
   2         O                -1.132123         -1.002214
   3         O                -0.919983         -0.854436
   4         O                -0.783493         -0.595065
   5         O                -0.760527         -0.677213
   6         O                -0.665373         -0.576450
   7         O                -0.631044         -0.526774

 Normal termination of Gaussian 09 at Tue Dec 15 17:06:02 2015.
