 Gaussian 09, Revision D.01,
 Gaussian 09:  ES64L-G09RevD.01 24-Apr-2013

 ------------------------------------------------------------
 #P AM1(Input,print) CIS(Singlets,NStates=15) pop(full) force
 ------------------------------------------------------------

 -----------------
 AM1-Reparam Input
 -----------------
 Symbolic Z-matrix:
 Charge =  0 Multiplicity = 1

                         Standard orientation:
 ---------------------------------------------------------------------
 Center     Atomic      Atomic             Coordinates (Angstroms)
 Number     Number       Type             X           Y           Z
 ---------------------------------------------------------------------
      1          6           0       -1.019134    0.700298   -0.028078
      2          6           0       -0.896149   -0.702093    0.005899
      3          8           0        0.366618   -1.083516   -0.012352
      4          6           0        1.164285   -0.002440    0.015332
      5          6           0        0.363164    1.140054    0.027278
      6          1           0        0.743042    2.129363   -0.022659
      7          1           0        2.214252   -0.156025   -0.065589
      8          1           0       -1.697125   -1.438065    0.071687
      9          1           0       -1.866105    1.317940   -0.007204
 ---------------------------------------------------------------------

 SCF Done:  E(RAM1) =   1.08876669334     A.U. after   13 cycles

 Excitation energies and oscillator strengths:

 Excited State   1:      Singlet-A      5.5910 eV  221.76 nm  f=0.2259  <S**2>=0.000
      12 -> 16         0.11256
      13 -> 14         0.68151
 This state for optimization and/or second-order correction.
 Total Energy, E(CIS) =   1.29423330791
 Copying the excited state density for this state as the 1-particle RhoCI density.

 Excited State   2:      Singlet-A      6.5949 eV  188.00 nm  f=0.0065  <S**2>=0.000
      13 -> 15         0.67560
      13 -> 19        -0.11608

 Excited State   3:      Singlet-A      7.0728 eV  175.30 nm  f=0.0035  <S**2>=0.000
      12 -> 14        -0.35798
      13 -> 16         0.48432
      13 -> 17         0.28514
      13 -> 18        -0.13011
      13 -> 21        -0.10488

 Excited State   4:      Singlet-A      7.1830 eV  172.61 nm  f=0.0125  <S**2>=0.000
      11 -> 14        -0.18908
      12 -> 14         0.43463
      13 -> 17         0.48036
      13 -> 18        -0.13087

 Excited State   5:      Singlet-A      7.3498 eV  168.69 nm  f=0.0008  <S**2>=0.000
       9 -> 14         0.21630
      11 -> 14         0.63258
      12 -> 14         0.14599
      13 -> 17         0.13277

 Excited State   6:      Singlet-A      7.9718 eV  155.53 nm  f=0.0079  <S**2>=0.000
       9 -> 14         0.10996
      10 -> 14         0.67186
      13 -> 16        -0.10234

 Excited State   7:      Singlet-A      8.1732 eV  151.70 nm  f=0.2168  <S**2>=0.000
      10 -> 14         0.11973
      12 -> 14         0.36208
      12 -> 15        -0.12628
      13 -> 16         0.43125
      13 -> 17        -0.25408
      13 -> 18         0.20739

 Excited State   8:      Singlet-A      8.2096 eV  151.02 nm  f=0.0287  <S**2>=0.000
      12 -> 14         0.11775
      12 -> 15         0.49280
      13 -> 16         0.13714
      13 -> 17        -0.15388
      13 -> 18        -0.38084
      13 -> 22        -0.12418

 Excited State   9:      Singlet-A      8.4685 eV  146.41 nm  f=0.0037  <S**2>=0.000
      12 -> 15         0.43305
      13 -> 17         0.18978
      13 -> 18         0.44157
      13 -> 19         0.11291
      13 -> 21        -0.12426
      13 -> 22         0.12908

 Excited State  10:      Singlet-A      8.8500 eV  140.10 nm  f=0.0633  <S**2>=0.000
       9 -> 15         0.11524
       9 -> 16        -0.19359
      11 -> 15        -0.14474
      11 -> 16         0.34687
      11 -> 17        -0.22806
      12 -> 16         0.43489

 Excited State  11:      Singlet-A      8.9020 eV  139.28 nm  f=0.0307  <S**2>=0.000
       9 -> 16         0.12563
       9 -> 17        -0.15270
      11 -> 15         0.15277
      11 -> 16        -0.33698
      11 -> 17         0.17228
      12 -> 16         0.40749
      12 -> 17         0.22233
      13 -> 19        -0.15875

 Excited State  12:      Singlet-A      9.0693 eV  136.71 nm  f=0.0012  <S**2>=0.000
      11 -> 15         0.10058
      13 -> 19         0.12691
      13 -> 20         0.60987
      13 -> 21        -0.21582
      13 -> 23         0.13773

 Excited State  13:      Singlet-A      9.0900 eV  136.40 nm  f=0.0189  <S**2>=0.000
       9 -> 14         0.52800
      11 -> 14        -0.18496
      11 -> 16        -0.11941
      12 -> 17        -0.31277
      13 -> 19         0.11731

 Excited State  14:      Singlet-A      9.1395 eV  135.66 nm  f=0.0885  <S**2>=0.000
       9 -> 14         0.34491
       9 -> 17         0.11509
      11 -> 14        -0.12682
      12 -> 16        -0.19997
      12 -> 17         0.48426
      13 -> 19        -0.14809

 Excited State  15:      Singlet-A      9.1957 eV  134.83 nm  f=0.0323  <S**2>=0.000
       9 -> 14         0.11059
       9 -> 15        -0.22319
       9 -> 16        -0.13281
      10 -> 17        -0.14700
      11 -> 15         0.47306
      11 -> 16         0.23962
      11 -> 20         0.11148
      13 -> 20        -0.12929

 The electronic state is 1-A.
 Alpha  occ. eigenvalues --   -1.84346  -1.17749  -0.98881  -0.87713  -0.80399
 Alpha  occ. eigenvalues --   -0.74197  -0.71772  -0.61532  -0.55266  -0.53359
 Alpha  occ. eigenvalues --   -0.50614  -0.47238  -0.39285
 Alpha virt. eigenvalues --    0.02464   0.09276   0.10673   0.11450   0.17943
 Alpha virt. eigenvalues --    0.19161   0.20317   0.21025   0.26146   0.26439
 Alpha virt. eigenvalues --    0.28941

 Mulliken charges:
               1
     1  C   -0.108914
     2  C   -1.305119
     3  O    2.170984
     4  C   -1.285863
     5  C   -0.106476
     6  H    0.107824
     7  H    0.202009
     8  H    0.221149
     9  H    0.104407
 Sum of Mulliken charges =   0.00000

 Dipole moment (field-independent basis, Debye):
    X=              1.9535    Y=             -6.4215    Z=             -0.2283  Tot=              6.7159
 N-N= 1.042166773732D+02 E-N=-1.708200448337D+02  KE=-1.498874721538D+01
 Orbital energies and kinetic energies (alpha):
                                 1                 2
   1         O                -1.843457         -1.255921
   2         O                -1.177489         -0.960325
   3         O                -0.988813         -0.785283
   4         O                -0.877126         -0.653128
   5         O                -0.803993         -0.669125
   6         O                -0.741968         -0.603503
   7         O                -0.717721         -0.507275

 Normal termination of Gaussian 09 at Tue Dec 15 17:05:29 2015.
