 Gaussian 09, Revision D.01,
 Gaussian 09:  ES64L-G09RevD.01 24-Apr-2013

 ------------------------------------------------------------
 #P AM1(Input,print) CIS(Singlets,NStates=15) pop(full) force
 ------------------------------------------------------------

 -----------------
 AM1-Reparam Input
 -----------------
 Symbolic Z-matrix:
 Charge =  0 Multiplicity = 1

                         Standard orientation:
 ---------------------------------------------------------------------
 Center     Atomic      Atomic             Coordinates (Angstroms)
 Number     Number       Type             X           Y           Z
 ---------------------------------------------------------------------
      1          6           0       -1.019134    0.700298   -0.028078
      2          6           0       -0.896149   -0.702093    0.005899
      3          8           0        0.366618   -1.083516   -0.012352
      4          6           0        1.164285   -0.002440    0.015332
      5          6           0        0.363164    1.140054    0.027278
      6          1           0        0.743042    2.129363   -0.022659
      7          1           0        2.214252   -0.156025   -0.065589
      8          1           0       -1.697125   -1.438065    0.071687
      9          1           0       -1.866105    1.317940   -0.007204
 ---------------------------------------------------------------------

 SCF Done:  E(RAM1) =   2.78025223200     A.U. after   14 cycles

 Excitation energies and oscillator strengths:

 Excited State   1:      Singlet-A      5.3600 eV  231.32 nm  f=0.3551  <S**2>=0.000
      13 -> 14         0.69581
 This state for optimization and/or second-order correction.
 Total Energy, E(CIS) =   2.97722714323
 Copying the excited state density for this state as the 1-particle RhoCI density.

 Excited State   2:      Singlet-A      6.6340 eV  186.89 nm  f=0.0090  <S**2>=0.000
      12 -> 14         0.11656
      13 -> 15         0.63427
      13 -> 17         0.23104

 Excited State   3:      Singlet-A      6.7083 eV  184.82 nm  f=0.0006  <S**2>=0.000
       9 -> 14        -0.15022
      12 -> 14         0.67340
      13 -> 15        -0.10854

 Excited State   4:      Singlet-A      6.9206 eV  179.15 nm  f=0.0019  <S**2>=0.000
      13 -> 16         0.61974
      13 -> 18        -0.26992
      13 -> 21        -0.10359

 Excited State   5:      Singlet-A      7.8167 eV  158.62 nm  f=0.0071  <S**2>=0.000
      10 -> 14         0.65787
      13 -> 17        -0.11683
      13 -> 21        -0.13764

 Excited State   6:      Singlet-A      7.9068 eV  156.81 nm  f=0.0002  <S**2>=0.000
      10 -> 14         0.20655
      11 -> 15        -0.12670
      13 -> 15        -0.11614
      13 -> 16         0.15841
      13 -> 17         0.18757
      13 -> 18         0.30728
      13 -> 19         0.31365
      13 -> 20        -0.18889
      13 -> 21         0.36043

 Excited State   7:      Singlet-A      8.3060 eV  149.27 nm  f=0.0165  <S**2>=0.000
      11 -> 16         0.15821
      13 -> 15        -0.16044
      13 -> 16        -0.13822
      13 -> 17         0.60251
      13 -> 18        -0.11837
      13 -> 19        -0.11970
      13 -> 20         0.11346

 Excited State   8:      Singlet-A      8.3941 eV  147.70 nm  f=0.1198  <S**2>=0.000
      10 -> 14        -0.10381
      11 -> 14         0.68654

 Excited State   9:      Singlet-A      8.7396 eV  141.86 nm  f=0.0006  <S**2>=0.000
      11 -> 15        -0.10812
      13 -> 16         0.15840
      13 -> 18         0.47990
      13 -> 19        -0.42488
      13 -> 21        -0.12731

 Excited State  10:      Singlet-A      9.2251 eV  134.40 nm  f=0.0009  <S**2>=0.000
      13 -> 18        -0.21944
      13 -> 19        -0.43392
      13 -> 20        -0.15495
      13 -> 21         0.47581

 Excited State  11:      Singlet-A      9.4523 eV  131.17 nm  f=0.0210  <S**2>=0.000
       8 -> 15        -0.11648
       9 -> 16         0.10077
       9 -> 18        -0.14084
      10 -> 15        -0.14117
      10 -> 16        -0.15078
      10 -> 17        -0.20302
      12 -> 15         0.35362
      12 -> 16        -0.19115
      12 -> 17         0.14455
      12 -> 18         0.18830
      12 -> 19         0.17341
      12 -> 21         0.10658
      13 -> 20         0.20752

 Excited State  12:      Singlet-A      9.5251 eV  130.17 nm  f=0.0012  <S**2>=0.000
       9 -> 14         0.66117
      12 -> 14         0.14547
      13 -> 20         0.13481

 Excited State  13:      Singlet-A      9.5552 eV  129.76 nm  f=0.0752  <S**2>=0.000
      12 -> 15        -0.15660
      13 -> 20         0.58462
      13 -> 21         0.25477

 Excited State  14:      Singlet-A      9.7414 eV  127.28 nm  f=0.0469  <S**2>=0.000
      10 -> 16        -0.11208
      11 -> 15         0.12884
      12 -> 15         0.34795
      12 -> 16         0.48412
      12 -> 17         0.14521
      12 -> 18        -0.14262

 Excited State  15:      Singlet-A      9.8174 eV  126.29 nm  f=0.0376  <S**2>=0.000
      10 -> 16         0.12755
      11 -> 15         0.52481
      11 -> 16         0.16700
      11 -> 17         0.14078
      12 -> 16        -0.21395
      12 -> 19        -0.11173
      13 -> 15        -0.10684
      13 -> 16         0.11421

 The electronic state is 1-A.
 Alpha  occ. eigenvalues --   -1.72465  -1.10512  -0.91948  -0.79699  -0.74782
 Alpha  occ. eigenvalues --   -0.66875  -0.63613  -0.54705  -0.49011  -0.45136
 Alpha  occ. eigenvalues --   -0.43162  -0.41019  -0.29892
 Alpha virt. eigenvalues --    0.10129   0.17815   0.19072   0.24105   0.25968
 Alpha virt. eigenvalues --    0.27991   0.28901   0.29009   0.39508   0.47967
 Alpha virt. eigenvalues --    0.52800

 Mulliken charges:
               1
     1  C   -0.127755
     2  C   -1.997680
     3  O    3.218607
     4  C   -1.972200
     5  C   -0.109722
     6  H    0.179300
     7  H    0.305846
     8  H    0.322826
     9  H    0.180777
 Sum of Mulliken charges =   0.00000

 Dipole moment (field-independent basis, Debye):
    X=              2.8449    Y=             -9.1109    Z=             -0.3527  Tot=              9.5512
 N-N= 1.038053355796D+02 E-N=-1.688323582320D+02  KE=-1.476138676098D+01
 Orbital energies and kinetic energies (alpha):
                                 1                 2
   1         O                -1.724655         -1.228289
   2         O                -1.105123         -0.979049
   3         O                -0.919484         -0.828496
   4         O                -0.796987         -0.608074
   5         O                -0.747820         -0.679817
   6         O                -0.668747         -0.579958
   7         O                -0.636135         -0.514349

 Normal termination of Gaussian 09 at Tue Dec 15 17:05:49 2015.
