 Gaussian 09, Revision D.01,
 Gaussian 09:  ES64L-G09RevD.01 24-Apr-2013

 ------------------------------------------------------------
 #P AM1(Input,print) CIS(Singlets,NStates=15) pop(full) force
 ------------------------------------------------------------

 -----------------
 AM1-Reparam Input
 -----------------
 Symbolic Z-matrix:
 Charge =  0 Multiplicity = 1

                         Standard orientation:
 ---------------------------------------------------------------------
 Center     Atomic      Atomic             Coordinates (Angstroms)
 Number     Number       Type             X           Y           Z
 ---------------------------------------------------------------------
      1          6           0       -1.066028    0.549571    0.013166
      2          6           0       -0.878971   -0.796044   -0.016967
      3          8           0        0.582850   -1.035453    0.006998
      4          6           0        1.153102    0.178886   -0.007447
      5          6           0        0.175993    1.158476   -0.003216
      6          1           0        0.382676    2.257368   -0.024410
      7          1           0        2.218832    0.183356    0.032427
      8          1           0       -1.469872   -1.686384    0.003517
      9          1           0       -2.099014    0.983952    0.019260
 ---------------------------------------------------------------------

 SCF Done:  E(RAM1) =   2.82040324964     A.U. after   14 cycles

 Excitation energies and oscillator strengths:

 Excited State   1:      Singlet-A      5.4416 eV  227.85 nm  f=0.3105  <S**2>=0.000
      11 -> 17        -0.10075
      13 -> 14         0.69244
 This state for optimization and/or second-order correction.
 Total Energy, E(CIS) =   3.02037780267
 Copying the excited state density for this state as the 1-particle RhoCI density.

 Excited State   2:      Singlet-A      6.4161 eV  193.24 nm  f=0.0036  <S**2>=0.000
      10 -> 15         0.12491
      13 -> 15         0.64124
      13 -> 17         0.22262

 Excited State   3:      Singlet-A      7.0178 eV  176.67 nm  f=0.0024  <S**2>=0.000
      10 -> 16        -0.11744
      12 -> 14         0.19446
      13 -> 16         0.60442
      13 -> 17         0.12805
      13 -> 18        -0.14656
      13 -> 19        -0.10187
      13 -> 20        -0.10953

 Excited State   4:      Singlet-A      7.0765 eV  175.21 nm  f=0.0003  <S**2>=0.000
       9 -> 14        -0.11090
      12 -> 14         0.66120
      13 -> 16        -0.17794

 Excited State   5:      Singlet-A      7.5900 eV  163.35 nm  f=0.0077  <S**2>=0.000
      11 -> 14         0.68025
      13 -> 17         0.12054

 Excited State   6:      Singlet-A      7.8674 eV  157.59 nm  f=0.0123  <S**2>=0.000
      10 -> 16         0.10345
      11 -> 14        -0.14708
      13 -> 15        -0.18949
      13 -> 16        -0.10812
      13 -> 17         0.62868

 Excited State   7:      Singlet-A      8.0945 eV  153.17 nm  f=0.0000  <S**2>=0.000
      13 -> 16        -0.12961
      13 -> 18        -0.44498
      13 -> 20        -0.10402
      13 -> 21         0.49145

 Excited State   8:      Singlet-A      8.6803 eV  142.83 nm  f=0.0014  <S**2>=0.000
      13 -> 16         0.12105
      13 -> 19         0.63704
      13 -> 20         0.12643
      13 -> 21         0.11971

 Excited State   9:      Singlet-A      8.6986 eV  142.53 nm  f=0.0767  <S**2>=0.000
      10 -> 14         0.66154

 Excited State  10:      Singlet-A      8.9891 eV  137.93 nm  f=0.0059  <S**2>=0.000
      13 -> 18         0.50653
      13 -> 19        -0.12218
      13 -> 20        -0.17487
      13 -> 21         0.42889

 Excited State  11:      Singlet-A      9.4463 eV  131.25 nm  f=0.0533  <S**2>=0.000
      11 -> 16         0.15702
      11 -> 17         0.24176
      12 -> 15         0.25695
      12 -> 16        -0.12327
      12 -> 18         0.21332
      12 -> 21        -0.12629
      13 -> 19        -0.10637
      13 -> 20         0.39344

 Excited State  12:      Singlet-A      9.4700 eV  130.92 nm  f=0.0734  <S**2>=0.000
      11 -> 15        -0.11961
      11 -> 16        -0.13745
      11 -> 17        -0.22086
      12 -> 15        -0.12194
      12 -> 18        -0.17125
      12 -> 21         0.10157
      13 -> 19        -0.13827
      13 -> 20         0.48951
      13 -> 21         0.14466

 Excited State  13:      Singlet-A      9.5391 eV  129.97 nm  f=0.1047  <S**2>=0.000
       9 -> 15         0.11406
      10 -> 14        -0.10064
      11 -> 15        -0.34838
      11 -> 17        -0.17212
      12 -> 15         0.49149
      12 -> 17         0.17185
      12 -> 19         0.11676

 Excited State  14:      Singlet-A      9.7910 eV  126.63 nm  f=0.0026  <S**2>=0.000
       7 -> 15        -0.15209
      10 -> 15         0.62264
      10 -> 17         0.10642
      13 -> 15        -0.16196

 Excited State  15:      Singlet-A     10.1189 eV  122.53 nm  f=0.2090  <S**2>=0.000
      11 -> 16         0.27330
      12 -> 16         0.58848
      12 -> 20        -0.10344

 The electronic state is 1-A.
 Alpha  occ. eigenvalues --   -1.69440  -1.11372  -0.90710  -0.77906  -0.74970
 Alpha  occ. eigenvalues --   -0.65780  -0.62222  -0.53428  -0.50176  -0.42156
 Alpha  occ. eigenvalues --   -0.41474  -0.39815  -0.28227
 Alpha virt. eigenvalues --    0.12868   0.17939   0.21555   0.24435   0.27645
 Alpha virt. eigenvalues --    0.28409   0.30367   0.31596   0.34396   0.43414
 Alpha virt. eigenvalues --    0.47207

 Mulliken charges:
               1
     1  C   -0.052497
     2  C   -1.926053
     3  O    3.214018
     4  C   -1.959243
     5  C   -0.207045
     6  H    0.182763
     7  H    0.300207
     8  H    0.275249
     9  H    0.172601
 Sum of Mulliken charges =   0.00000

 Dipole moment (field-independent basis, Debye):
    X=              5.6432    Y=             -9.4543    Z=              0.3765  Tot=             11.0168
 N-N= 1.031720210944D+02 E-N=-1.678444898607D+02  KE=-1.470524524351D+01
 Orbital energies and kinetic energies (alpha):
                                 1                 2
   1         O                -1.694401         -1.165454
   2         O                -1.113716         -0.987907
   3         O                -0.907102         -0.839242
   4         O                -0.779056         -0.599501
   5         O                -0.749704         -0.670717
   6         O                -0.657798         -0.562559
   7         O                -0.622217         -0.516449

 Normal termination of Gaussian 09 at Tue Dec 15 17:06:02 2015.
