 Gaussian 09, Revision D.01,
 Gaussian 09:  ES64L-G09RevD.01 24-Apr-2013

 -------------------------------------------------------
 #P B3LYP/3-21G CIS(Singlets,NStates=15) pop(full) force
 -------------------------------------------------------

 --------
 FuranDFT
 --------
 Symbolic Z-matrix:
 Charge =  0 Multiplicity = 1

                         Standard orientation:
 ---------------------------------------------------------------------
 Center     Atomic      Atomic             Coordinates (Angstroms)
 Number     Number       Type             X           Y           Z
 ---------------------------------------------------------------------
      1          6           0        0.284427    1.155142   -0.014745
      2          6           0       -1.009958    0.597668   -0.004234
      3          8           0       -0.898506   -0.785851    0.003526
      4          6           0        0.448782   -1.041636    0.009463
      5          6           0        1.206793    0.132270   -0.010155
      6          1           0        2.319277    0.109767    0.026051
      7          1           0        0.757952   -2.073515   -0.015654
      8          1           0       -1.915603    0.955824    0.004693
      9          1           0        0.446161    2.234072    0.074725
 ---------------------------------------------------------------------

 SCF Done:  E(RB3LYP) =  -228.735885815     A.U. after   15 cycles

 Excitation energies and oscillator strengths:

 Excited State   1:      Singlet-A      6.8132 eV  181.98 nm  f=0.2294  <S**2>=0.000
      18 -> 19         0.68184
 This state for optimization and/or second-order correction.
 Total Energy, E(CIS) =  -228.485503830
 Copying the excited state density for this state as the 1-particle RhoCI density.

 Excited State   2:      Singlet-A      7.0107 eV  176.85 nm  f=0.0005  <S**2>=0.000
      17 -> 19         0.50374
      18 -> 20         0.48629

 Excited State   3:      Singlet-A      8.1564 eV  152.01 nm  f=0.0012  <S**2>=0.000
      18 -> 21         0.69708

 Excited State   4:      Singlet-A      8.5350 eV  145.27 nm  f=0.0033  <S**2>=0.000
      16 -> 19         0.70254

 Excited State   5:      Singlet-A      9.0669 eV  136.74 nm  f=0.0088  <S**2>=0.000
      18 -> 22         0.67733

 Excited State   6:      Singlet-A      9.3719 eV  132.29 nm  f=0.4518  <S**2>=0.000
      15 -> 19        -0.19127
      17 -> 19        -0.41570
      18 -> 20         0.44205
      18 -> 22        -0.12705
      18 -> 23        -0.10387

 Excited State   7:      Singlet-A      9.5674 eV  129.59 nm  f=0.0442  <S**2>=0.000
      15 -> 19         0.65556
      16 -> 20         0.11904
      17 -> 19        -0.12128
      18 -> 20         0.12062

 Excited State   8:      Singlet-A      9.7863 eV  126.69 nm  f=0.0845  <S**2>=0.000
      17 -> 19         0.10367
      17 -> 20        -0.34308
      17 -> 21         0.55494
      18 -> 20        -0.10989
      18 -> 23        -0.14350

 Excited State   9:      Singlet-A      9.8529 eV  125.84 nm  f=0.1054  <S**2>=0.000
      17 -> 20         0.48868
      17 -> 21         0.17569
      18 -> 23        -0.44233

 Excited State  10:      Singlet-A      9.9419 eV  124.71 nm  f=0.0615  <S**2>=0.000
      17 -> 20         0.31394
      17 -> 21         0.34886
      18 -> 23         0.50671

 Excited State  11:      Singlet-A     10.1835 eV  121.75 nm  f=0.0039  <S**2>=0.000
      14 -> 19         0.49834
      16 -> 20        -0.11643
      17 -> 21        -0.11382
      18 -> 24        -0.44285
      18 -> 26         0.11654

 Excited State  12:      Singlet-A     10.2632 eV  120.80 nm  f=0.0024  <S**2>=0.000
      14 -> 19         0.47154
      18 -> 24         0.49261
      18 -> 26        -0.10448

 Excited State  13:      Singlet-A     10.5992 eV  116.97 nm  f=0.0055  <S**2>=0.000
      17 -> 22         0.16038
      18 -> 25         0.66966

 Excited State  14:      Singlet-A     10.6898 eV  115.98 nm  f=0.0005  <S**2>=0.000
      12 -> 19         0.10118
      14 -> 19         0.10363
      15 -> 19        -0.12020
      16 -> 20         0.66935

 Excited State  15:      Singlet-A     10.7385 eV  115.46 nm  f=0.0002  <S**2>=0.000
      17 -> 22         0.66964
      18 -> 25        -0.14724
      18 -> 26        -0.11170

 The electronic state is 1-A.
 Alpha  occ. eigenvalues --  -19.11959 -10.17769 -10.16912 -10.13120 -10.12995
 Alpha  occ. eigenvalues --   -1.11854  -0.80849  -0.74234  -0.59639  -0.58270
 Alpha  occ. eigenvalues --   -0.53876  -0.45446  -0.44294  -0.42071  -0.39827
 Alpha  occ. eigenvalues --   -0.36509  -0.28453  -0.22260
 Alpha virt. eigenvalues --    0.00792   0.07939   0.12485   0.15308   0.17936
 Alpha virt. eigenvalues --    0.19949   0.21486   0.22606   0.32248   0.41280
 Alpha virt. eigenvalues --    0.46744   0.67768   0.70192   0.71987   0.73819

 Mulliken charges:
               1
     1  C   -0.241843
     2  C    0.058309
     3  O   -0.467856
     4  C    0.076145
     5  C   -0.236393
     6  H    0.191237
     7  H    0.215106
     8  H    0.217809
     9  H    0.187487
 Sum of Mulliken charges =   0.00000

 Dipole moment (field-independent basis, Debye):
    X=              0.5864    Y=              0.4507    Z=              0.0861  Tot=              0.7445
 Quadrupole moment (field-independent basis, Debye-Ang):
   XX=            -25.9567   YY=            -25.8099   ZZ=            -31.8877
   XY=             -2.4262   XZ=              0.0843   YZ=              0.2608

 Normal termination of Gaussian 09 at Tue Dec 15 16:23:57 2015.
