 Gaussian 09, Revision D.01,
 Gaussian 09:  ES64L-G09RevD.01 24-Apr-2013

 ------------------------------------------------------------
 #P AM1(Input,print) CIS(Singlets,NStates=15) pop(full) force
 ------------------------------------------------------------

 -----------------
 AM1-Reparam Input
 -----------------
 Symbolic Z-matrix:
 Charge =  0 Multiplicity = 1

                         Standard orientation:
 ---------------------------------------------------------------------
 Center     Atomic      Atomic             Coordinates (Angstroms)
 Number     Number       Type             X           Y           Z
 ---------------------------------------------------------------------
      1          6           0       -0.589631    1.054575   -0.016792
      2          6           0       -1.111765   -0.243624    0.022295
      3          8           0       -0.166484   -1.104616   -0.019738
      4          6           0        1.022811   -0.500155    0.018573
      5          6           0        0.862725    0.830863    0.001271
      6          1           0        1.536019    1.614345    0.031805
      7          1           0        1.917824   -1.073725   -0.032990
      8          1           0       -2.131600   -0.546810    0.034210
      9          1           0       -1.095214    1.993169   -0.027213
 ---------------------------------------------------------------------

 SCF Done:  E(RAM1) =   1.80499256512     A.U. after   14 cycles

 Excitation energies and oscillator strengths:

 Excited State   1:      Singlet-A      5.4121 eV  229.09 nm  f=0.3783  <S**2>=0.000
      13 -> 14         0.69514
 This state for optimization and/or second-order correction.
 Total Energy, E(CIS) =   2.00388360713
 Copying the excited state density for this state as the 1-particle RhoCI density.

 Excited State   2:      Singlet-A      6.6668 eV  185.97 nm  f=0.0075  <S**2>=0.000
      13 -> 15         0.67461
      13 -> 17         0.14844
      13 -> 18         0.10214

 Excited State   3:      Singlet-A      6.9913 eV  177.34 nm  f=0.0033  <S**2>=0.000
      13 -> 16         0.66163
      13 -> 17        -0.14710
      13 -> 18         0.11807
      13 -> 19         0.10999

 Excited State   4:      Singlet-A      7.2611 eV  170.75 nm  f=0.0003  <S**2>=0.000
      12 -> 14         0.69927

 Excited State   5:      Singlet-A      8.0698 eV  153.64 nm  f=0.0000  <S**2>=0.000
      13 -> 16         0.15541
      13 -> 17         0.58498
      13 -> 18        -0.24066
      13 -> 19         0.12970
      13 -> 21        -0.19227

 Excited State   6:      Singlet-A      8.4605 eV  146.54 nm  f=0.0060  <S**2>=0.000
      10 -> 14         0.69901

 Excited State   7:      Singlet-A      8.9891 eV  137.93 nm  f=0.1225  <S**2>=0.000
      11 -> 14         0.68185

 Excited State   8:      Singlet-A      9.2537 eV  133.98 nm  f=0.0072  <S**2>=0.000
      11 -> 15         0.12585
      11 -> 16        -0.11453
      13 -> 15        -0.12394
      13 -> 17         0.24498
      13 -> 18         0.61362

 Excited State   9:      Singlet-A      9.7094 eV  127.69 nm  f=0.0005  <S**2>=0.000
      11 -> 15        -0.12295
      11 -> 16        -0.11585
      13 -> 16        -0.10854
      13 -> 19         0.66039

 Excited State  10:      Singlet-A      9.7670 eV  126.94 nm  f=0.0260  <S**2>=0.000
      10 -> 15        -0.17319
      10 -> 16        -0.13053
      10 -> 18        -0.18315
      11 -> 14         0.10054
      12 -> 15         0.29867
      12 -> 16        -0.29037
      12 -> 17         0.38171
      12 -> 18        -0.12546

 Excited State  11:      Singlet-A     10.2421 eV  121.05 nm  f=0.0119  <S**2>=0.000
      10 -> 15         0.27080
      12 -> 15         0.54435
      12 -> 16         0.22642
      12 -> 18         0.15584

 Excited State  12:      Singlet-A     10.3383 eV  119.93 nm  f=0.0248  <S**2>=0.000
      13 -> 17        -0.17005
      13 -> 20         0.48542
      13 -> 21        -0.45846

 Excited State  13:      Singlet-A     10.4278 eV  118.90 nm  f=0.0275  <S**2>=0.000
      10 -> 15        -0.14735
      11 -> 15         0.58814
      12 -> 16         0.14475
      13 -> 17        -0.11538
      13 -> 19         0.11017
      13 -> 21        -0.11735

 Excited State  14:      Singlet-A     10.4600 eV  118.53 nm  f=0.1920  <S**2>=0.000
      10 -> 15        -0.24566
      10 -> 16        -0.19326
      10 -> 18        -0.12198
      11 -> 15        -0.18554
      12 -> 16         0.51620
      12 -> 17         0.12137
      12 -> 19         0.14595

 Excited State  15:      Singlet-A     10.6218 eV  116.73 nm  f=0.0755  <S**2>=0.000
      11 -> 15         0.13204
      11 -> 16         0.18751
      13 -> 20         0.45555
      13 -> 21         0.45749

 The electronic state is 1-A.
 Alpha  occ. eigenvalues --   -2.02517  -1.26961  -1.02012  -0.91167  -0.85296
 Alpha  occ. eigenvalues --   -0.77692  -0.76197  -0.65283  -0.61367  -0.54681
 Alpha  occ. eigenvalues --   -0.53513  -0.50750  -0.38035
 Alpha virt. eigenvalues --    0.02500   0.10056   0.11372   0.18668   0.19452
 Alpha virt. eigenvalues --    0.21878   0.24243   0.25576   0.32444   0.39626
 Alpha virt. eigenvalues --    0.46071

 Mulliken charges:
               1
     1  C   -0.157367
     2  C   -1.937964
     3  O    3.170011
     4  C   -1.907625
     5  C   -0.070414
     6  H    0.144418
     7  H    0.297865
     8  H    0.305459
     9  H    0.155617
 Sum of Mulliken charges =   0.00000

 Dipole moment (field-independent basis, Debye):
    X=             -1.3902    Y=             -9.2890    Z=             -0.5822  Tot=              9.4105
 N-N= 1.062866908478D+02 E-N=-1.715332680171D+02  KE=-1.572070453074D+01
 Orbital energies and kinetic energies (alpha):
                                 1                 2
   1         O                -2.025167         -1.425983
   2         O                -1.269614         -1.039970
   3         O                -1.020117         -0.871004
   4         O                -0.911668         -0.600227
   5         O                -0.852956         -0.713267
   6         O                -0.776925         -0.604265
   7         O                -0.761969         -0.547635

 Normal termination of Gaussian 09 at Tue Dec 15 17:09:05 2015.
