 Gaussian 09, Revision D.01,
 Gaussian 09:  ES64L-G09RevD.01 24-Apr-2013

 ------------------------------------------------------------
 #P AM1(Input,print) CIS(Singlets,NStates=15) pop(full) force
 ------------------------------------------------------------

 -----------------
 AM1-Reparam Input
 -----------------
 Symbolic Z-matrix:
 Charge =  0 Multiplicity = 1

                         Standard orientation:
 ---------------------------------------------------------------------
 Center     Atomic      Atomic             Coordinates (Angstroms)
 Number     Number       Type             X           Y           Z
 ---------------------------------------------------------------------
      1          6           0       -1.066028    0.549571    0.013166
      2          6           0       -0.878971   -0.796044   -0.016967
      3          8           0        0.582850   -1.035453    0.006998
      4          6           0        1.153102    0.178886   -0.007447
      5          6           0        0.175993    1.158476   -0.003216
      6          1           0        0.382676    2.257368   -0.024410
      7          1           0        2.218832    0.183356    0.032427
      8          1           0       -1.469872   -1.686384    0.003517
      9          1           0       -2.099014    0.983952    0.019260
 ---------------------------------------------------------------------

 SCF Done:  E(RAM1) =   1.70375296962     A.U. after   14 cycles

 Excitation energies and oscillator strengths:

 Excited State   1:      Singlet-A      5.5117 eV  224.95 nm  f=0.3075  <S**2>=0.000
      10 -> 17        -0.10801
      13 -> 14         0.69092
 This state for optimization and/or second-order correction.
 Total Energy, E(CIS) =   1.90630300937
 Copying the excited state density for this state as the 1-particle RhoCI density.

 Excited State   2:      Singlet-A      6.2648 eV  197.91 nm  f=0.0034  <S**2>=0.000
      11 -> 15         0.12075
      13 -> 15         0.64029
      13 -> 17        -0.22708

 Excited State   3:      Singlet-A      6.9058 eV  179.54 nm  f=0.0022  <S**2>=0.000
      11 -> 16        -0.12153
      13 -> 15        -0.11397
      13 -> 16         0.61148
      13 -> 17        -0.17747
      13 -> 21         0.17720

 Excited State   4:      Singlet-A      7.3688 eV  168.26 nm  f=0.0002  <S**2>=0.000
      12 -> 14         0.64490
      13 -> 18         0.10419
      13 -> 21         0.19959

 Excited State   5:      Singlet-A      7.5803 eV  163.56 nm  f=0.0187  <S**2>=0.000
      10 -> 14         0.10223
      11 -> 16        -0.12240
      13 -> 15         0.17732
      13 -> 16         0.19549
      13 -> 17         0.61087

 Excited State   6:      Singlet-A      7.8116 eV  158.72 nm  f=0.0014  <S**2>=0.000
      10 -> 14         0.14429
      12 -> 14        -0.23619
      13 -> 18         0.13111
      13 -> 20        -0.12290
      13 -> 21         0.59921

 Excited State   7:      Singlet-A      7.9689 eV  155.59 nm  f=0.0016  <S**2>=0.000
      10 -> 14         0.65828
      11 -> 14        -0.11243
      13 -> 17        -0.12045
      13 -> 19         0.10649
      13 -> 21        -0.12385

 Excited State   8:      Singlet-A      8.3732 eV  148.07 nm  f=0.0038  <S**2>=0.000
      10 -> 14        -0.10594
      13 -> 16         0.11424
      13 -> 18         0.63314
      13 -> 19         0.18570
      13 -> 21        -0.10225

 Excited State   9:      Singlet-A      8.5558 eV  144.91 nm  f=0.0000  <S**2>=0.000
      13 -> 18        -0.23369
      13 -> 19         0.54045
      13 -> 20        -0.34856

 Excited State  10:      Singlet-A      8.7575 eV  141.57 nm  f=0.0679  <S**2>=0.000
      10 -> 14         0.10961
      10 -> 17        -0.10621
      11 -> 14         0.64654

 Excited State  11:      Singlet-A      9.0714 eV  136.68 nm  f=0.0933  <S**2>=0.000
      13 -> 19         0.36481
      13 -> 20         0.56261
      13 -> 21         0.14818

 Excited State  12:      Singlet-A      9.4872 eV  130.69 nm  f=0.0355  <S**2>=0.000
       9 -> 15         0.14953
      10 -> 15        -0.13885
      10 -> 16        -0.14996
      10 -> 17         0.33071
      11 -> 14         0.12319
      11 -> 15         0.17095
      12 -> 15         0.25186
      12 -> 16        -0.15990
      12 -> 18         0.18647
      12 -> 21        -0.24786

 Excited State  13:      Singlet-A      9.5402 eV  129.96 nm  f=0.0187  <S**2>=0.000
       7 -> 15        -0.14310
      10 -> 15         0.19932
      10 -> 17        -0.15262
      11 -> 15         0.55328
      12 -> 15         0.15173
      13 -> 15        -0.15027

 Excited State  14:      Singlet-A      9.7475 eV  127.20 nm  f=0.0962  <S**2>=0.000
       8 -> 15         0.10186
      10 -> 15         0.27051
      10 -> 17        -0.11645
      11 -> 15        -0.26525
      12 -> 15         0.49028
      12 -> 17        -0.16798
      12 -> 19         0.13204

 Excited State  15:      Singlet-A     10.0875 eV  122.91 nm  f=0.2383  <S**2>=0.000
       8 -> 16        -0.14095
       9 -> 15         0.18220
      10 -> 15        -0.17737
      10 -> 18         0.15485
      10 -> 19        -0.33352
      11 -> 14        -0.12776
      12 -> 15         0.11839
      12 -> 16         0.15618
      12 -> 17         0.33843
      12 -> 19         0.18253
      12 -> 20         0.13118

 The electronic state is 1-A.
 Alpha  occ. eigenvalues --   -1.89536  -1.21855  -0.97937  -0.81843  -0.79677
 Alpha  occ. eigenvalues --   -0.67976  -0.61976  -0.54097  -0.51586  -0.41840
 Alpha  occ. eigenvalues --   -0.41502  -0.40392  -0.27618
 Alpha virt. eigenvalues --    0.13921   0.17718   0.21448   0.24335   0.27083
 Alpha virt. eigenvalues --    0.28437   0.29970   0.30418   0.33835   0.42885
 Alpha virt. eigenvalues --    0.47251

 Mulliken charges:
               1
     1  C   -0.042110
     2  C   -1.920065
     3  O    3.184116
     4  C   -1.946765
     5  C   -0.201115
     6  H    0.179890
     7  H    0.300649
     8  H    0.276109
     9  H    0.169293
 Sum of Mulliken charges =   0.00000

 Dipole moment (field-independent basis, Debye):
    X=              5.6164    Y=             -9.4066    Z=              0.3780  Tot=             10.9623
 N-N= 1.031881486075D+02 E-N=-1.681423566790D+02  KE=-1.566975966594D+01
 Orbital energies and kinetic energies (alpha):
                                 1                 2
   1         O                -1.895355         -1.336745
   2         O                -1.218551         -1.103939
   3         O                -0.979368         -0.906230
   4         O                -0.818428         -0.676382
   5         O                -0.796772         -0.661145
   6         O                -0.679756         -0.579467
   7         O                -0.619763         -0.506799

 Normal termination of Gaussian 09 at Tue Dec 15 17:07:04 2015.
