 Gaussian 09, Revision D.01,
 Gaussian 09:  ES64L-G09RevD.01 24-Apr-2013

 ------------------------------------------------------------
 #P AM1(Input,print) CIS(Singlets,NStates=15) pop(full) force
 ------------------------------------------------------------

 -----------------
 AM1-Reparam Input
 -----------------
 Symbolic Z-matrix:
 Charge =  0 Multiplicity = 1

                         Standard orientation:
 ---------------------------------------------------------------------
 Center     Atomic      Atomic             Coordinates (Angstroms)
 Number     Number       Type             X           Y           Z
 ---------------------------------------------------------------------
      1          6           0        0.189453    1.179624   -0.007322
      2          6           0        1.110218    0.098785   -0.010080
      3          8           0        0.524540   -1.018994    0.021351
      4          6           0       -0.864042   -0.752405   -0.027256
      5          6           0       -1.003499    0.533802    0.034799
      6          1           0       -2.008220    1.067352   -0.039839
      7          1           0       -1.475100   -1.599951   -0.033952
      8          1           0        2.209512    0.142955   -0.033423
      9          1           0        0.484703    2.182759   -0.004430
 ---------------------------------------------------------------------

 SCF Done:  E(RAM1) =   1.74025643444     A.U. after   14 cycles

 Excitation energies and oscillator strengths:

 Excited State   1:      Singlet-A      5.6850 eV  218.09 nm  f=0.3142  <S**2>=0.000
      13 -> 14         0.68970
 This state for optimization and/or second-order correction.
 Total Energy, E(CIS) =   1.94917693579
 Copying the excited state density for this state as the 1-particle RhoCI density.

 Excited State   2:      Singlet-A      6.1154 eV  202.74 nm  f=0.0053  <S**2>=0.000
      11 -> 15        -0.10649
      13 -> 15         0.63675
      13 -> 17         0.25565

 Excited State   3:      Singlet-A      7.0650 eV  175.49 nm  f=0.0029  <S**2>=0.000
      11 -> 16         0.12153
      12 -> 14         0.25449
      13 -> 16         0.59496
      13 -> 19        -0.11112
      13 -> 20        -0.16800

 Excited State   4:      Singlet-A      7.1770 eV  172.75 nm  f=0.0017  <S**2>=0.000
      12 -> 14         0.64196
      13 -> 16        -0.24838

 Excited State   5:      Singlet-A      7.6122 eV  162.88 nm  f=0.0111  <S**2>=0.000
      11 -> 15         0.11009
      13 -> 15        -0.22355
      13 -> 17         0.58705
      13 -> 20         0.20279
      13 -> 21        -0.15873

 Excited State   6:      Singlet-A      7.9430 eV  156.09 nm  f=0.0039  <S**2>=0.000
      10 -> 14        -0.16188
      12 -> 14        -0.11143
      13 -> 17         0.25345
      13 -> 18         0.11824
      13 -> 19         0.18972
      13 -> 20        -0.35083
      13 -> 21         0.44672

 Excited State   7:      Singlet-A      8.2865 eV  149.62 nm  f=0.0043  <S**2>=0.000
      10 -> 14         0.62764
      11 -> 14         0.17778
      13 -> 20        -0.12617
      13 -> 21         0.18289

 Excited State   8:      Singlet-A      8.5613 eV  144.82 nm  f=0.0022  <S**2>=0.000
      13 -> 16         0.12110
      13 -> 18         0.54298
      13 -> 19         0.31227
      13 -> 20         0.23452

 Excited State   9:      Singlet-A      8.7279 eV  142.05 nm  f=0.0021  <S**2>=0.000
      11 -> 14         0.27236
      12 -> 17         0.10383
      13 -> 18        -0.34638
      13 -> 19         0.49574

 Excited State  10:      Singlet-A      8.7906 eV  141.04 nm  f=0.0158  <S**2>=0.000
      10 -> 14        -0.21028
      10 -> 16         0.11696
      11 -> 14         0.46057
      12 -> 15         0.10706
      12 -> 17         0.20840
      12 -> 18        -0.12266
      13 -> 18         0.14217
      13 -> 19        -0.27056

 Excited State  11:      Singlet-A      9.2609 eV  133.88 nm  f=0.0654  <S**2>=0.000
       9 -> 15         0.17060
      10 -> 17         0.10653
      11 -> 14        -0.23837
      11 -> 15        -0.20652
      12 -> 15         0.41629
      12 -> 17         0.14188
      13 -> 20         0.21129
      13 -> 21         0.17654

 Excited State  12:      Singlet-A      9.2839 eV  133.55 nm  f=0.0361  <S**2>=0.000
       7 -> 15         0.10279
       9 -> 15         0.12614
      11 -> 14        -0.13370
      11 -> 15         0.52245
      11 -> 17         0.11764
      12 -> 15         0.20752
      13 -> 15         0.11408
      13 -> 20        -0.19563
      13 -> 21        -0.14514

 Excited State  13:      Singlet-A      9.3822 eV  132.15 nm  f=0.0592  <S**2>=0.000
      11 -> 15         0.32064
      12 -> 15        -0.14315
      13 -> 18        -0.18097
      13 -> 20         0.36621
      13 -> 21         0.40673

 Excited State  14:      Singlet-A      9.6559 eV  128.40 nm  f=0.2947  <S**2>=0.000
       9 -> 15         0.10941
      10 -> 18         0.12495
      11 -> 14         0.26896
      12 -> 15         0.14978
      12 -> 17        -0.29551
      12 -> 18         0.47541

 Excited State  15:      Singlet-A      9.7520 eV  127.14 nm  f=0.0415  <S**2>=0.000
       9 -> 15         0.12556
      10 -> 15         0.55088
      10 -> 17         0.25736
      10 -> 18         0.10696
      12 -> 15        -0.23599
      12 -> 17        -0.13630

 The electronic state is 1-A.
 Alpha  occ. eigenvalues --   -1.93371  -1.24769  -0.99956  -0.82768  -0.80494
 Alpha  occ. eigenvalues --   -0.69021  -0.65058  -0.55236  -0.51090  -0.43758
 Alpha  occ. eigenvalues --   -0.42725  -0.40002  -0.28911
 Alpha virt. eigenvalues --    0.13637   0.16215   0.20764   0.23269   0.27171
 Alpha virt. eigenvalues --    0.27598   0.30035   0.30193   0.38406   0.47102
 Alpha virt. eigenvalues --    0.51726

 Mulliken charges:
               1
     1  C   -0.214989
     2  C   -2.010171
     3  O    3.181119
     4  C   -1.907937
     5  C   -0.014660
     6  H    0.162561
     7  H    0.286461
     8  H    0.329636
     9  H    0.187980
 Sum of Mulliken charges =   0.00000

 Dipole moment (field-independent basis, Debye):
    X=              4.9158    Y=             -8.7489    Z=              0.4692  Tot=             10.0464
 N-N= 1.048054010272D+02 E-N=-1.707632552015D+02  KE=-1.582381377415D+01
 Orbital energies and kinetic energies (alpha):
                                 1                 2
   1         O                -1.933714         -1.415026
   2         O                -1.247693         -1.118954
   3         O                -0.999561         -0.916899
   4         O                -0.827682         -0.632049
   5         O                -0.804942         -0.696818
   6         O                -0.690208         -0.585703
   7         O                -0.650580         -0.523311

 Normal termination of Gaussian 09 at Tue Dec 15 17:07:07 2015.
