 Gaussian 09, Revision D.01,
 Gaussian 09:  ES64L-G09RevD.01 24-Apr-2013

 ------------------------------------------------------------
 #P AM1(Input,print) CIS(Singlets,NStates=15) pop(full) force
 ------------------------------------------------------------

 -----------------
 AM1-Reparam Input
 -----------------
 Symbolic Z-matrix:
 Charge =  0 Multiplicity = 1

                         Standard orientation:
 ---------------------------------------------------------------------
 Center     Atomic      Atomic             Coordinates (Angstroms)
 Number     Number       Type             X           Y           Z
 ---------------------------------------------------------------------
      1          6           0       -0.244090    1.138976    0.015891
      2          6           0       -1.154905    0.138667   -0.008544
      3          8           0       -0.490985   -1.047759    0.008506
      4          6           0        0.834666   -0.734532   -0.013608
      5          6           0        1.090518    0.567164   -0.001785
      6          1           0        1.981054    1.088215   -0.020108
      7          1           0        1.450457   -1.651998    0.033422
      8          1           0       -2.169599    0.093377   -0.031228
      9          1           0       -0.491172    2.190821   -0.001858
 ---------------------------------------------------------------------

 SCF Done:  E(RAM1) =   1.11452254268     A.U. after   14 cycles

 Excitation energies and oscillator strengths:

 Excited State   1:      Singlet-A      5.4446 eV  227.72 nm  f=0.2098  <S**2>=0.000
      12 -> 15        -0.13860
      13 -> 14         0.68149
 This state for optimization and/or second-order correction.
 Total Energy, E(CIS) =   1.31460918643
 Copying the excited state density for this state as the 1-particle RhoCI density.

 Excited State   2:      Singlet-A      6.4907 eV  191.02 nm  f=0.0032  <S**2>=0.000
      13 -> 16         0.62069
      13 -> 17         0.26718
      13 -> 18        -0.11079
      13 -> 19         0.13580

 Excited State   3:      Singlet-A      6.7235 eV  184.41 nm  f=0.0026  <S**2>=0.000
      12 -> 14         0.10086
      13 -> 15         0.25112
      13 -> 16        -0.24744
      13 -> 17         0.56130
      13 -> 18         0.13099
      13 -> 21        -0.12487

 Excited State   4:      Singlet-A      6.8738 eV  180.37 nm  f=0.0160  <S**2>=0.000
      12 -> 14         0.36230
      13 -> 15         0.52948
      13 -> 17        -0.25422

 Excited State   5:      Singlet-A      7.1679 eV  172.97 nm  f=0.0009  <S**2>=0.000
       9 -> 14         0.13644
      11 -> 14         0.68621

 Excited State   6:      Singlet-A      8.0372 eV  154.26 nm  f=0.1002  <S**2>=0.000
      10 -> 14         0.23746
      12 -> 14        -0.34430
      13 -> 15         0.20345
      13 -> 17        -0.10019
      13 -> 18         0.44551
      13 -> 19         0.12568

 Excited State   7:      Singlet-A      8.0461 eV  154.09 nm  f=0.1468  <S**2>=0.000
      12 -> 14         0.42568
      13 -> 15        -0.26332
      13 -> 18         0.41969
      13 -> 19         0.10613

 Excited State   8:      Singlet-A      8.1193 eV  152.70 nm  f=0.0339  <S**2>=0.000
      10 -> 14         0.60732
      11 -> 15         0.17605
      12 -> 14         0.19419
      13 -> 15        -0.10884
      13 -> 18        -0.11623

 Excited State   9:      Singlet-A      8.4868 eV  146.09 nm  f=0.0001  <S**2>=0.000
      12 -> 16        -0.11402
      13 -> 19         0.42099
      13 -> 20         0.51082

 Excited State  10:      Singlet-A      8.6522 eV  143.30 nm  f=0.0173  <S**2>=0.000
       6 -> 15         0.10536
       9 -> 15        -0.24283
      10 -> 14        -0.22767
      11 -> 15         0.59079

 Excited State  11:      Singlet-A      8.7437 eV  141.80 nm  f=0.0519  <S**2>=0.000
      12 -> 15         0.37011
      12 -> 16         0.40421
      12 -> 17         0.35171

 Excited State  12:      Singlet-A      8.8067 eV  140.78 nm  f=0.0949  <S**2>=0.000
      12 -> 15         0.48319
      12 -> 16        -0.37326
      12 -> 17        -0.14089
      13 -> 14         0.10123
      13 -> 20        -0.10389

 Excited State  13:      Singlet-A      8.9877 eV  137.95 nm  f=0.0161  <S**2>=0.000
      12 -> 15        -0.11249
      12 -> 16        -0.27011
      12 -> 17         0.47534
      13 -> 19         0.24049
      13 -> 20        -0.28881

 Excited State  14:      Singlet-A      9.4100 eV  131.76 nm  f=0.0353  <S**2>=0.000
       9 -> 14         0.13112
       9 -> 17        -0.17557
      10 -> 17        -0.20613
      10 -> 20         0.11816
      11 -> 16         0.36612
      11 -> 17         0.31006
      11 -> 18        -0.19849
      12 -> 15        -0.11176
      13 -> 21         0.20083

 Excited State  15:      Singlet-A      9.4127 eV  131.72 nm  f=0.0051  <S**2>=0.000
       9 -> 14         0.25012
      11 -> 16        -0.15100
      11 -> 17        -0.15579
      12 -> 16         0.15702
      12 -> 17        -0.14650
      13 -> 19         0.18134
      13 -> 21         0.48092

 The electronic state is 1-A.
 Alpha  occ. eigenvalues --   -1.83009  -1.19791  -0.99829  -0.88075  -0.80968
 Alpha  occ. eigenvalues --   -0.74421  -0.71896  -0.60565  -0.55969  -0.52948
 Alpha  occ. eigenvalues --   -0.49343  -0.47546  -0.37806
 Alpha virt. eigenvalues --    0.03468   0.09514   0.10087   0.11426   0.18121
 Alpha virt. eigenvalues --    0.19444   0.20456   0.21952   0.27018   0.27242
 Alpha virt. eigenvalues --    0.27810

 Mulliken charges:
               1
     1  C   -0.156696
     2  C   -1.223645
     3  O    2.118076
     4  C   -1.228119
     5  C   -0.105175
     6  H    0.100959
     7  H    0.196042
     8  H    0.185786
     9  H    0.112772
 Sum of Mulliken charges =   0.00000

 Dipole moment (field-independent basis, Debye):
    X=             -2.8506    Y=             -6.8024    Z=              0.1726  Tot=              7.3776
 N-N= 1.046451355663D+02 E-N=-1.715972352501D+02  KE=-1.502061448016D+01
 Orbital energies and kinetic energies (alpha):
                                 1                 2
   1         O                -1.830094         -1.247279
   2         O                -1.197907         -0.975563
   3         O                -0.998291         -0.823580
   4         O                -0.880754         -0.635965
   5         O                -0.809682         -0.676829
   6         O                -0.744213         -0.595243
   7         O                -0.718964         -0.514707

 Normal termination of Gaussian 09 at Tue Dec 15 17:05:40 2015.
