 Gaussian 09, Revision D.01,
 Gaussian 09:  ES64L-G09RevD.01 24-Apr-2013

 ------------------------------------------------------------
 #P AM1(Input,print) CIS(Singlets,NStates=15) pop(full) force
 ------------------------------------------------------------

 -----------------
 AM1-Reparam Input
 -----------------
 Symbolic Z-matrix:
 Charge =  0 Multiplicity = 1

                         Standard orientation:
 ---------------------------------------------------------------------
 Center     Atomic      Atomic             Coordinates (Angstroms)
 Number     Number       Type             X           Y           Z
 ---------------------------------------------------------------------
      1          6           0       -0.619851    1.030034    0.007988
      2          6           0       -1.102430   -0.219413   -0.030448
      3          8           0       -0.134311   -1.166405    0.029321
      4          6           0        1.027502   -0.459811   -0.018884
      5          6           0        0.840039    0.864140    0.005937
      6          1           0        1.535831    1.716008   -0.021504
      7          1           0        1.951865   -1.049190   -0.017593
      8          1           0       -2.137643   -0.600521   -0.033458
      9          1           0       -1.147130    1.975245    0.050430
 ---------------------------------------------------------------------

 SCF Done:  E(RAM1) =  0.163661756062E-01 A.U. after   13 cycles

 Excitation energies and oscillator strengths:

 Excited State   1:      Singlet-A      4.5902 eV  270.11 nm  f=0.0678  <S**2>=0.000
      12 -> 15         0.21723
      13 -> 14         0.66634
 This state for optimization and/or second-order correction.
 Total Energy, E(CIS) =  0.185051547765
 Copying the excited state density for this state as the 1-particle RhoCI density.

 Excited State   2:      Singlet-A      5.1786 eV  239.42 nm  f=0.0056  <S**2>=0.000
      12 -> 14        -0.42116
      13 -> 15         0.55171
      13 -> 16         0.11099

 Excited State   3:      Singlet-A      5.2602 eV  235.70 nm  f=0.0003  <S**2>=0.000
      13 -> 16         0.67153
      13 -> 22        -0.14102

 Excited State   4:      Singlet-A      5.9492 eV  208.40 nm  f=0.0029  <S**2>=0.000
       7 -> 16        -0.11856
      12 -> 16         0.50269
      12 -> 22        -0.20940
      13 -> 18         0.36815
      13 -> 23        -0.13319

 Excited State   5:      Singlet-A      6.0742 eV  204.12 nm  f=0.0021  <S**2>=0.000
       7 -> 16         0.13629
      12 -> 16        -0.40266
      12 -> 19         0.13196
      12 -> 20        -0.10544
      12 -> 21        -0.15502
      13 -> 17         0.11002
      13 -> 18         0.41473
      13 -> 23        -0.19835
      13 -> 24        -0.11243

 Excited State   6:      Singlet-A      6.1866 eV  200.41 nm  f=0.0002  <S**2>=0.000
      12 -> 18        -0.32367
      12 -> 23         0.14836
      12 -> 24         0.11399
      13 -> 19        -0.28373
      13 -> 20         0.19453
      13 -> 21         0.33458
      13 -> 22         0.30678

 Excited State   7:      Singlet-A      6.2996 eV  196.81 nm  f=0.2445  <S**2>=0.000
      12 -> 14         0.36639
      12 -> 15         0.44757
      13 -> 14        -0.13864
      13 -> 15         0.28629
      13 -> 17         0.13188

 Excited State   8:      Singlet-A      6.3304 eV  195.85 nm  f=0.2489  <S**2>=0.000
      12 -> 14        -0.34797
      12 -> 15         0.47620
      13 -> 14        -0.14692
      13 -> 15        -0.27814

 Excited State   9:      Singlet-A      6.4434 eV  192.42 nm  f=0.0305  <S**2>=0.000
      11 -> 14        -0.12782
      12 -> 14        -0.12773
      12 -> 19        -0.14388
      13 -> 15        -0.10326
      13 -> 17         0.62457
      13 -> 23         0.14589

 Excited State  10:      Singlet-A      6.8841 eV  180.10 nm  f=0.0021  <S**2>=0.000
      12 -> 17         0.54644
      12 -> 18         0.17809
      12 -> 20        -0.17185
      12 -> 23         0.12358
      13 -> 19        -0.29998

 Excited State  11:      Singlet-A      7.2556 eV  170.88 nm  f=0.0008  <S**2>=0.000
       8 -> 14         0.10227
      10 -> 14         0.33328
      11 -> 14         0.18911
      11 -> 15         0.50555
      12 -> 18        -0.11297
      13 -> 19         0.10188

 Excited State  12:      Singlet-A      7.2873 eV  170.14 nm  f=0.0041  <S**2>=0.000
       9 -> 14         0.25079
      10 -> 15         0.24026
      11 -> 14         0.52732
      11 -> 15        -0.17522
      13 -> 17         0.11127

 Excited State  13:      Singlet-A      7.4954 eV  165.41 nm  f=0.0002  <S**2>=0.000
       9 -> 15        -0.12215
      10 -> 14        -0.25823
      11 -> 15        -0.10234
      12 -> 17         0.15485
      12 -> 18        -0.32975
      12 -> 20        -0.21902
      12 -> 21         0.14421
      12 -> 23         0.15719
      12 -> 24        -0.10700
      13 -> 19         0.35581
      13 -> 22        -0.10475

 Excited State  14:      Singlet-A      7.5789 eV  163.59 nm  f=0.0008  <S**2>=0.000
      11 -> 15        -0.10898
      12 -> 18         0.29248
      12 -> 20        -0.15271
      13 -> 16         0.11040
      13 -> 19         0.26381
      13 -> 22         0.50580

 Excited State  15:      Singlet-A      7.6295 eV  162.51 nm  f=0.0009  <S**2>=0.000
       9 -> 14         0.35017
      10 -> 15         0.14924
      11 -> 14        -0.29749
      12 -> 19        -0.19618
      12 -> 22         0.27094
      13 -> 17        -0.12583
      13 -> 18         0.21562
      13 -> 23         0.15813
      13 -> 24         0.18804

 The electronic state is 1-A.
 Alpha  occ. eigenvalues --   -1.57171  -1.23661  -1.09791  -0.82390  -0.80781
 Alpha  occ. eigenvalues --   -0.68319  -0.60527  -0.56135  -0.51462  -0.50776
 Alpha  occ. eigenvalues --   -0.48388  -0.39184  -0.35202
 Alpha virt. eigenvalues --    0.03544   0.06354   0.10021   0.13558   0.14264
 Alpha virt. eigenvalues --    0.15680   0.17789   0.17942   0.18914   0.20545
 Alpha virt. eigenvalues --    0.22499

 Mulliken charges:
               1
     1  C   -0.214267
     2  C   -0.100311
     3  O   -0.072841
     4  C   -0.098273
     5  C   -0.209846
     6  H    0.166839
     7  H    0.182350
     8  H    0.183013
     9  H    0.163336
 Sum of Mulliken charges =   0.00000

 Dipole moment (field-independent basis, Debye):
    X=              0.0430    Y=              0.4729    Z=             -0.0075  Tot=              0.4749
 N-N= 1.034365962617D+02 E-N=-1.710192371383D+02  KE=-1.654547540776D+01
 Orbital energies and kinetic energies (alpha):
                                 1                 2
   1         O                -1.571708         -1.317699
   2         O                -1.236615         -1.050313
   3         O                -1.097907         -0.957859
   4         O                -0.823901         -0.699566
   5         O                -0.807812         -0.723223
   6         O                -0.683188         -0.602396
   7         O                -0.605269         -0.489388

 Normal termination of Gaussian 09 at Tue Dec 15 16:10:33 2015.
