 Gaussian 09, Revision D.01,
 Gaussian 09:  ES64L-G09RevD.01 24-Apr-2013

 ------------------------------------------------------------
 #P AM1(Input,print) CIS(Singlets,NStates=15) pop(full) force
 ------------------------------------------------------------

 -----------------
 AM1-Reparam Input
 -----------------
 Symbolic Z-matrix:
 Charge =  0 Multiplicity = 1

                         Standard orientation:
 ---------------------------------------------------------------------
 Center     Atomic      Atomic             Coordinates (Angstroms)
 Number     Number       Type             X           Y           Z
 ---------------------------------------------------------------------
      1          6           0       -0.357273    1.107183    0.008426
      2          6           0       -1.134583   -0.015534   -0.019840
      3          8           0       -0.369875   -1.079863    0.012951
      4          6           0        0.918742   -0.623146   -0.030174
      5          6           0        0.961139    0.656778    0.000726
      6          1           0        1.851394    1.255369    0.024804
      7          1           0        1.690044   -1.408432    0.072972
      8          1           0       -2.200424   -0.150930    0.036690
      9          1           0       -0.710163    2.191213    0.007102
 ---------------------------------------------------------------------

 SCF Done:  E(RAM1) =  0.393668047396E-01 A.U. after   13 cycles

 Excitation energies and oscillator strengths:

 Excited State   1:      Singlet-A      4.5825 eV  270.56 nm  f=0.0945  <S**2>=0.000
      12 -> 15         0.18869
      13 -> 14         0.67214
 This state for optimization and/or second-order correction.
 Total Energy, E(CIS) =  0.207771948341
 Copying the excited state density for this state as the 1-particle RhoCI density.

 Excited State   2:      Singlet-A      5.0343 eV  246.28 nm  f=0.0008  <S**2>=0.000
      13 -> 15        -0.12179
      13 -> 16         0.67151

 Excited State   3:      Singlet-A      5.2573 eV  235.83 nm  f=0.0158  <S**2>=0.000
      12 -> 14        -0.37567
      13 -> 15         0.57952
      13 -> 16         0.13102

 Excited State   4:      Singlet-A      5.8880 eV  210.57 nm  f=0.0005  <S**2>=0.000
      12 -> 18         0.13689
      12 -> 22         0.10681
      13 -> 18         0.52065
      13 -> 19        -0.14424
      13 -> 22         0.32165
      13 -> 23        -0.19854

 Excited State   5:      Singlet-A      6.2228 eV  199.24 nm  f=0.0070  <S**2>=0.000
       7 -> 16        -0.16159
      12 -> 16         0.64161
      12 -> 22        -0.14058

 Excited State   6:      Singlet-A      6.4507 eV  192.20 nm  f=0.1861  <S**2>=0.000
      12 -> 14         0.40325
      13 -> 15         0.25625
      13 -> 17        -0.16847
      13 -> 18         0.16687
      13 -> 19         0.30339
      13 -> 20        -0.16508
      13 -> 22        -0.14245

 Excited State   7:      Singlet-A      6.4718 eV  191.58 nm  f=0.1507  <S**2>=0.000
      12 -> 14         0.36935
      12 -> 20        -0.12084
      12 -> 23        -0.12027
      13 -> 15         0.23422
      13 -> 18        -0.15301
      13 -> 19        -0.32241
      13 -> 20         0.17474
      13 -> 22         0.18995
      13 -> 23         0.11974

 Excited State   8:      Singlet-A      6.5394 eV  189.60 nm  f=0.0096  <S**2>=0.000
      10 -> 14        -0.10355
      12 -> 19        -0.14981
      12 -> 20         0.12832
      13 -> 17         0.57067
      13 -> 22        -0.16638
      13 -> 23        -0.22908

 Excited State   9:      Singlet-A      6.7557 eV  183.53 nm  f=0.1436  <S**2>=0.000
      12 -> 15         0.65869
      13 -> 14        -0.17163

 Excited State  10:      Singlet-A      7.1303 eV  173.88 nm  f=0.0089  <S**2>=0.000
       9 -> 14         0.12282
      10 -> 14         0.48264
      10 -> 15         0.21143
      11 -> 14         0.37079
      11 -> 15         0.13899

 Excited State  11:      Singlet-A      7.2218 eV  171.68 nm  f=0.0008  <S**2>=0.000
      12 -> 17         0.34520
      12 -> 18        -0.27926
      12 -> 19        -0.14051
      12 -> 20         0.11627
      13 -> 17        -0.22005
      13 -> 19        -0.34511
      13 -> 22        -0.22203
      13 -> 23        -0.10137

 Excited State  12:      Singlet-A      7.4057 eV  167.42 nm  f=0.0023  <S**2>=0.000
      10 -> 14         0.10758
      12 -> 17         0.31280
      12 -> 19         0.21477
      12 -> 22        -0.16307
      12 -> 23        -0.14814
      13 -> 18         0.22109
      13 -> 19         0.19266
      13 -> 20         0.32150
      13 -> 22        -0.18159
      13 -> 24        -0.11457

 Excited State  13:      Singlet-A      7.5524 eV  164.17 nm  f=0.0098  <S**2>=0.000
       9 -> 14         0.10272
      11 -> 15         0.15650
      12 -> 17        -0.15026
      12 -> 21         0.15177
      12 -> 23         0.15321
      13 -> 18         0.16418
      13 -> 19        -0.17153
      13 -> 21         0.33860
      13 -> 22        -0.30744
      13 -> 23         0.25132

 Excited State  14:      Singlet-A      7.6383 eV  162.32 nm  f=0.0043  <S**2>=0.000
       9 -> 14        -0.31864
       9 -> 15         0.18949
      10 -> 14        -0.15441
      10 -> 15         0.19640
      11 -> 14         0.37827
      11 -> 15        -0.23331
      13 -> 19        -0.11722
      13 -> 23         0.13899

 Excited State  15:      Singlet-A      7.8108 eV  158.73 nm  f=0.0023  <S**2>=0.000
       9 -> 14         0.32443
      10 -> 14        -0.30295
      10 -> 15        -0.17942
      11 -> 14         0.34896
      11 -> 15         0.16728
      12 -> 20        -0.12233
      13 -> 21        -0.10071
      13 -> 23        -0.17632
      13 -> 24        -0.11644

 The electronic state is 1-A.
 Alpha  occ. eigenvalues --   -1.60858  -1.25771  -1.10626  -0.82918  -0.81307
 Alpha  occ. eigenvalues --   -0.69070  -0.61824  -0.55983  -0.51433  -0.49934
 Alpha  occ. eigenvalues --   -0.49454  -0.40442  -0.34863
 Alpha virt. eigenvalues --    0.03585   0.07040   0.09819   0.14024   0.14688
 Alpha virt. eigenvalues --    0.15211   0.18140   0.18508   0.18981   0.20644
 Alpha virt. eigenvalues --    0.22832

 Mulliken charges:
               1
     1  C   -0.238240
     2  C   -0.093938
     3  O   -0.063246
     4  C   -0.114738
     5  C   -0.181273
     6  H    0.156005
     7  H    0.184666
     8  H    0.187864
     9  H    0.162900
 Sum of Mulliken charges =   0.00000

 Dipole moment (field-independent basis, Debye):
    X=              0.0839    Y=              0.3143    Z=              0.1590  Tot=              0.3621
 N-N= 1.043943626343D+02 E-N=-1.725676596964D+02  KE=-1.665270883414D+01
 Orbital energies and kinetic energies (alpha):
                                 1                 2
   1         O                -1.608580         -1.349449
   2         O                -1.257709         -1.061057
   3         O                -1.106256         -0.961879
   4         O                -0.829180         -0.699702
   5         O                -0.813073         -0.720430
   6         O                -0.690695         -0.606609
   7         O                -0.618236         -0.499243

 Normal termination of Gaussian 09 at Tue Dec 15 16:30:29 2015.
