 Gaussian 09, Revision D.01,
 Gaussian 09:  ES64L-G09RevD.01 24-Apr-2013

 ------------------------------------------------------------
 #P AM1(Input,print) CIS(Singlets,NStates=15) pop(full) force
 ------------------------------------------------------------

 -----------------
 AM1-Reparam Input
 -----------------
 Symbolic Z-matrix:
 Charge =  0 Multiplicity = 1

                         Standard orientation:
 ---------------------------------------------------------------------
 Center     Atomic      Atomic             Coordinates (Angstroms)
 Number     Number       Type             X           Y           Z
 ---------------------------------------------------------------------
      1          6           0        0.406120    1.091959    0.018226
      2          6           0        1.107284   -0.035841   -0.014882
      3          8           0        0.368895   -1.105081    0.022608
      4          6           0       -1.010431   -0.604028   -0.009463
      5          6           0       -0.913724    0.696158   -0.028902
      6          1           0       -1.827221    1.383583    0.078202
      7          1           0       -1.730922   -1.319018   -0.010736
      8          1           0        2.231231   -0.249486   -0.051530
      9          1           0        0.840253    2.136077    0.013329
 ---------------------------------------------------------------------

 SCF Done:  E(RAM1) =   1.77173166217     A.U. after   14 cycles

 Excitation energies and oscillator strengths:

 Excited State   1:      Singlet-A      5.4036 eV  229.45 nm  f=0.1311  <S**2>=0.000
      13 -> 14         0.57026
      13 -> 15        -0.37594
 This state for optimization and/or second-order correction.
 Total Energy, E(CIS) =   1.97031053579
 Copying the excited state density for this state as the 1-particle RhoCI density.

 Excited State   2:      Singlet-A      5.4984 eV  225.49 nm  f=0.1815  <S**2>=0.000
      13 -> 14         0.38811
      13 -> 15         0.56734

 Excited State   3:      Singlet-A      6.8785 eV  180.25 nm  f=0.0074  <S**2>=0.000
      12 -> 14         0.10523
      13 -> 16         0.59793
      13 -> 17        -0.27897
      13 -> 21         0.16524

 Excited State   4:      Singlet-A      7.1529 eV  173.33 nm  f=0.0005  <S**2>=0.000
      12 -> 14         0.63660
      12 -> 15         0.17279
      13 -> 20         0.12397
      13 -> 21         0.10951

 Excited State   5:      Singlet-A      7.3238 eV  169.29 nm  f=0.0110  <S**2>=0.000
      12 -> 14        -0.12196
      13 -> 15         0.10563
      13 -> 16         0.21366
      13 -> 17         0.56775
      13 -> 19        -0.12380
      13 -> 21         0.25279

 Excited State   6:      Singlet-A      7.7073 eV  160.87 nm  f=0.0011  <S**2>=0.000
      12 -> 14        -0.14972
      13 -> 16        -0.15108
      13 -> 17        -0.20270
      13 -> 19         0.11689
      13 -> 20         0.45981
      13 -> 21         0.40557

 Excited State   7:      Singlet-A      8.0157 eV  154.68 nm  f=0.0012  <S**2>=0.000
      10 -> 14        -0.25304
      11 -> 14         0.54356
      11 -> 15         0.15789
      13 -> 18        -0.25353
      13 -> 19        -0.15556

 Excited State   8:      Singlet-A      8.2594 eV  150.11 nm  f=0.0053  <S**2>=0.000
      11 -> 14         0.23772
      13 -> 18         0.64701

 Excited State   9:      Singlet-A      8.3379 eV  148.70 nm  f=0.0066  <S**2>=0.000
      11 -> 14         0.13308
      13 -> 16         0.10973
      13 -> 17         0.16487
      13 -> 19         0.61313
      13 -> 20         0.14751
      13 -> 21        -0.15643

 Excited State  10:      Singlet-A      8.8067 eV  140.78 nm  f=0.0399  <S**2>=0.000
       8 -> 15         0.10648
      10 -> 14         0.45298
      11 -> 14         0.24533
      11 -> 15        -0.19915
      12 -> 15         0.31307
      12 -> 17         0.10783
      12 -> 19         0.12048

 Excited State  11:      Singlet-A      8.9051 eV  139.23 nm  f=0.0340  <S**2>=0.000
       9 -> 15         0.12122
      10 -> 14        -0.24972
      10 -> 15        -0.14667
      11 -> 15        -0.16639
      11 -> 16         0.12719
      11 -> 17        -0.11021
      12 -> 14        -0.11007
      12 -> 15         0.40407
      12 -> 17        -0.18600
      12 -> 18         0.10207
      12 -> 21        -0.11749
      13 -> 20        -0.11570
      13 -> 21         0.12218

 Excited State  12:      Singlet-A      9.0495 eV  137.01 nm  f=0.0912  <S**2>=0.000
      10 -> 14        -0.11420
      10 -> 15         0.12127
      12 -> 15         0.14587
      13 -> 16         0.10317
      13 -> 19        -0.22095
      13 -> 20         0.43443
      13 -> 21        -0.40095

 Excited State  13:      Singlet-A      9.1448 eV  135.58 nm  f=0.0029  <S**2>=0.000
       7 -> 15        -0.14310
      10 -> 15         0.53353
      11 -> 15         0.29769
      12 -> 15         0.15970
      13 -> 15        -0.11763
      13 -> 20        -0.15925

 Excited State  14:      Singlet-A      9.4355 eV  131.40 nm  f=0.1208  <S**2>=0.000
       9 -> 15         0.18749
      10 -> 14         0.27408
      10 -> 15        -0.24056
      10 -> 17         0.12934
      11 -> 15         0.43213
      11 -> 17        -0.22210
      12 -> 18         0.10432

 Excited State  15:      Singlet-A      9.6257 eV  128.81 nm  f=0.2719  <S**2>=0.000
       9 -> 15         0.16245
      10 -> 14        -0.16600
      10 -> 15        -0.17924
      10 -> 19        -0.10945
      11 -> 14        -0.15568
      11 -> 15         0.17036
      11 -> 19         0.17776
      12 -> 15         0.13440
      12 -> 17         0.33389
      12 -> 18        -0.23816
      12 -> 19         0.27020

 The electronic state is 1-A.
 Alpha  occ. eigenvalues --   -1.91923  -1.24217  -0.99661  -0.82129  -0.79799
 Alpha  occ. eigenvalues --   -0.68262  -0.64168  -0.54109  -0.50853  -0.42312
 Alpha  occ. eigenvalues --   -0.41467  -0.38986  -0.26830
 Alpha virt. eigenvalues --    0.14497   0.14870   0.22528   0.24784   0.27367
 Alpha virt. eigenvalues --    0.28520   0.30665   0.30988   0.35402   0.44522
 Alpha virt. eigenvalues --    0.48582

 Mulliken charges:
               1
     1  C   -0.236274
     2  C   -1.932253
     3  O    3.175185
     4  C   -1.896703
     5  C   -0.035237
     6  H    0.159053
     7  H    0.277661
     8  H    0.307271
     9  H    0.181298
 Sum of Mulliken charges =   0.00000

 Dipole moment (field-independent basis, Debye):
    X=              4.2448    Y=            -10.1995    Z=              0.4196  Tot=             11.0555
 N-N= 1.042758823798D+02 E-N=-1.699577668471D+02  KE=-1.575620473885D+01
 Orbital energies and kinetic energies (alpha):
                                 1                 2
   1         O                -1.919226         -1.379126
   2         O                -1.242170         -1.114392
   3         O                -0.996612         -0.924783
   4         O                -0.821292         -0.640046
   5         O                -0.797989         -0.679340
   6         O                -0.682623         -0.575461
   7         O                -0.641676         -0.521478

 Normal termination of Gaussian 09 at Tue Dec 15 17:07:00 2015.
