 Gaussian 09, Revision D.01,
 Gaussian 09:  ES64L-G09RevD.01 24-Apr-2013

 ------------------------------------------------------------
 #P AM1(Input,print) CIS(Singlets,NStates=15) pop(full) force
 ------------------------------------------------------------

 -----------------
 AM1-Reparam Input
 -----------------
 Symbolic Z-matrix:
 Charge =  0 Multiplicity = 1

                         Standard orientation:
 ---------------------------------------------------------------------
 Center     Atomic      Atomic             Coordinates (Angstroms)
 Number     Number       Type             X           Y           Z
 ---------------------------------------------------------------------
      1          6           0       -1.032729    0.572104    0.000414
      2          6           0       -0.867807   -0.779098    0.021517
      3          8           0        0.523989   -1.052383   -0.018254
      4          6           0        1.173568    0.160036    0.029286
      5          6           0        0.178627    1.165936   -0.031989
      6          1           0        0.403013    2.173500    0.036660
      7          1           0        2.222840    0.172623    0.001934
      8          1           0       -1.443409   -1.672987   -0.025621
      9          1           0       -2.084308    1.032058    0.017688
 ---------------------------------------------------------------------

 SCF Done:  E(RAM1) =   1.70201156413     A.U. after   14 cycles

 Excitation energies and oscillator strengths:

 Excited State   1:      Singlet-A      5.7219 eV  216.68 nm  f=0.2943  <S**2>=0.000
      10 -> 17         0.10331
      13 -> 14         0.68662
 This state for optimization and/or second-order correction.
 Total Energy, E(CIS) =   1.91228816412
 Copying the excited state density for this state as the 1-particle RhoCI density.

 Excited State   2:      Singlet-A      6.6922 eV  185.27 nm  f=0.0075  <S**2>=0.000
      11 -> 16        -0.10391
      13 -> 15         0.61483
      13 -> 16         0.12838
      13 -> 17        -0.27683

 Excited State   3:      Singlet-A      7.0621 eV  175.56 nm  f=0.0008  <S**2>=0.000
      11 -> 15        -0.15415
      13 -> 15        -0.13675
      13 -> 16         0.62312
      13 -> 19        -0.14964
      13 -> 21         0.15799

 Excited State   4:      Singlet-A      7.5226 eV  164.82 nm  f=0.0013  <S**2>=0.000
      10 -> 14        -0.18940
      11 -> 14         0.30065
      12 -> 14         0.54756
      13 -> 21        -0.18811

 Excited State   5:      Singlet-A      7.8710 eV  157.52 nm  f=0.0177  <S**2>=0.000
      10 -> 14         0.52092
      13 -> 15        -0.17817
      13 -> 17        -0.39750

 Excited State   6:      Singlet-A      7.9462 eV  156.03 nm  f=0.0012  <S**2>=0.000
      10 -> 14         0.31527
      11 -> 14         0.12059
      12 -> 14         0.26579
      13 -> 15         0.12092
      13 -> 17         0.35899
      13 -> 20         0.15072
      13 -> 21         0.36073

 Excited State   7:      Singlet-A      8.0907 eV  153.24 nm  f=0.0024  <S**2>=0.000
      10 -> 14        -0.28855
      13 -> 17        -0.30912
      13 -> 18        -0.12463
      13 -> 19         0.13774
      13 -> 20         0.22284
      13 -> 21         0.44474

 Excited State   8:      Singlet-A      8.6861 eV  142.74 nm  f=0.0007  <S**2>=0.000
      11 -> 15        -0.11670
      13 -> 16         0.16140
      13 -> 17         0.10991
      13 -> 18        -0.43973
      13 -> 19         0.44239
      13 -> 21        -0.18038

 Excited State   9:      Singlet-A      8.7480 eV  141.73 nm  f=0.0730  <S**2>=0.000
      11 -> 14         0.58908
      12 -> 14        -0.32158

 Excited State  10:      Singlet-A      8.8325 eV  140.37 nm  f=0.0163  <S**2>=0.000
      13 -> 18         0.50180
      13 -> 19         0.41977
      13 -> 20         0.19523

 Excited State  11:      Singlet-A      9.3874 eV  132.08 nm  f=0.1049  <S**2>=0.000
      10 -> 15        -0.17908
      10 -> 17         0.18139
      12 -> 16        -0.13893
      12 -> 17         0.10971
      13 -> 19        -0.18688
      13 -> 20         0.50151
      13 -> 21        -0.19247

 Excited State  12:      Singlet-A      9.4643 eV  131.00 nm  f=0.1452  <S**2>=0.000
      10 -> 15         0.27776
      10 -> 17        -0.27506
      11 -> 16         0.10772
      12 -> 16         0.11159
      12 -> 17        -0.16952
      12 -> 18         0.11600
      12 -> 21         0.10634
      13 -> 14         0.10273
      13 -> 19        -0.14793
      13 -> 20         0.33012
      13 -> 21        -0.14190

 Excited State  13:      Singlet-A      9.7630 eV  126.99 nm  f=0.0030  <S**2>=0.000
      11 -> 15         0.46550
      11 -> 16         0.20326
      11 -> 17        -0.16458
      12 -> 15        -0.32676
      13 -> 16         0.20215

 Excited State  14:      Singlet-A     10.0440 eV  123.44 nm  f=0.1096  <S**2>=0.000
       8 -> 16         0.11095
       9 -> 16         0.13337
      10 -> 15         0.19661
      10 -> 16         0.23349
      10 -> 18        -0.12404
      10 -> 19        -0.22895
      11 -> 15         0.19738
      11 -> 17         0.10844
      11 -> 18        -0.11973
      12 -> 15         0.17606
      12 -> 16        -0.18865
      12 -> 17         0.23576
      12 -> 18        -0.19860
      12 -> 19        -0.11284

 Excited State  15:      Singlet-A     10.0920 eV  122.85 nm  f=0.0608  <S**2>=0.000
      10 -> 15        -0.14073
      10 -> 16        -0.21517
      10 -> 19         0.13851
      11 -> 15         0.22765
      11 -> 17        -0.12596
      12 -> 15         0.44128
      12 -> 16        -0.20095
      12 -> 17        -0.23549

 The electronic state is 1-A.
 Alpha  occ. eigenvalues --   -1.89720  -1.23111  -0.98271  -0.81962  -0.80916
 Alpha  occ. eigenvalues --   -0.68291  -0.62311  -0.54481  -0.52270  -0.42349
 Alpha  occ. eigenvalues --   -0.41574  -0.41262  -0.29148
 Alpha virt. eigenvalues --    0.13609   0.19187   0.20002   0.23687   0.27034
 Alpha virt. eigenvalues --    0.27998   0.29757   0.30089   0.34525   0.43536
 Alpha virt. eigenvalues --    0.48181

 Mulliken charges:
               1
     1  C   -0.069643
     2  C   -1.931703
     3  O    3.190541
     4  C   -1.974571
     5  C   -0.152263
     6  H    0.182013
     7  H    0.303485
     8  H    0.278352
     9  H    0.173789
 Sum of Mulliken charges =   0.00000

 Dipole moment (field-independent basis, Debye):
    X=              4.5161    Y=             -9.4927    Z=             -0.6693  Tot=             10.5335
 N-N= 1.035617262631D+02 E-N=-1.686911698895D+02  KE=-1.571496050238D+01
 Orbital energies and kinetic energies (alpha):
                                 1                 2
   1         O                -1.897199         -1.347881
   2         O                -1.231112         -1.111357
   3         O                -0.982709         -0.909428
   4         O                -0.819620         -0.695157
   5         O                -0.809158         -0.645252
   6         O                -0.682905         -0.595415
   7         O                -0.623111         -0.512882

 Normal termination of Gaussian 09 at Tue Dec 15 17:07:05 2015.
