 Gaussian 09, Revision D.01,
 Gaussian 09:  ES64L-G09RevD.01 24-Apr-2013

 ------------------------------------------------------------
 #P AM1(Input,print) CIS(Singlets,NStates=15) pop(full) force
 ------------------------------------------------------------

 -----------------
 AM1-Reparam Input
 -----------------
 Symbolic Z-matrix:
 Charge =  0 Multiplicity = 1

                         Standard orientation:
 ---------------------------------------------------------------------
 Center     Atomic      Atomic             Coordinates (Angstroms)
 Number     Number       Type             X           Y           Z
 ---------------------------------------------------------------------
      1          6           0       -0.376584    1.124644   -0.024671
      2          6           0       -1.163767    0.018786   -0.011134
      3          8           0       -0.392425   -1.095488    0.009137
      4          6           0        0.940801   -0.648277   -0.018496
      5          6           0        1.003911    0.667765    0.015701
      6          1           0        1.949612    1.267863    0.039996
      7          1           0        1.649509   -1.489261    0.007927
      8          1           0       -2.235078   -0.102056    0.071992
      9          1           0       -0.650812    2.109852    0.038586
 ---------------------------------------------------------------------

 SCF Done:  E(RAM1) =   2.55449775087     A.U. after   13 cycles

 Excitation energies and oscillator strengths:

 Excited State   1:      Singlet-A      5.1846 eV  239.14 nm  f=0.3515  <S**2>=0.000
      13 -> 14         0.69653
 This state for optimization and/or second-order correction.
 Total Energy, E(CIS) =   2.74502809620
 Copying the excited state density for this state as the 1-particle RhoCI density.

 Excited State   2:      Singlet-A      6.2029 eV  199.88 nm  f=0.0002  <S**2>=0.000
      13 -> 15         0.65454
      13 -> 16        -0.12879
      13 -> 18        -0.13683
      13 -> 19        -0.13972

 Excited State   3:      Singlet-A      6.2623 eV  197.99 nm  f=0.0024  <S**2>=0.000
      13 -> 15         0.12904
      13 -> 16         0.65413
      13 -> 17        -0.18240

 Excited State   4:      Singlet-A      6.7456 eV  183.80 nm  f=0.0005  <S**2>=0.000
      12 -> 14         0.69651

 Excited State   5:      Singlet-A      7.6724 eV  161.60 nm  f=0.0011  <S**2>=0.000
      13 -> 15         0.13165
      13 -> 18         0.61996
      13 -> 20        -0.13845
      13 -> 21         0.25191

 Excited State   6:      Singlet-A      7.8445 eV  158.05 nm  f=0.0104  <S**2>=0.000
      10 -> 14         0.28919
      11 -> 14         0.53584
      13 -> 17        -0.32783

 Excited State   7:      Singlet-A      8.0504 eV  154.01 nm  f=0.0039  <S**2>=0.000
      10 -> 14         0.15627
      11 -> 14         0.30906
      13 -> 16         0.13561
      13 -> 17         0.58730

 Excited State   8:      Singlet-A      8.6876 eV  142.71 nm  f=0.0019  <S**2>=0.000
      13 -> 15         0.10853
      13 -> 19         0.67426

 Excited State   9:      Singlet-A      8.8215 eV  140.55 nm  f=0.0738  <S**2>=0.000
      10 -> 14         0.58032
      11 -> 14        -0.30346
      12 -> 15         0.14458
      12 -> 16         0.12143

 Excited State  10:      Singlet-A      9.2299 eV  134.33 nm  f=0.0987  <S**2>=0.000
       8 -> 16        -0.15129
      10 -> 14        -0.14356
      11 -> 17        -0.14633
      12 -> 15         0.54601
      12 -> 18        -0.26336

 Excited State  11:      Singlet-A      9.4030 eV  131.86 nm  f=0.0042  <S**2>=0.000
      13 -> 18        -0.29061
      13 -> 20        -0.30403
      13 -> 21         0.55365

 Excited State  12:      Singlet-A      9.6978 eV  127.85 nm  f=0.0454  <S**2>=0.000
      10 -> 14        -0.12569
      11 -> 15        -0.19714
      12 -> 16         0.61139
      12 -> 17        -0.13147

 Excited State  13:      Singlet-A      9.7408 eV  127.28 nm  f=0.1162  <S**2>=0.000
      11 -> 16         0.14880
      12 -> 15        -0.17030
      12 -> 18        -0.12586
      13 -> 20         0.53454
      13 -> 21         0.30185

 Excited State  14:      Singlet-A      9.7905 eV  126.64 nm  f=0.1355  <S**2>=0.000
       9 -> 15         0.15603
      10 -> 16         0.11820
      10 -> 17        -0.12316
      11 -> 15         0.11299
      11 -> 16         0.30687
      11 -> 17        -0.22084
      12 -> 15        -0.26690
      12 -> 18        -0.27224
      12 -> 19         0.11385
      13 -> 20        -0.26593
      13 -> 21        -0.13853

 Excited State  15:      Singlet-A     10.0740 eV  123.07 nm  f=0.0035  <S**2>=0.000
       7 -> 16         0.10318
      10 -> 16         0.51274
      11 -> 15         0.17346
      11 -> 16        -0.33007

 The electronic state is 1-A.
 Alpha  occ. eigenvalues --   -1.72975  -1.15447  -0.95153  -0.80733  -0.76142
 Alpha  occ. eigenvalues --   -0.67328  -0.63816  -0.54760  -0.50205  -0.44027
 Alpha  occ. eigenvalues --   -0.43598  -0.40005  -0.27691
 Alpha virt. eigenvalues --    0.11671   0.17750   0.17968   0.25837   0.27817
 Alpha virt. eigenvalues --    0.29318   0.31980   0.32798   0.38213   0.47580
 Alpha virt. eigenvalues --    0.51881

 Mulliken charges:
               1
     1  C   -0.122872
     2  C   -1.925948
     3  O    3.225759
     4  C   -1.881503
     5  C   -0.033538
     6  H    0.114633
     7  H    0.237210
     8  H    0.265981
     9  H    0.120277
 Sum of Mulliken charges =   0.00000

 Dipole moment (field-independent basis, Debye):
    X=             -3.5488    Y=            -10.4989    Z=              0.5842  Tot=             11.0979
 N-N= 1.035354390096D+02 E-N=-1.683118824119D+02  KE=-1.501243342695D+01
 Orbital energies and kinetic energies (alpha):
                                 1                 2
   1         O                -1.729746         -1.218571
   2         O                -1.154474         -1.010923
   3         O                -0.951532         -0.871331
   4         O                -0.807328         -0.612514
   5         O                -0.761416         -0.683996
   6         O                -0.673275         -0.568534
   7         O                -0.638156         -0.520822

 Normal termination of Gaussian 09 at Tue Dec 15 17:06:21 2015.
