 Gaussian 09, Revision D.01,
 Gaussian 09:  ES64L-G09RevD.01 24-Apr-2013

 ------------------------------------------------------------
 #P AM1(Input,print) CIS(Singlets,NStates=15) pop(full) force
 ------------------------------------------------------------

 -----------------
 AM1-Reparam Input
 -----------------
 Symbolic Z-matrix:
 Charge =  0 Multiplicity = 1

                         Standard orientation:
 ---------------------------------------------------------------------
 Center     Atomic      Atomic             Coordinates (Angstroms)
 Number     Number       Type             X           Y           Z
 ---------------------------------------------------------------------
      1          6           0       -0.970438    0.756641   -0.000216
      2          6           0       -0.964119   -0.659446    0.018662
      3          8           0        0.356775   -1.098251   -0.032885
      4          6           0        1.120594   -0.024233    0.048534
      5          6           0        0.427731    1.087000   -0.030332
      6          1           0        0.845592    2.120693   -0.014245
      7          1           0        2.155566   -0.269430    0.017029
      8          1           0       -1.711403   -1.383731    0.010699
      9          1           0       -1.826562    1.358707    0.029712
 ---------------------------------------------------------------------

 SCF Done:  E(RAM1) =   1.71408688275     A.U. after   14 cycles

 Excitation energies and oscillator strengths:

 Excited State   1:      Singlet-A      5.3609 eV  231.27 nm  f=0.3371  <S**2>=0.000
      13 -> 14         0.69414
 This state for optimization and/or second-order correction.
 Total Energy, E(CIS) =   1.91109772359
 Copying the excited state density for this state as the 1-particle RhoCI density.

 Excited State   2:      Singlet-A      6.0968 eV  203.36 nm  f=0.0015  <S**2>=0.000
      11 -> 15         0.11752
      13 -> 15         0.66687
      13 -> 17         0.14056

 Excited State   3:      Singlet-A      6.7385 eV  183.99 nm  f=0.0068  <S**2>=0.000
      13 -> 16         0.61006
      13 -> 17         0.22608
      13 -> 19         0.18275
      13 -> 20         0.12650

 Excited State   4:      Singlet-A      7.0582 eV  175.66 nm  f=0.0011  <S**2>=0.000
      12 -> 14         0.67253
      13 -> 20         0.10895

 Excited State   5:      Singlet-A      7.5358 eV  164.53 nm  f=0.0006  <S**2>=0.000
      12 -> 14        -0.16845
      13 -> 16        -0.16282
      13 -> 18        -0.15397
      13 -> 19         0.10151
      13 -> 20         0.49233
      13 -> 21         0.38674

 Excited State   6:      Singlet-A      7.7391 eV  160.21 nm  f=0.0169  <S**2>=0.000
      10 -> 14        -0.10006
      11 -> 16         0.10517
      13 -> 15        -0.14009
      13 -> 16        -0.15483
      13 -> 17         0.61521
      13 -> 18        -0.10130
      13 -> 19        -0.18865

 Excited State   7:      Singlet-A      8.1654 eV  151.84 nm  f=0.0025  <S**2>=0.000
      10 -> 14         0.68247

 Excited State   8:      Singlet-A      8.3842 eV  147.88 nm  f=0.0021  <S**2>=0.000
      13 -> 16        -0.14130
      13 -> 17         0.15195
      13 -> 18         0.60132
      13 -> 19         0.23984

 Excited State   9:      Singlet-A      8.5694 eV  144.68 nm  f=0.0751  <S**2>=0.000
      11 -> 14         0.62308
      12 -> 15         0.11494
      13 -> 18         0.10299
      13 -> 19        -0.19743
      13 -> 21         0.11857

 Excited State  10:      Singlet-A      8.6055 eV  144.08 nm  f=0.0307  <S**2>=0.000
      11 -> 14         0.24882
      13 -> 16        -0.10099
      13 -> 18        -0.26854
      13 -> 19         0.51858
      13 -> 21        -0.24350

 Excited State  11:      Singlet-A      9.0657 eV  136.76 nm  f=0.0744  <S**2>=0.000
      13 -> 19         0.18226
      13 -> 20        -0.44110
      13 -> 21         0.49422

 Excited State  12:      Singlet-A      9.3255 eV  132.95 nm  f=0.1190  <S**2>=0.000
       8 -> 15         0.16505
      10 -> 17        -0.15611
      11 -> 14        -0.12279
      11 -> 15         0.12740
      12 -> 15         0.50184
      12 -> 16        -0.16501
      12 -> 18        -0.11736
      12 -> 20        -0.18152
      12 -> 21        -0.12534

 Excited State  13:      Singlet-A      9.5552 eV  129.76 nm  f=0.0124  <S**2>=0.000
       7 -> 15        -0.13636
      11 -> 15         0.61644
      11 -> 16         0.11841
      11 -> 17         0.10495
      12 -> 16         0.10377
      13 -> 15        -0.13163

 Excited State  14:      Singlet-A      9.6301 eV  128.75 nm  f=0.0465  <S**2>=0.000
       9 -> 15         0.13917
      10 -> 15         0.24448
      10 -> 17         0.21211
      12 -> 15         0.39766
      12 -> 16         0.22280
      12 -> 17         0.23275
      12 -> 21         0.17946

 Excited State  15:      Singlet-A     10.1302 eV  122.39 nm  f=0.0091  <S**2>=0.000
      11 -> 15        -0.15126
      11 -> 16         0.58172
      11 -> 19         0.10771
      12 -> 16         0.17346
      13 -> 16         0.15564

 The electronic state is 1-A.
 Alpha  occ. eigenvalues --   -1.91983  -1.21899  -1.00159  -0.82444  -0.80606
 Alpha  occ. eigenvalues --   -0.69102  -0.63675  -0.54201  -0.52074  -0.44186
 Alpha  occ. eigenvalues --   -0.42098  -0.40737  -0.27998
 Alpha virt. eigenvalues --    0.12354   0.16641   0.20677   0.24745   0.26926
 Alpha virt. eigenvalues --    0.28323   0.28568   0.29575   0.36774   0.45686
 Alpha virt. eigenvalues --    0.50289

 Mulliken charges:
               1
     1  C   -0.103429
     2  C   -1.958448
     3  O    3.179056
     4  C   -1.909143
     5  C   -0.151817
     6  H    0.177057
     7  H    0.293116
     8  H    0.293833
     9  H    0.179776
 Sum of Mulliken charges =   0.00000

 Dipole moment (field-independent basis, Debye):
    X=              3.8071    Y=             -9.5930    Z=             -0.9167  Tot=             10.3615
 N-N= 1.040545771909D+02 E-N=-1.695037644693D+02  KE=-1.575398887110D+01
 Orbital energies and kinetic energies (alpha):
                                 1                 2
   1         O                -1.919834         -1.387262
   2         O                -1.218990         -1.095906
   3         O                -1.001589         -0.911105
   4         O                -0.824436         -0.640204
   5         O                -0.806055         -0.706663
   6         O                -0.691017         -0.581603
   7         O                -0.636747         -0.511105

 Normal termination of Gaussian 09 at Tue Dec 15 17:06:55 2015.
