 Gaussian 09, Revision D.01,
 Gaussian 09:  ES64L-G09RevD.01 24-Apr-2013

 ------------------------------------------------------------
 #P AM1(Input,print) CIS(Singlets,NStates=15) pop(full) force
 ------------------------------------------------------------

 -----------------
 AM1-Reparam Input
 -----------------
 Symbolic Z-matrix:
 Charge =  0 Multiplicity = 1

                         Standard orientation:
 ---------------------------------------------------------------------
 Center     Atomic      Atomic             Coordinates (Angstroms)
 Number     Number       Type             X           Y           Z
 ---------------------------------------------------------------------
      1          6           0        0.136899    1.145612    0.021080
      2          6           0       -1.020423    0.469537   -0.029252
      3          8           0       -0.771031   -0.829433    0.032619
      4          6           0        0.514860   -0.998840   -0.016891
      5          6           0        1.165948    0.247622   -0.024180
      6          1           0        2.287033    0.389486    0.061056
      7          1           0        0.891306   -1.977307   -0.014250
      8          1           0       -2.083258    0.774374   -0.043303
      9          1           0        0.289466    2.265327    0.031001
 ---------------------------------------------------------------------

 SCF Done:  E(RAM1) =  0.387784159406E-01 A.U. after   13 cycles

 Excitation energies and oscillator strengths:

 Excited State   1:      Singlet-A      4.3855 eV  282.71 nm  f=0.1044  <S**2>=0.000
      12 -> 15         0.18982
      13 -> 14         0.66967
 This state for optimization and/or second-order correction.
 Total Energy, E(CIS) =  0.199942826526
 Copying the excited state density for this state as the 1-particle RhoCI density.

 Excited State   2:      Singlet-A      4.6859 eV  264.59 nm  f=0.0024  <S**2>=0.000
      13 -> 16         0.68083
      13 -> 22        -0.11364

 Excited State   3:      Singlet-A      4.9759 eV  249.17 nm  f=0.0221  <S**2>=0.000
      12 -> 14        -0.35488
      13 -> 15         0.60569

 Excited State   4:      Singlet-A      5.7048 eV  217.33 nm  f=0.0011  <S**2>=0.000
      12 -> 18         0.14267
      13 -> 17        -0.10892
      13 -> 18         0.52529
      13 -> 20        -0.21898
      13 -> 21        -0.23157
      13 -> 22        -0.12262
      13 -> 23        -0.17095

 Excited State   5:      Singlet-A      6.0718 eV  204.20 nm  f=0.0011  <S**2>=0.000
      12 -> 17        -0.13715
      12 -> 20         0.11818
      12 -> 22         0.11733
      12 -> 23        -0.10766
      13 -> 17         0.39581
      13 -> 19         0.29355
      13 -> 20        -0.23468
      13 -> 22        -0.24978
      13 -> 23         0.20322

 Excited State   6:      Singlet-A      6.2939 eV  196.99 nm  f=0.3176  <S**2>=0.000
       9 -> 16        -0.10185
      12 -> 14         0.56225
      13 -> 15         0.32576

 Excited State   7:      Singlet-A      6.3170 eV  196.27 nm  f=0.0019  <S**2>=0.000
       7 -> 16        -0.15864
      12 -> 16         0.65051
      12 -> 22        -0.13113

 Excited State   8:      Singlet-A      6.5348 eV  189.73 nm  f=0.0201  <S**2>=0.000
      12 -> 14         0.10340
      13 -> 17        -0.38797
      13 -> 18        -0.23894
      13 -> 19         0.44609
      13 -> 23        -0.10673

 Excited State   9:      Singlet-A      6.6343 eV  186.88 nm  f=0.1661  <S**2>=0.000
      12 -> 15         0.66076
      13 -> 14        -0.17324

 Excited State  10:      Singlet-A      6.9408 eV  178.63 nm  f=0.0122  <S**2>=0.000
       9 -> 14         0.26953
      11 -> 14         0.54126
      11 -> 15         0.27943

 Excited State  11:      Singlet-A      7.1551 eV  173.28 nm  f=0.0011  <S**2>=0.000
      12 -> 18        -0.27741
      12 -> 19         0.26037
      12 -> 21         0.11111
      13 -> 17         0.16215
      13 -> 18         0.19769
      13 -> 19         0.29219
      13 -> 21         0.19611
      13 -> 22         0.30684
      13 -> 23        -0.11377

 Excited State  12:      Singlet-A      7.2700 eV  170.54 nm  f=0.0025  <S**2>=0.000
      12 -> 17         0.40395
      12 -> 19         0.15142
      12 -> 21        -0.18761
      12 -> 23         0.16684
      13 -> 17         0.21726
      13 -> 19         0.20086
      13 -> 20         0.21523
      13 -> 21        -0.24936
      13 -> 24         0.10906

 Excited State  13:      Singlet-A      7.4345 eV  166.77 nm  f=0.0012  <S**2>=0.000
       9 -> 14         0.24183
      10 -> 14         0.40454
      10 -> 15        -0.30061
      11 -> 14        -0.20122
      12 -> 18        -0.17868
      13 -> 22        -0.19800

 Excited State  14:      Singlet-A      7.5464 eV  164.30 nm  f=0.0033  <S**2>=0.000
      10 -> 14         0.10821
      11 -> 14        -0.11238
      12 -> 18         0.16325
      12 -> 19        -0.14807
      12 -> 21        -0.15532
      12 -> 22         0.13443
      12 -> 23         0.20936
      13 -> 18         0.10964
      13 -> 20        -0.13834
      13 -> 22         0.39363
      13 -> 23         0.31985

 Excited State  15:      Singlet-A      7.5661 eV  163.87 nm  f=0.0068  <S**2>=0.000
       9 -> 14         0.11398
      10 -> 14         0.17920
      10 -> 15        -0.17969
      12 -> 17        -0.10094
      12 -> 18         0.31771
      12 -> 19         0.12459
      12 -> 22        -0.17864
      13 -> 17         0.19201
      13 -> 18        -0.18198
      13 -> 19        -0.10111
      13 -> 20        -0.19895
      13 -> 22         0.13017
      13 -> 23        -0.27654

 The electronic state is 1-A.
 Alpha  occ. eigenvalues --   -1.62158  -1.25097  -1.10013  -0.82951  -0.81527
 Alpha  occ. eigenvalues --   -0.69340  -0.62893  -0.56748  -0.50931  -0.50084
 Alpha  occ. eigenvalues --   -0.48716  -0.39931  -0.33851
 Alpha virt. eigenvalues --    0.03420   0.06860   0.09733   0.14158   0.14367
 Alpha virt. eigenvalues --    0.15516   0.17635   0.18445   0.19165   0.20789
 Alpha virt. eigenvalues --    0.23254

 Mulliken charges:
               1
     1  C   -0.197055
     2  C   -0.137767
     3  O   -0.019970
     4  C   -0.128935
     5  C   -0.220550
     6  H    0.167471
     7  H    0.184849
     8  H    0.193896
     9  H    0.158059
 Sum of Mulliken charges =   0.00000

 Dipole moment (field-independent basis, Debye):
    X=              0.1326    Y=              0.1378    Z=              0.0853  Tot=              0.2094
 N-N= 1.043118453967D+02 E-N=-1.724134729725D+02  KE=-1.664788820458D+01
 Orbital energies and kinetic energies (alpha):
                                 1                 2
   1         O                -1.621577         -1.348571
   2         O                -1.250971         -1.063526
   3         O                -1.100126         -0.954089
   4         O                -0.829509         -0.702819
   5         O                -0.815268         -0.718717
   6         O                -0.693404         -0.606443
   7         O                -0.628926         -0.502880

 Normal termination of Gaussian 09 at Tue Dec 15 16:28:56 2015.
