 Gaussian 09, Revision D.01,
 Gaussian 09:  ES64L-G09RevD.01 24-Apr-2013

 ------------------------------------------------------------
 #P AM1(Input,print) CIS(Singlets,NStates=15) pop(full) force
 ------------------------------------------------------------

 -----------------
 AM1-Reparam Input
 -----------------
 Symbolic Z-matrix:
 Charge =  0 Multiplicity = 1

                         Standard orientation:
 ---------------------------------------------------------------------
 Center     Atomic      Atomic             Coordinates (Angstroms)
 Number     Number       Type             X           Y           Z
 ---------------------------------------------------------------------
      1          6           0        0.997475    0.685063   -0.014824
      2          6           0        0.940449   -0.633211   -0.000099
      3          8           0       -0.343307   -1.080257   -0.024714
      4          6           0       -1.184418   -0.037306    0.038479
      5          6           0       -0.389944    1.104132    0.005761
      6          1           0       -0.719698    2.168621   -0.062461
      7          1           0       -2.209550   -0.159561   -0.029901
      8          1           0        1.684739   -1.406406    0.074416
      9          1           0        1.809589    1.327340    0.039754
 ---------------------------------------------------------------------

 SCF Done:  E(RAM1) =   1.72915255682     A.U. after   13 cycles

 Excitation energies and oscillator strengths:

 Excited State   1:      Singlet-A      5.3391 eV  232.22 nm  f=0.3703  <S**2>=0.000
      13 -> 14         0.69530
 This state for optimization and/or second-order correction.
 Total Energy, E(CIS) =   1.92536044636
 Copying the excited state density for this state as the 1-particle RhoCI density.

 Excited State   2:      Singlet-A      6.8125 eV  181.99 nm  f=0.0002  <S**2>=0.000
      12 -> 14         0.70125

 Excited State   3:      Singlet-A      7.1529 eV  173.33 nm  f=0.0026  <S**2>=0.000
      10 -> 15         0.10601
      13 -> 15         0.66935
      13 -> 17        -0.14215
      13 -> 19         0.10871

 Excited State   4:      Singlet-A      7.3910 eV  167.75 nm  f=0.0061  <S**2>=0.000
      13 -> 16         0.66512
      13 -> 18        -0.18003

 Excited State   5:      Singlet-A      8.0137 eV  154.71 nm  f=0.0083  <S**2>=0.000
      11 -> 14         0.69975

 Excited State   6:      Singlet-A      8.6285 eV  143.69 nm  f=0.0018  <S**2>=0.000
      13 -> 15         0.12708
      13 -> 17         0.51790
      13 -> 18        -0.36860
      13 -> 20         0.10382
      13 -> 21        -0.20351

 Excited State   7:      Singlet-A      9.3408 eV  132.73 nm  f=0.0946  <S**2>=0.000
      10 -> 14         0.64193
      12 -> 15         0.13820
      13 -> 17        -0.11932
      13 -> 18        -0.12829

 Excited State   8:      Singlet-A      9.3962 eV  131.95 nm  f=0.0159  <S**2>=0.000
      10 -> 14         0.18457
      10 -> 16        -0.11292
      13 -> 16         0.12391
      13 -> 17         0.40793
      13 -> 18         0.48560

 Excited State   9:      Singlet-A      9.8226 eV  126.22 nm  f=0.0075  <S**2>=0.000
      12 -> 15         0.17262
      12 -> 17        -0.10239
      12 -> 18         0.10147
      13 -> 19         0.62114

 Excited State  10:      Singlet-A      9.8444 eV  125.94 nm  f=0.0259  <S**2>=0.000
      10 -> 14        -0.11970
      11 -> 16        -0.13607
      11 -> 17         0.11995
      11 -> 18         0.12209
      12 -> 15         0.37700
      12 -> 16        -0.21120
      12 -> 17        -0.25681
      12 -> 18         0.21509
      13 -> 19        -0.28086

 Excited State  11:      Singlet-A     10.4374 eV  118.79 nm  f=0.0279  <S**2>=0.000
      10 -> 14        -0.10371
      11 -> 15         0.20556
      12 -> 15         0.41266
      12 -> 16         0.43005
      12 -> 18        -0.20088

 Excited State  12:      Singlet-A     10.4697 eV  118.42 nm  f=0.0506  <S**2>=0.000
      13 -> 18         0.21249
      13 -> 20         0.56237
      13 -> 21        -0.29246
      13 -> 22         0.11977

 Excited State  13:      Singlet-A     10.5189 eV  117.87 nm  f=0.2533  <S**2>=0.000
       9 -> 16        -0.10526
      11 -> 15        -0.16186
      11 -> 16        -0.27628
      11 -> 17         0.12724
      11 -> 18         0.12186
      12 -> 15        -0.22371
      12 -> 16         0.40468
      12 -> 17        -0.28621
      12 -> 19        -0.13754

 Excited State  14:      Singlet-A     10.8053 eV  114.74 nm  f=0.0548  <S**2>=0.000
      13 -> 18        -0.12633
      13 -> 20         0.36607
      13 -> 21         0.50769
      13 -> 22        -0.24182

 Excited State  15:      Singlet-A     11.1046 eV  111.65 nm  f=0.0403  <S**2>=0.000
       8 -> 15         0.12381
       9 -> 14         0.31236
       9 -> 15        -0.17769
      10 -> 15         0.14113
      11 -> 15         0.40559
      11 -> 19         0.22608
      12 -> 17        -0.23332

 The electronic state is 1-A.
 Alpha  occ. eigenvalues --   -1.91685  -1.17473  -0.93357  -0.82548  -0.78934
 Alpha  occ. eigenvalues --   -0.70314  -0.68346  -0.58047  -0.55595  -0.47801
 Alpha  occ. eigenvalues --   -0.45906  -0.42020  -0.30725
 Alpha virt. eigenvalues --    0.09691   0.18437   0.19981   0.26832   0.27960
 Alpha virt. eigenvalues --    0.30067   0.31766   0.34520   0.34678   0.42851
 Alpha virt. eigenvalues --    0.47373

 Mulliken charges:
               1
     1  C   -0.138077
     2  C   -2.010440
     3  O    3.306223
     4  C   -2.047077
     5  C   -0.209812
     6  H    0.215348
     7  H    0.341321
     8  H    0.334620
     9  H    0.207894
 Sum of Mulliken charges =   0.00000

 Dipole moment (field-independent basis, Debye):
    X=             -2.6148    Y=             -9.7995    Z=             -0.6266  Tot=             10.1617
 N-N= 1.040624672827D+02 E-N=-1.694956899324D+02  KE=-1.551591512834D+01
 Orbital energies and kinetic energies (alpha):
                                 1                 2
   1         O                -1.916849         -1.384116
   2         O                -1.174732         -1.043800
   3         O                -0.933570         -0.883961
   4         O                -0.825485         -0.575945
   5         O                -0.789338         -0.704455
   6         O                -0.703144         -0.587641
   7         O                -0.683455         -0.538867

 Normal termination of Gaussian 09 at Tue Dec 15 17:09:48 2015.
