 Gaussian 09, Revision D.01,
 Gaussian 09:  ES64L-G09RevD.01 24-Apr-2013

 ------------------------------------------------------------
 #P AM1(Input,print) CIS(Singlets,NStates=15) pop(full) force
 ------------------------------------------------------------

 -----------------
 AM1-Reparam Input
 -----------------
 Symbolic Z-matrix:
 Charge =  0 Multiplicity = 1

                         Standard orientation:
 ---------------------------------------------------------------------
 Center     Atomic      Atomic             Coordinates (Angstroms)
 Number     Number       Type             X           Y           Z
 ---------------------------------------------------------------------
      1          6           0       -0.665865    0.957278    0.014724
      2          6           0       -1.132175   -0.269605   -0.006172
      3          8           0       -0.098945   -1.117611    0.002424
      4          6           0        1.108963   -0.423892   -0.004289
      5          6           0        0.776661    0.915995   -0.001533
      6          1           0        1.541009    1.678498   -0.014108
      7          1           0        2.043037   -1.016907    0.012523
      8          1           0       -2.092149   -0.719377   -0.010107
      9          1           0       -1.225847    1.920021   -0.024073
 ---------------------------------------------------------------------

 SCF Done:  E(RAM1) =   1.79458227379     A.U. after   14 cycles

 Excitation energies and oscillator strengths:

 Excited State   1:      Singlet-A      5.3573 eV  231.43 nm  f=0.3523  <S**2>=0.000
      13 -> 14         0.69221
 This state for optimization and/or second-order correction.
 Total Energy, E(CIS) =   1.99146016809
 Copying the excited state density for this state as the 1-particle RhoCI density.

 Excited State   2:      Singlet-A      6.6380 eV  186.78 nm  f=0.0060  <S**2>=0.000
      13 -> 15         0.67030
      13 -> 16         0.10580
      13 -> 18        -0.10991

 Excited State   3:      Singlet-A      6.8952 eV  179.81 nm  f=0.0021  <S**2>=0.000
      13 -> 16         0.65315
      13 -> 17        -0.15460
      13 -> 19         0.14372

 Excited State   4:      Singlet-A      7.3862 eV  167.86 nm  f=0.0006  <S**2>=0.000
      12 -> 14         0.70022

 Excited State   5:      Singlet-A      8.0093 eV  154.80 nm  f=0.0000  <S**2>=0.000
      13 -> 16        -0.14073
      13 -> 17        -0.38738
      13 -> 18         0.51089
      13 -> 21         0.21810

 Excited State   6:      Singlet-A      8.1206 eV  152.68 nm  f=0.0058  <S**2>=0.000
      11 -> 14         0.69162
      13 -> 18         0.10211

 Excited State   7:      Singlet-A      8.9168 eV  139.05 nm  f=0.0085  <S**2>=0.000
      10 -> 16        -0.11186
      13 -> 15         0.11650
      13 -> 17         0.53583
      13 -> 18         0.38789

 Excited State   8:      Singlet-A      9.1038 eV  136.19 nm  f=0.0999  <S**2>=0.000
      10 -> 14         0.67824

 Excited State   9:      Singlet-A      9.4910 eV  130.63 nm  f=0.0005  <S**2>=0.000
      10 -> 16         0.11706
      13 -> 16        -0.11382
      13 -> 18        -0.10873
      13 -> 19         0.65809

 Excited State  10:      Singlet-A      9.7609 eV  127.02 nm  f=0.0462  <S**2>=0.000
      11 -> 15         0.22783
      11 -> 16         0.18031
      11 -> 17        -0.18756
      11 -> 18        -0.17428
      12 -> 15        -0.12404
      12 -> 16         0.27692
      12 -> 17        -0.28671
      12 -> 18         0.30491

 Excited State  11:      Singlet-A     10.0212 eV  123.72 nm  f=0.1440  <S**2>=0.000
      11 -> 15         0.20047
      12 -> 15         0.63436
      12 -> 17        -0.10812
      12 -> 19        -0.10668

 Excited State  12:      Singlet-A     10.2436 eV  121.04 nm  f=0.0152  <S**2>=0.000
      13 -> 18        -0.19761
      13 -> 19        -0.10528
      13 -> 20        -0.26934
      13 -> 21         0.59629

 Excited State  13:      Singlet-A     10.4524 eV  118.62 nm  f=0.1494  <S**2>=0.000
      11 -> 16         0.46700
      11 -> 19         0.11797
      12 -> 16        -0.44385
      13 -> 20        -0.14749

 Excited State  14:      Singlet-A     10.4757 eV  118.35 nm  f=0.0923  <S**2>=0.000
      10 -> 15         0.13489
      11 -> 16         0.10049
      12 -> 16        -0.11789
      13 -> 20         0.60675
      13 -> 21         0.25203

 Excited State  15:      Singlet-A     10.6777 eV  116.12 nm  f=0.0029  <S**2>=0.000
       7 -> 15        -0.10069
      10 -> 15         0.56552
      10 -> 16         0.31599

 The electronic state is 1-A.
 Alpha  occ. eigenvalues --   -2.00183  -1.26614  -1.01702  -0.90072  -0.84484
 Alpha  occ. eigenvalues --   -0.76353  -0.75023  -0.65180  -0.62194  -0.52958
 Alpha  occ. eigenvalues --   -0.52064  -0.49854  -0.36943
 Alpha virt. eigenvalues --    0.03596   0.10688   0.12028   0.18775   0.19796
 Alpha virt. eigenvalues --    0.22237   0.24966   0.26017   0.28844   0.36439
 Alpha virt. eigenvalues --    0.42543

 Mulliken charges:
               1
     1  C   -0.184963
     2  C   -1.879923
     3  O    3.185601
     4  C   -1.903112
     5  C   -0.113758
     6  H    0.156723
     7  H    0.283603
     8  H    0.284635
     9  H    0.171194
 Sum of Mulliken charges =   0.00000

 Dipole moment (field-independent basis, Debye):
    X=             -1.1249    Y=            -10.1887    Z=              0.0838  Tot=             10.2509
 N-N= 1.055540342271D+02 E-N=-1.704083210643D+02  KE=-1.563811052998D+01
 Orbital energies and kinetic energies (alpha):
                                 1                 2
   1         O                -2.001826         -1.381617
   2         O                -1.266136         -1.031283
   3         O                -1.017021         -0.876840
   4         O                -0.900720         -0.598110
   5         O                -0.844836         -0.698526
   6         O                -0.763526         -0.599270
   7         O                -0.750234         -0.543150

 Normal termination of Gaussian 09 at Tue Dec 15 17:08:58 2015.
