 Gaussian 09, Revision D.01,
 Gaussian 09:  ES64L-G09RevD.01 24-Apr-2013

 ------------------------------------------------------------
 #P AM1(Input,print) CIS(Singlets,NStates=15) pop(full) force
 ------------------------------------------------------------

 -----------------
 AM1-Reparam Input
 -----------------
 Symbolic Z-matrix:
 Charge =  0 Multiplicity = 1

                         Standard orientation:
 ---------------------------------------------------------------------
 Center     Atomic      Atomic             Coordinates (Angstroms)
 Number     Number       Type             X           Y           Z
 ---------------------------------------------------------------------
      1          6           0        0.569653    1.043992    0.004934
      2          6           0        1.183941   -0.220889   -0.006324
      3          8           0        0.135734   -1.131821   -0.002770
      4          6           0       -1.038320   -0.454336    0.013365
      5          6           0       -0.867145    0.820923   -0.009065
      6          1           0       -1.586914    1.554453   -0.018553
      7          1           0       -1.864804   -1.070508   -0.002558
      8          1           0        2.119918   -0.536569    0.003201
      9          1           0        1.157157    1.969053    0.022617
 ---------------------------------------------------------------------

 SCF Done:  E(RAM1) =   2.56982001233     A.U. after   14 cycles

 Excitation energies and oscillator strengths:

 Excited State   1:      Singlet-A      5.1902 eV  238.88 nm  f=0.3467  <S**2>=0.000
      13 -> 14         0.69577
 This state for optimization and/or second-order correction.
 Total Energy, E(CIS) =   2.76055613097
 Copying the excited state density for this state as the 1-particle RhoCI density.

 Excited State   2:      Singlet-A      6.2447 eV  198.54 nm  f=0.0022  <S**2>=0.000
      10 -> 15         0.10561
      13 -> 15         0.67067
      13 -> 17        -0.13901
      13 -> 19         0.10033

 Excited State   3:      Singlet-A      6.7204 eV  184.49 nm  f=0.0044  <S**2>=0.000
      13 -> 16         0.65538
      13 -> 18        -0.14400
      13 -> 19        -0.13677

 Excited State   4:      Singlet-A      6.7949 eV  182.47 nm  f=0.0002  <S**2>=0.000
       9 -> 14        -0.11970
      12 -> 14         0.68920

 Excited State   5:      Singlet-A      7.7129 eV  160.75 nm  f=0.0024  <S**2>=0.000
      13 -> 17        -0.25078
      13 -> 18         0.56466
      13 -> 20        -0.20596
      13 -> 21         0.20188

 Excited State   6:      Singlet-A      7.8171 eV  158.61 nm  f=0.0043  <S**2>=0.000
      11 -> 14         0.69065

 Excited State   7:      Singlet-A      8.4233 eV  147.19 nm  f=0.0057  <S**2>=0.000
      10 -> 16        -0.11421
      13 -> 15         0.11118
      13 -> 17         0.59200
      13 -> 18         0.22423
      13 -> 19        -0.19994

 Excited State   8:      Singlet-A      8.7847 eV  141.14 nm  f=0.0995  <S**2>=0.000
      10 -> 14         0.67534
      12 -> 15        -0.14108

 Excited State   9:      Singlet-A      8.9609 eV  138.36 nm  f=0.0015  <S**2>=0.000
      10 -> 16        -0.12875
      13 -> 16         0.11945
      13 -> 17         0.18443
      13 -> 19         0.62098
      13 -> 20        -0.14364

 Excited State  10:      Singlet-A      9.4154 eV  131.68 nm  f=0.0616  <S**2>=0.000
       8 -> 15        -0.12436
      10 -> 14         0.15507
      11 -> 16        -0.15949
      11 -> 17         0.14426
      12 -> 15         0.51934
      12 -> 16        -0.14237
      12 -> 17        -0.12017
      12 -> 18         0.24128

 Excited State  11:      Singlet-A      9.4861 eV  130.70 nm  f=0.0067  <S**2>=0.000
      13 -> 18         0.28647
      13 -> 19         0.14753
      13 -> 20         0.51825
      13 -> 21        -0.31628

 Excited State  12:      Singlet-A      9.6979 eV  127.85 nm  f=0.0994  <S**2>=0.000
       9 -> 15         0.15347
      11 -> 15         0.33738
      11 -> 16         0.20641
      11 -> 17        -0.22127
      12 -> 15         0.34948
      12 -> 18        -0.29634

 Excited State  13:      Singlet-A      9.8967 eV  125.28 nm  f=0.0278  <S**2>=0.000
       9 -> 14         0.58416
      12 -> 14         0.10524
      13 -> 20        -0.24549
      13 -> 21        -0.24416

 Excited State  14:      Singlet-A      9.9368 eV  124.77 nm  f=0.0704  <S**2>=0.000
       9 -> 14         0.34204
      13 -> 20         0.28270
      13 -> 21         0.52303

 Excited State  15:      Singlet-A     10.0005 eV  123.98 nm  f=0.1111  <S**2>=0.000
      11 -> 16        -0.29220
      11 -> 19         0.11629
      12 -> 16         0.56746
      12 -> 17        -0.16397
      12 -> 19        -0.10088

 The electronic state is 1-A.
 Alpha  occ. eigenvalues --   -1.74222  -1.15955  -0.97725  -0.81610  -0.77573
 Alpha  occ. eigenvalues --   -0.67807  -0.64888  -0.56599  -0.50515  -0.44570
 Alpha  occ. eigenvalues --   -0.44487  -0.41070  -0.28794
 Alpha virt. eigenvalues --    0.10602   0.17198   0.20320   0.25817   0.27239
 Alpha virt. eigenvalues --    0.28832   0.30552   0.32020   0.38486   0.47408
 Alpha virt. eigenvalues --    0.52535

 Mulliken charges:
               1
     1  C   -0.095058
     2  C   -1.939197
     3  O    3.237612
     4  C   -1.897234
     5  C   -0.062012
     6  H    0.122196
     7  H    0.253214
     8  H    0.253069
     9  H    0.127410
 Sum of Mulliken charges =   0.00000

 Dipole moment (field-independent basis, Debye):
    X=              0.4574    Y=            -10.4544    Z=             -0.0901  Tot=             10.4648
 N-N= 1.039885598328D+02 E-N=-1.688416663371D+02  KE=-1.507948715134D+01
 Orbital energies and kinetic energies (alpha):
                                 1                 2
   1         O                -1.742222         -1.234047
   2         O                -1.159549         -1.005310
   3         O                -0.977250         -0.882959
   4         O                -0.816100         -0.619307
   5         O                -0.775734         -0.704201
   6         O                -0.678075         -0.564036
   7         O                -0.648878         -0.520709

 Normal termination of Gaussian 09 at Tue Dec 15 17:06:18 2015.
