 Gaussian 09, Revision D.01,
 Gaussian 09:  ES64L-G09RevD.01 24-Apr-2013

 ------------------------------------------------------------
 #P AM1(Input,print) CIS(Singlets,NStates=15) pop(full) force
 ------------------------------------------------------------

 -----------------
 AM1-Reparam Input
 -----------------
 Symbolic Z-matrix:
 Charge =  0 Multiplicity = 1

                         Standard orientation:
 ---------------------------------------------------------------------
 Center     Atomic      Atomic             Coordinates (Angstroms)
 Number     Number       Type             X           Y           Z
 ---------------------------------------------------------------------
      1          6           0        0.998752    0.679922   -0.001949
      2          6           0        0.970490   -0.617294   -0.003461
      3          8           0       -0.401906   -1.116253   -0.007436
      4          6           0       -1.112923    0.025511    0.003450
      5          6           0       -0.424883    1.084749   -0.002005
      6          1           0       -0.759060    2.137273    0.008006
      7          1           0       -2.161964   -0.160181    0.024412
      8          1           0        1.666415   -1.403271    0.051075
      9          1           0        1.881249    1.318878   -0.000214
 ---------------------------------------------------------------------

 SCF Done:  E(RAM1) =   2.64977118149     A.U. after   14 cycles

 Excitation energies and oscillator strengths:

 Excited State   1:      Singlet-A      4.9422 eV  250.87 nm  f=0.3410  <S**2>=0.000
      13 -> 14         0.69701
 This state for optimization and/or second-order correction.
 Total Energy, E(CIS) =   2.83139286466
 Copying the excited state density for this state as the 1-particle RhoCI density.

 Excited State   2:      Singlet-A      5.2684 eV  235.34 nm  f=0.0009  <S**2>=0.000
      13 -> 15         0.68594

 Excited State   3:      Singlet-A      6.1599 eV  201.28 nm  f=0.0006  <S**2>=0.000
      13 -> 16         0.66082
      13 -> 17         0.15310
      13 -> 18        -0.10092
      13 -> 19         0.10317

 Excited State   4:      Singlet-A      6.5484 eV  189.33 nm  f=0.0003  <S**2>=0.000
      12 -> 14         0.70087

 Excited State   5:      Singlet-A      7.3281 eV  169.19 nm  f=0.0000  <S**2>=0.000
      13 -> 16         0.15095
      13 -> 17        -0.17035
      13 -> 18         0.59524
      13 -> 19        -0.12163
      13 -> 21        -0.24822

 Excited State   6:      Singlet-A      7.6113 eV  162.89 nm  f=0.0099  <S**2>=0.000
      11 -> 14        -0.17686
      13 -> 17         0.63118
      13 -> 18         0.15701
      13 -> 19        -0.14344

 Excited State   7:      Singlet-A      7.9802 eV  155.37 nm  f=0.0013  <S**2>=0.000
      11 -> 14         0.67622
      13 -> 17         0.15679
      13 -> 19        -0.10004

 Excited State   8:      Singlet-A      8.4002 eV  147.60 nm  f=0.0002  <S**2>=0.000
      13 -> 17         0.10751
      13 -> 18         0.19626
      13 -> 19         0.65086

 Excited State   9:      Singlet-A      8.6468 eV  143.39 nm  f=0.1056  <S**2>=0.000
       8 -> 15         0.13933
      10 -> 14        -0.17543
      12 -> 15         0.61870
      12 -> 16        -0.10528
      12 -> 18         0.13952

 Excited State  10:      Singlet-A      8.9025 eV  139.27 nm  f=0.0732  <S**2>=0.000
       8 -> 16         0.12225
      10 -> 14         0.59175
      12 -> 16        -0.26332
      12 -> 18         0.11892

 Excited State  11:      Singlet-A      9.1458 eV  135.56 nm  f=0.0125  <S**2>=0.000
      13 -> 18         0.23771
      13 -> 20        -0.36876
      13 -> 21         0.54170

 Excited State  12:      Singlet-A      9.4245 eV  131.55 nm  f=0.0226  <S**2>=0.000
       9 -> 15        -0.16628
      10 -> 14         0.22422
      11 -> 15        -0.26077
      11 -> 17        -0.21367
      12 -> 15         0.22455
      12 -> 16         0.32122
      12 -> 17         0.18633
      12 -> 18        -0.28587

 Excited State  13:      Singlet-A      9.5312 eV  130.08 nm  f=0.0991  <S**2>=0.000
      13 -> 20         0.58090
      13 -> 21         0.36358

 Excited State  14:      Singlet-A      9.8269 eV  126.17 nm  f=0.1904  <S**2>=0.000
       8 -> 16        -0.13974
       9 -> 15         0.12046
      10 -> 14         0.16502
      11 -> 15         0.11527
      11 -> 16         0.19636
      11 -> 17         0.19080
      12 -> 16         0.48037
      12 -> 18         0.26711

 Excited State  15:      Singlet-A      9.8525 eV  125.84 nm  f=0.0020  <S**2>=0.000
       7 -> 15        -0.16996
      10 -> 15         0.66016
      13 -> 15        -0.10144

 The electronic state is 1-A.
 Alpha  occ. eigenvalues --   -1.73182  -1.16294  -0.96567  -0.80296  -0.76589
 Alpha  occ. eigenvalues --   -0.67230  -0.64334  -0.53118  -0.49728  -0.43593
 Alpha  occ. eigenvalues --   -0.42561  -0.38050  -0.25263
 Alpha virt. eigenvalues --    0.12923   0.16461   0.20327   0.27429   0.28571
 Alpha virt. eigenvalues --    0.30680   0.33413   0.34378   0.36557   0.46501
 Alpha virt. eigenvalues --    0.49597

 Mulliken charges:
               1
     1  C   -0.022812
     2  C   -1.845087
     3  O    3.209742
     4  C   -1.857512
     5  C   -0.173644
     6  H    0.117974
     7  H    0.245696
     8  H    0.221007
     9  H    0.104637
 Sum of Mulliken charges =   0.00000

 Dipole moment (field-independent basis, Debye):
    X=             -4.4538    Y=            -11.2655    Z=              0.0325  Tot=             12.1140
 N-N= 1.038738400338D+02 E-N=-1.688622461078D+02  KE=-1.504976263517D+01
 Orbital energies and kinetic energies (alpha):
                                 1                 2
   1         O                -1.731822         -1.213397
   2         O                -1.162943         -1.016766
   3         O                -0.965675         -0.895278
   4         O                -0.802961         -0.604607
   5         O                -0.765892         -0.692903
   6         O                -0.672296         -0.540436
   7         O                -0.643341         -0.526310

 Normal termination of Gaussian 09 at Tue Dec 15 17:06:28 2015.
