 Gaussian 09, Revision D.01,
 Gaussian 09:  ES64L-G09RevD.01 24-Apr-2013

 ------------------------------------------------------------
 #P AM1(Input,print) CIS(Singlets,NStates=15) pop(full) force
 ------------------------------------------------------------

 -----------------
 AM1-Reparam Input
 -----------------
 Symbolic Z-matrix:
 Charge =  0 Multiplicity = 1

                         Standard orientation:
 ---------------------------------------------------------------------
 Center     Atomic      Atomic             Coordinates (Angstroms)
 Number     Number       Type             X           Y           Z
 ---------------------------------------------------------------------
      1          6           0        0.906798    0.776835   -0.013504
      2          6           0        1.034385   -0.574751    0.020855
      3          8           0       -0.305036   -1.109669   -0.002194
      4          6           0       -1.147473   -0.105361   -0.002074
      5          6           0       -0.458687    1.060529   -0.015200
      6          1           0       -0.909003    2.133576    0.071905
      7          1           0       -2.221451   -0.316488    0.014679
      8          1           0        1.834847   -1.276483   -0.028184
      9          1           0        1.725766    1.393239    0.018693
 ---------------------------------------------------------------------

 SCF Done:  E(RAM1) =  -4.67931545117     A.U. after   14 cycles

 Excitation energies and oscillator strengths:

 Excited State   1:      Singlet-A      6.8038 eV  182.23 nm  f=0.3337  <S**2>=0.000
      12 -> 14        -0.10268
      13 -> 14         0.68532
 This state for optimization and/or second-order correction.
 Total Energy, E(CIS) =  -4.42928065128
 Copying the excited state density for this state as the 1-particle RhoCI density.

 Excited State   2:      Singlet-A      7.5119 eV  165.05 nm  f=0.0144  <S**2>=0.000
      12 -> 14         0.68567

 Excited State   3:      Singlet-A      7.9276 eV  156.40 nm  f=0.0006  <S**2>=0.000
      10 -> 15        -0.11479
      11 -> 14        -0.10317
      13 -> 15         0.67549

 Excited State   4:      Singlet-A      8.0735 eV  153.57 nm  f=0.0049  <S**2>=0.000
      11 -> 14         0.68454
      13 -> 15         0.10224

 Excited State   5:      Singlet-A      8.6826 eV  142.80 nm  f=0.0022  <S**2>=0.000
      10 -> 16         0.10960
      13 -> 16         0.67929

 Excited State   6:      Singlet-A      9.8780 eV  125.52 nm  f=0.0089  <S**2>=0.000
      10 -> 14         0.42326
      13 -> 18         0.54408

 Excited State   7:      Singlet-A     10.0006 eV  123.98 nm  f=0.0071  <S**2>=0.000
      13 -> 17         0.67619
      13 -> 19        -0.10604

 Excited State   8:      Singlet-A     10.4862 eV  118.24 nm  f=0.0227  <S**2>=0.000
       9 -> 15         0.11386
      12 -> 15         0.64624
      12 -> 17         0.12106

 Excited State   9:      Singlet-A     10.5569 eV  117.44 nm  f=0.1503  <S**2>=0.000
       9 -> 15         0.17479
      11 -> 15         0.33104
      11 -> 16         0.13975
      11 -> 17        -0.12566
      11 -> 19        -0.13759
      12 -> 15        -0.17659
      12 -> 16        -0.28480
      12 -> 17         0.38615

 Excited State  10:      Singlet-A     10.8399 eV  114.38 nm  f=0.0552  <S**2>=0.000
      10 -> 14        -0.30664
      10 -> 15        -0.20115
      11 -> 19        -0.10087
      13 -> 18         0.26584
      13 -> 19         0.47737

 Excited State  11:      Singlet-A     10.8707 eV  114.05 nm  f=0.0842  <S**2>=0.000
      10 -> 14         0.36917
      10 -> 15        -0.15038
      12 -> 15        -0.10332
      12 -> 17         0.18732
      13 -> 18        -0.30507
      13 -> 19         0.38765

 Excited State  12:      Singlet-A     11.2951 eV  109.77 nm  f=0.5007  <S**2>=0.000
       8 -> 16        -0.14787
       9 -> 15        -0.20451
       9 -> 16        -0.12787
      10 -> 14        -0.14733
      11 -> 15        -0.22840
      11 -> 16         0.23102
      12 -> 16         0.28651
      12 -> 17         0.33880
      12 -> 19        -0.14227
      13 -> 18         0.11154

 Excited State  13:      Singlet-A     11.4076 eV  108.69 nm  f=0.0176  <S**2>=0.000
       9 -> 14        -0.17385
      10 -> 15         0.16573
      13 -> 19         0.16521
      13 -> 20         0.62078

 Excited State  14:      Singlet-A     11.5747 eV  107.12 nm  f=0.4219  <S**2>=0.000
       8 -> 16         0.18881
       9 -> 15        -0.14752
      10 -> 14         0.18821
      11 -> 16         0.41590
      11 -> 17         0.11137
      11 -> 19        -0.30546
      11 -> 20        -0.15038
      12 -> 17        -0.22354

 Excited State  15:      Singlet-A     11.6861 eV  106.10 nm  f=0.0203  <S**2>=0.000
       9 -> 15         0.26298
      10 -> 15         0.17961
      11 -> 15         0.28646
      11 -> 16         0.25725
      11 -> 19         0.11039
      11 -> 20         0.11031
      12 -> 16         0.38550
      12 -> 17        -0.10791
      13 -> 20        -0.11031

 The electronic state is 1-A.
 Alpha  occ. eigenvalues --   -3.74030  -1.12921  -0.79516  -0.79168  -0.75434
 Alpha  occ. eigenvalues --   -0.71983  -0.62588  -0.47706  -0.46924  -0.41142
 Alpha  occ. eigenvalues --   -0.36765  -0.34617  -0.25680
 Alpha virt. eigenvalues --    0.21285   0.26805   0.30831   0.35862   0.36220
 Alpha virt. eigenvalues --    0.39312   0.42041   0.48524   0.55196   0.57138
 Alpha virt. eigenvalues --    0.58818

 Mulliken charges:
               1
     1  C   -0.182375
     2  C   -1.464514
     3  O    2.854944
     4  C   -1.483951
     5  C   -0.253817
     6  H    0.103251
     7  H    0.164891
     8  H    0.141859
     9  H    0.119713
 Sum of Mulliken charges =   0.00000

 Dipole moment (field-independent basis, Debye):
    X=             -3.2383    Y=            -10.3160    Z=             -0.0967  Tot=             10.8128
 N-N= 1.021160976140D+02 E-N=-1.696722935856D+02  KE=-2.214903493128D+01
 Orbital energies and kinetic energies (alpha):
                                 1                 2
   1         O                -3.740303         -3.107128
   2         O                -1.129210         -1.176313
   3         O                -0.795155         -0.880918
   4         O                -0.791685         -0.830340
   5         O                -0.754341         -0.765317
   6         O                -0.719833         -0.820216
   7         O                -0.625877         -0.680899

 Normal termination of Gaussian 09 at Fri Dec 11 13:41:39 2015.
