 Gaussian 09, Revision D.01,
 Gaussian 09:  ES64L-G09RevD.01 24-Apr-2013

 ------------------------------------------------------------
 #P AM1(Input,print) CIS(Singlets,NStates=15) pop(full) force
 ------------------------------------------------------------

 -----------------
 AM1-Reparam Input
 -----------------
 Symbolic Z-matrix:
 Charge =  0 Multiplicity = 1

                         Standard orientation:
 ---------------------------------------------------------------------
 Center     Atomic      Atomic             Coordinates (Angstroms)
 Number     Number       Type             X           Y           Z
 ---------------------------------------------------------------------
      1          6           0        0.225668    1.175268    0.009621
      2          6           0        1.134246    0.127333   -0.014697
      3          8           0        0.512387   -1.068016    0.009717
      4          6           0       -0.839463   -0.714196   -0.009019
      5          6           0       -1.062685    0.545460   -0.011297
      6          1           0       -1.968830    1.034051    0.041291
      7          1           0       -1.511663   -1.649770    0.015622
      8          1           0        2.190800    0.169636    0.015316
      9          1           0        0.443995    2.187015    0.002382
 ---------------------------------------------------------------------

 SCF Done:  E(RAM1) =   1.78153839428     A.U. after   13 cycles

 Excitation energies and oscillator strengths:

 Excited State   1:      Singlet-A      5.3810 eV  230.41 nm  f=0.3607  <S**2>=0.000
      13 -> 14         0.69513
 This state for optimization and/or second-order correction.
 Total Energy, E(CIS) =   1.97928813831
 Copying the excited state density for this state as the 1-particle RhoCI density.

 Excited State   2:      Singlet-A      6.5890 eV  188.17 nm  f=0.0001  <S**2>=0.000
      10 -> 15         0.10819
      13 -> 15         0.68324
      13 -> 18        -0.10605

 Excited State   3:      Singlet-A      6.9829 eV  177.55 nm  f=0.0003  <S**2>=0.000
      12 -> 14         0.70184

 Excited State   4:      Singlet-A      7.0183 eV  176.66 nm  f=0.0029  <S**2>=0.000
      13 -> 16         0.66860
      13 -> 17        -0.16694

 Excited State   5:      Singlet-A      8.0801 eV  153.44 nm  f=0.0068  <S**2>=0.000
      11 -> 14         0.70048

 Excited State   6:      Singlet-A      8.6945 eV  142.60 nm  f=0.0013  <S**2>=0.000
      13 -> 17        -0.13513
      13 -> 18         0.63930
      13 -> 22        -0.21405

 Excited State   7:      Singlet-A      9.1584 eV  135.38 nm  f=0.0145  <S**2>=0.000
      10 -> 16        -0.10057
      13 -> 16         0.12620
      13 -> 17         0.65653
      13 -> 18         0.16646

 Excited State   8:      Singlet-A      9.2468 eV  134.08 nm  f=0.0699  <S**2>=0.000
       8 -> 15         0.12234
       9 -> 15         0.10187
      10 -> 14         0.45568
      12 -> 15        -0.44548
      12 -> 18         0.10662

 Excited State   9:      Singlet-A      9.6705 eV  128.21 nm  f=0.1645  <S**2>=0.000
       9 -> 16        -0.10034
      10 -> 14         0.48307
      12 -> 15         0.39583
      12 -> 16        -0.19103
      12 -> 18        -0.14736
      13 -> 20         0.12147

 Excited State  10:      Singlet-A      9.7229 eV  127.52 nm  f=0.0005  <S**2>=0.000
      13 -> 19         0.68878

 Excited State  11:      Singlet-A     10.1155 eV  122.57 nm  f=0.0277  <S**2>=0.000
      11 -> 15         0.26006
      11 -> 17        -0.15794
      11 -> 18        -0.13001
      12 -> 15         0.29428
      12 -> 16         0.38337
      12 -> 17        -0.16862
      12 -> 18         0.24780

 Excited State  12:      Singlet-A     10.5335 eV  117.70 nm  f=0.1235  <S**2>=0.000
      11 -> 16        -0.39080
      11 -> 17         0.21066
      12 -> 16         0.43854
      12 -> 18        -0.18683
      12 -> 19         0.13537

 Excited State  13:      Singlet-A     10.6329 eV  116.60 nm  f=0.0619  <S**2>=0.000
       9 -> 14        -0.10976
      10 -> 15         0.10483
      13 -> 18        -0.13830
      13 -> 20        -0.14639
      13 -> 21         0.58392
      13 -> 22        -0.27702

 Excited State  14:      Singlet-A     10.6983 eV  115.89 nm  f=0.0513  <S**2>=0.000
       8 -> 15         0.20123
       9 -> 16        -0.10375
      10 -> 14        -0.16597
      11 -> 15         0.41389
      11 -> 16        -0.14194
      11 -> 19        -0.13041
      12 -> 18        -0.10941
      13 -> 20         0.38564
      13 -> 21         0.11246

 Excited State  15:      Singlet-A     10.8743 eV  114.02 nm  f=0.0196  <S**2>=0.000
       8 -> 15        -0.14407
      10 -> 15         0.16594
      11 -> 15        -0.26239
      12 -> 18         0.22230
      13 -> 20         0.49094
      13 -> 22        -0.18761

 The electronic state is 1-A.
 Alpha  occ. eigenvalues --   -1.90330  -1.18740  -0.92063  -0.81443  -0.78245
 Alpha  occ. eigenvalues --   -0.70290  -0.67442  -0.55050  -0.54132  -0.46297
 Alpha  occ. eigenvalues --   -0.44180  -0.40551  -0.28788
 Alpha virt. eigenvalues --    0.12012   0.17437   0.19993   0.29005   0.29936
 Alpha virt. eigenvalues --    0.31870   0.33424   0.34627   0.37551   0.42782
 Alpha virt. eigenvalues --    0.45329

 Mulliken charges:
               1
     1  C   -0.233717
     2  C   -2.033325
     3  O    3.280459
     4  C   -1.959039
     5  C   -0.111637
     6  H    0.195490
     7  H    0.318187
     8  H    0.338693
     9  H    0.204889
 Sum of Mulliken charges =   0.00000

 Dipole moment (field-independent basis, Debye):
    X=              4.4866    Y=            -10.7206    Z=              0.4351  Tot=             11.6297
 N-N= 1.040414461351D+02 E-N=-1.696418782040D+02  KE=-1.552690414094D+01
 Orbital energies and kinetic energies (alpha):
                                 1                 2
   1         O                -1.903301         -1.360509
   2         O                -1.187402         -1.077752
   3         O                -0.920626         -0.903450
   4         O                -0.814428         -0.561663
   5         O                -0.782454         -0.684192
   6         O                -0.702904         -0.593038
   7         O                -0.674421         -0.543613

 Normal termination of Gaussian 09 at Tue Dec 15 17:09:34 2015.
