 Gaussian 09, Revision D.01,
 Gaussian 09:  ES64L-G09RevD.01 24-Apr-2013

 ------------------------------------------------------------
 #P AM1(Input,print) CIS(Singlets,NStates=15) pop(full) force
 ------------------------------------------------------------

 -----------------
 AM1-Reparam Input
 -----------------
 Symbolic Z-matrix:
 Charge =  0 Multiplicity = 1

                         Standard orientation:
 ---------------------------------------------------------------------
 Center     Atomic      Atomic             Coordinates (Angstroms)
 Number     Number       Type             X           Y           Z
 ---------------------------------------------------------------------
      1          6           0       -0.771177    0.857452   -0.007565
      2          6           0       -1.028867   -0.432706    0.000097
      3          8           0        0.101544   -1.122845   -0.009403
      4          6           0        1.127116   -0.225692    0.001740
      5          6           0        0.584698    0.984843    0.015259
      6          1           0        1.141704    1.894237   -0.041266
      7          1           0        2.137814   -0.626432    0.017541
      8          1           0       -1.978290   -1.078726    0.041361
      9          1           0       -1.584198    1.690297    0.000396
 ---------------------------------------------------------------------

 SCF Done:  E(RAM1) =   1.84017956629     A.U. after   14 cycles

 Excitation energies and oscillator strengths:

 Excited State   1:      Singlet-A      5.6662 eV  218.81 nm  f=0.3075  <S**2>=0.000
      11 -> 17        -0.10274
      13 -> 14         0.68515
 This state for optimization and/or second-order correction.
 Total Energy, E(CIS) =   2.04840941681
 Copying the excited state density for this state as the 1-particle RhoCI density.

 Excited State   2:      Singlet-A      6.5809 eV  188.40 nm  f=0.0039  <S**2>=0.000
      10 -> 15         0.11134
      13 -> 15         0.66987
      13 -> 17        -0.12300

 Excited State   3:      Singlet-A      7.0175 eV  176.68 nm  f=0.0034  <S**2>=0.000
      10 -> 16        -0.10404
      13 -> 16         0.66815
      13 -> 19         0.13273

 Excited State   4:      Singlet-A      7.7037 eV  160.94 nm  f=0.0002  <S**2>=0.000
      12 -> 14         0.69184

 Excited State   5:      Singlet-A      8.0633 eV  153.76 nm  f=0.0063  <S**2>=0.000
      11 -> 14         0.69143

 Excited State   6:      Singlet-A      8.3224 eV  148.98 nm  f=0.0003  <S**2>=0.000
      13 -> 17         0.12315
      13 -> 18         0.63991
      13 -> 21        -0.22333

 Excited State   7:      Singlet-A      8.8102 eV  140.73 nm  f=0.0089  <S**2>=0.000
      10 -> 15         0.10785
      10 -> 16        -0.10003
      13 -> 15         0.11133
      13 -> 17         0.65549
      13 -> 18        -0.11186

 Excited State   8:      Singlet-A      9.3077 eV  133.21 nm  f=0.0663  <S**2>=0.000
      10 -> 14         0.65993
      11 -> 18         0.11476
      12 -> 15         0.10688

 Excited State   9:      Singlet-A      9.6059 eV  129.07 nm  f=0.0808  <S**2>=0.000
       9 -> 15        -0.12571
      11 -> 15        -0.25825
      11 -> 16        -0.24297
      11 -> 17         0.29618
      12 -> 15         0.21743
      12 -> 16        -0.13136
      12 -> 18         0.33056
      13 -> 14         0.13767

 Excited State  10:      Singlet-A      9.6433 eV  128.57 nm  f=0.0013  <S**2>=0.000
      10 -> 16         0.13795
      13 -> 16        -0.10063
      13 -> 19         0.65409

 Excited State  11:      Singlet-A      9.8255 eV  126.19 nm  f=0.1537  <S**2>=0.000
      10 -> 14        -0.11357
      11 -> 15         0.36450
      12 -> 15         0.55340

 Excited State  12:      Singlet-A     10.1816 eV  121.77 nm  f=0.1215  <S**2>=0.000
      11 -> 16        -0.38902
      11 -> 19        -0.14390
      12 -> 16         0.51841

 Excited State  13:      Singlet-A     10.3623 eV  119.65 nm  f=0.0046  <S**2>=0.000
       6 -> 15        -0.11094
      10 -> 15         0.64045
      10 -> 16         0.11982
      13 -> 15        -0.13746

 Excited State  14:      Singlet-A     10.4569 eV  118.57 nm  f=0.0485  <S**2>=0.000
      10 -> 16        -0.13786
      13 -> 18        -0.19955
      13 -> 20         0.50931
      13 -> 21        -0.39646

 Excited State  15:      Singlet-A     10.6601 eV  116.31 nm  f=0.1090  <S**2>=0.000
       8 -> 15        -0.14617
       8 -> 16         0.12062
       9 -> 15        -0.16893
      10 -> 14        -0.17599
      11 -> 15        -0.25020
      11 -> 18         0.25039
      11 -> 19         0.21539
      12 -> 15         0.19162
      12 -> 16         0.23814
      12 -> 17         0.11228
      12 -> 18        -0.21452
      12 -> 20        -0.14303

 The electronic state is 1-A.
 Alpha  occ. eigenvalues --   -2.01612  -1.30328  -1.01292  -0.90059  -0.85210
 Alpha  occ. eigenvalues --   -0.76659  -0.75883  -0.63802  -0.61662  -0.52486
 Alpha  occ. eigenvalues --   -0.50391  -0.49578  -0.37386
 Alpha virt. eigenvalues --    0.05457   0.09580   0.12055   0.18654   0.20036
 Alpha virt. eigenvalues --    0.22886   0.25525   0.27933   0.30348   0.38319
 Alpha virt. eigenvalues --    0.43675

 Mulliken charges:
               1
     1  C   -0.166535
     2  C   -1.902336
     3  O    3.171828
     4  C   -1.893543
     5  C   -0.125558
     6  H    0.156293
     7  H    0.285421
     8  H    0.301688
     9  H    0.172744
 Sum of Mulliken charges =   0.00000

 Dipole moment (field-independent basis, Debye):
    X=              0.4173    Y=            -10.4177    Z=             -0.0642  Tot=             10.4263
 N-N= 1.065625851750D+02 E-N=-1.722008646366D+02  KE=-1.571696886073D+01
 Orbital energies and kinetic energies (alpha):
                                 1                 2
   1         O                -2.016123         -1.413114
   2         O                -1.303278         -1.064879
   3         O                -1.012924         -0.887979
   4         O                -0.900591         -0.581033
   5         O                -0.852100         -0.692058
   6         O                -0.766587         -0.564057
   7         O                -0.758828         -0.607400

 Normal termination of Gaussian 09 at Tue Dec 15 17:08:56 2015.
