 Gaussian 09, Revision D.01,
 Gaussian 09:  ES64L-G09RevD.01 24-Apr-2013

 ------------------------------------------------------------
 #P AM1(Input,print) CIS(Singlets,NStates=15) pop(full) force
 ------------------------------------------------------------

 -----------------
 AM1-Reparam Input
 -----------------
 Symbolic Z-matrix:
 Charge =  0 Multiplicity = 1

                         Standard orientation:
 ---------------------------------------------------------------------
 Center     Atomic      Atomic             Coordinates (Angstroms)
 Number     Number       Type             X           Y           Z
 ---------------------------------------------------------------------
      1          6           0       -0.539353    1.061019   -0.012649
      2          6           0       -1.170045   -0.182549    0.028961
      3          8           0       -0.201308   -1.090727   -0.017120
      4          6           0        1.014732   -0.522020   -0.001889
      5          6           0        0.911592    0.780923   -0.009582
      6          1           0        1.622497    1.557458    0.076031
      7          1           0        1.845513   -1.197540    0.044122
      8          1           0       -2.155868   -0.461706    0.015911
      9          1           0       -1.003236    2.003364   -0.028147
 ---------------------------------------------------------------------

 SCF Done:  E(RAM1) =  -7.66975411165     A.U. after   13 cycles

 Excitation energies and oscillator strengths:

 Excited State   1:      Singlet-A      6.6526 eV  186.37 nm  f=0.3943  <S**2>=0.000
      12 -> 14        -0.14990
      13 -> 14         0.67911
 This state for optimization and/or second-order correction.
 Total Energy, E(CIS) =  -7.42527535801
 Copying the excited state density for this state as the 1-particle RhoCI density.

 Excited State   2:      Singlet-A      6.9801 eV  177.63 nm  f=0.0249  <S**2>=0.000
      12 -> 14         0.68709
      13 -> 14         0.14801

 Excited State   3:      Singlet-A      8.1339 eV  152.43 nm  f=0.0121  <S**2>=0.000
      11 -> 14         0.70201

 Excited State   4:      Singlet-A      9.8966 eV  125.28 nm  f=0.0077  <S**2>=0.000
      13 -> 16         0.66120
      13 -> 19         0.20769

 Excited State   5:      Singlet-A      9.9454 eV  124.66 nm  f=0.0107  <S**2>=0.000
      13 -> 15         0.67172
      13 -> 18         0.13255
      13 -> 19        -0.12050

 Excited State   6:      Singlet-A     10.7526 eV  115.31 nm  f=0.0566  <S**2>=0.000
      10 -> 14         0.62487
      13 -> 17         0.30358

 Excited State   7:      Singlet-A     11.6613 eV  106.32 nm  f=0.1121  <S**2>=0.000
       9 -> 14        -0.39867
      10 -> 14        -0.22730
      13 -> 17         0.50083

 Excited State   8:      Singlet-A     11.8261 eV  104.84 nm  f=0.0768  <S**2>=0.000
       9 -> 14         0.54141
      10 -> 14        -0.13467
      12 -> 16         0.10636
      13 -> 17         0.29400
      13 -> 19        -0.17732

 Excited State   9:      Singlet-A     11.8760 eV  104.40 nm  f=0.0446  <S**2>=0.000
       9 -> 14         0.12231
      10 -> 14        -0.10684
      13 -> 15         0.14270
      13 -> 16        -0.15049
      13 -> 17         0.22276
      13 -> 18        -0.22043
      13 -> 19         0.51193
      13 -> 20         0.14033
      13 -> 22         0.16870

 Excited State  10:      Singlet-A     12.0000 eV  103.32 nm  f=0.1769  <S**2>=0.000
      10 -> 14         0.10053
      11 -> 15        -0.10400
      12 -> 15        -0.32911
      12 -> 16         0.41875
      12 -> 19         0.32014
      12 -> 22         0.10659

 Excited State  11:      Singlet-A     12.2748 eV  101.01 nm  f=0.0126  <S**2>=0.000
       8 -> 14         0.67984
      13 -> 20        -0.13645

 Excited State  12:      Singlet-A     12.5423 eV   98.85 nm  f=0.0054  <S**2>=0.000
      11 -> 16         0.19923
      11 -> 19         0.10016
      12 -> 15         0.46368
      12 -> 16         0.34884
      12 -> 18         0.11938
      13 -> 18        -0.23372
      13 -> 19        -0.10961

 Excited State  13:      Singlet-A     12.5436 eV   98.84 nm  f=0.0232  <S**2>=0.000
      10 -> 16         0.14754
      12 -> 15         0.17914
      12 -> 16         0.17007
      13 -> 18         0.57548
      13 -> 19         0.20165

 Excited State  14:      Singlet-A     12.7910 eV   96.93 nm  f=0.0180  <S**2>=0.000
       8 -> 14         0.12233
      13 -> 19        -0.18485
      13 -> 20         0.63165
      13 -> 21         0.13937

 Excited State  15:      Singlet-A     12.9232 eV   95.94 nm  f=0.0936  <S**2>=0.000
       8 -> 16        -0.10526
      11 -> 15         0.42360
      11 -> 16         0.38058
      11 -> 18         0.16712
      11 -> 20        -0.11873
      12 -> 15        -0.22343
      12 -> 21        -0.10299
      13 -> 20         0.11376

 The electronic state is 1-A.
 Alpha  occ. eigenvalues --   -3.65847  -1.24742  -0.93904  -0.91472  -0.90299
 Alpha  occ. eigenvalues --   -0.86977  -0.76274  -0.62172  -0.59624  -0.55262
 Alpha  occ. eigenvalues --   -0.49700  -0.46396  -0.37060
 Alpha virt. eigenvalues --    0.08469   0.23455   0.24673   0.28351   0.32144
 Alpha virt. eigenvalues --    0.33538   0.35091   0.36721   0.42128   0.44225
 Alpha virt. eigenvalues --    0.47291

 Mulliken charges:
               1
     1  C   -0.317880
     2  C   -1.756875
     3  O    2.972007
     4  C   -1.706542
     5  C   -0.232505
     6  H    0.228209
     7  H    0.287241
     8  H    0.294375
     9  H    0.231969
 Sum of Mulliken charges =   0.00000

 Dipole moment (field-independent basis, Debye):
    X=             -1.1731    Y=             -9.4071    Z=             -0.2516  Tot=              9.4833
 N-N= 1.024577051748D+02 E-N=-1.707863510821D+02  KE=-2.467399942460D+01
 Orbital energies and kinetic energies (alpha):
                                 1                 2
   1         O                -3.658467         -3.058887
   2         O                -1.247420         -1.240336
   3         O                -0.939036         -0.872197
   4         O                -0.914718         -0.912687
   5         O                -0.902988         -0.909386
   6         O                -0.869768         -1.018781
   7         O                -0.762742         -0.807912

 Normal termination of Gaussian 09 at Fri Dec 11 13:41:38 2015.
