 Gaussian 09, Revision D.01,
 Gaussian 09:  ES64L-G09RevD.01 24-Apr-2013

 ------------------------------------------------------------
 #P AM1(Input,print) CIS(Singlets,NStates=15) pop(full) force
 ------------------------------------------------------------

 -----------------
 AM1-Reparam Input
 -----------------
 Symbolic Z-matrix:
 Charge =  0 Multiplicity = 1

                         Standard orientation:
 ---------------------------------------------------------------------
 Center     Atomic      Atomic             Coordinates (Angstroms)
 Number     Number       Type             X           Y           Z
 ---------------------------------------------------------------------
      1          6           0        0.757171    0.896867   -0.007864
      2          6           0        1.115852   -0.438017   -0.018797
      3          8           0       -0.113448   -1.144788    0.022470
      4          6           0       -1.135647   -0.256853   -0.027972
      5          6           0       -0.613125    0.984238    0.020463
      6          1           0       -1.228986    1.966866   -0.028794
      7          1           0       -2.111270   -0.674049    0.012461
      8          1           0        1.989501   -0.939612   -0.011258
      9          1           0        1.512834    1.687690    0.052856
 ---------------------------------------------------------------------

 SCF Done:  E(RAM1) =   2.53620085995     A.U. after   13 cycles

 Excitation energies and oscillator strengths:

 Excited State   1:      Singlet-A      5.5394 eV  223.82 nm  f=0.3161  <S**2>=0.000
      13 -> 14         0.69112
 This state for optimization and/or second-order correction.
 Total Energy, E(CIS) =   2.73977080136
 Copying the excited state density for this state as the 1-particle RhoCI density.

 Excited State   2:      Singlet-A      6.5917 eV  188.09 nm  f=0.0046  <S**2>=0.000
      10 -> 15         0.11762
      13 -> 15         0.64298
      13 -> 16         0.17218
      13 -> 17        -0.15190

 Excited State   3:      Singlet-A      7.0653 eV  175.48 nm  f=0.0031  <S**2>=0.000
      13 -> 15        -0.15937
      13 -> 16         0.64124
      13 -> 19         0.14850

 Excited State   4:      Singlet-A      7.1230 eV  174.06 nm  f=0.0001  <S**2>=0.000
       9 -> 14        -0.12728
      12 -> 14         0.68981

 Excited State   5:      Singlet-A      7.6294 eV  162.51 nm  f=0.0044  <S**2>=0.000
      11 -> 14         0.69152

 Excited State   6:      Singlet-A      8.1178 eV  152.73 nm  f=0.0004  <S**2>=0.000
      13 -> 17        -0.24812
      13 -> 18         0.55513
      13 -> 21         0.32237

 Excited State   7:      Singlet-A      8.4132 eV  147.37 nm  f=0.0044  <S**2>=0.000
      10 -> 15         0.10790
      10 -> 16        -0.11247
      13 -> 15         0.14562
      13 -> 17         0.60535
      13 -> 18         0.21294
      13 -> 19         0.11566
      13 -> 21         0.10454

 Excited State   8:      Singlet-A      8.8569 eV  139.99 nm  f=0.0931  <S**2>=0.000
      10 -> 14         0.68323

 Excited State   9:      Singlet-A      9.2446 eV  134.11 nm  f=0.0002  <S**2>=0.000
      10 -> 16         0.15252
      13 -> 18        -0.19579
      13 -> 19         0.56744
      13 -> 21         0.24856

 Excited State  10:      Singlet-A      9.3732 eV  132.27 nm  f=0.1219  <S**2>=0.000
       9 -> 15         0.11808
      11 -> 15         0.27174
      11 -> 16         0.29154
      11 -> 17        -0.26875
      12 -> 16         0.17434
      12 -> 17        -0.13871
      12 -> 18         0.30805
      13 -> 14        -0.11221

 Excited State  11:      Singlet-A      9.5367 eV  130.01 nm  f=0.0177  <S**2>=0.000
      13 -> 18        -0.29908
      13 -> 19        -0.31573
      13 -> 20        -0.19376
      13 -> 21         0.48755

 Excited State  12:      Singlet-A      9.6512 eV  128.47 nm  f=0.0845  <S**2>=0.000
      11 -> 15         0.21402
      12 -> 15         0.62248
      12 -> 19        -0.10153

 Excited State  13:      Singlet-A     10.0330 eV  123.58 nm  f=0.0925  <S**2>=0.000
       9 -> 14        -0.13224
      10 -> 15         0.23982
      13 -> 20         0.59115
      13 -> 21         0.19234

 Excited State  14:      Singlet-A     10.0839 eV  122.95 nm  f=0.1042  <S**2>=0.000
      10 -> 15         0.24491
      11 -> 16        -0.37884
      11 -> 19        -0.14553
      12 -> 16         0.42317
      12 -> 17        -0.12637

 Excited State  15:      Singlet-A     10.1480 eV  122.18 nm  f=0.0219  <S**2>=0.000
       7 -> 15        -0.11402
      10 -> 15         0.51683
      10 -> 16         0.16322
      11 -> 16         0.15090
      12 -> 16        -0.21118
      13 -> 15        -0.14262
      13 -> 20        -0.19636
      13 -> 21        -0.14794

 The electronic state is 1-A.
 Alpha  occ. eigenvalues --   -1.73187  -1.16251  -0.95879  -0.80119  -0.77340
 Alpha  occ. eigenvalues --   -0.67325  -0.64360  -0.56355  -0.50770  -0.43840
 Alpha  occ. eigenvalues --   -0.42766  -0.41303  -0.29953
 Alpha virt. eigenvalues --    0.11649   0.17512   0.20510   0.24556   0.26264
 Alpha virt. eigenvalues --    0.28900   0.30597   0.31913   0.38033   0.46908
 Alpha virt. eigenvalues --    0.52069

 Mulliken charges:
               1
     1  C   -0.042027
     2  C   -1.941086
     3  O    3.244918
     4  C   -1.932045
     5  C   -0.097083
     6  H    0.130170
     7  H    0.260277
     8  H    0.252515
     9  H    0.124361
 Sum of Mulliken charges =   0.00000

 Dipole moment (field-independent basis, Debye):
    X=             -1.4911    Y=            -10.2002    Z=              0.7179  Tot=             10.3336
 N-N= 1.036288734165D+02 E-N=-1.683689261477D+02  KE=-1.502746737681D+01
 Orbital energies and kinetic energies (alpha):
                                 1                 2
   1         O                -1.731871         -1.222734
   2         O                -1.162513         -1.004194
   3         O                -0.958792         -0.870725
   4         O                -0.801187         -0.609529
   5         O                -0.773398         -0.694526
   6         O                -0.673247         -0.570913
   7         O                -0.643595         -0.525091

 Normal termination of Gaussian 09 at Tue Dec 15 17:06:21 2015.
