 Gaussian 09, Revision D.01,
 Gaussian 09:  ES64L-G09RevD.01 24-Apr-2013

 ------------------------------------------------------------
 #P AM1(Input,print) CIS(Singlets,NStates=15) pop(full) force
 ------------------------------------------------------------

 -----------------
 AM1-Reparam Input
 -----------------
 Symbolic Z-matrix:
 Charge =  0 Multiplicity = 1

                         Standard orientation:
 ---------------------------------------------------------------------
 Center     Atomic      Atomic             Coordinates (Angstroms)
 Number     Number       Type             X           Y           Z
 ---------------------------------------------------------------------
      1          6           0        0.189453    1.179624   -0.007322
      2          6           0        1.110218    0.098785   -0.010080
      3          8           0        0.524540   -1.018994    0.021351
      4          6           0       -0.864042   -0.752405   -0.027256
      5          6           0       -1.003499    0.533802    0.034799
      6          1           0       -2.008220    1.067352   -0.039839
      7          1           0       -1.475100   -1.599951   -0.033952
      8          1           0        2.209512    0.142955   -0.033423
      9          1           0        0.484703    2.182759   -0.004430
 ---------------------------------------------------------------------

 SCF Done:  E(RAM1) =   2.86470840760     A.U. after   14 cycles

 Excitation energies and oscillator strengths:

 Excited State   1:      Singlet-A      5.6104 eV  220.99 nm  f=0.3155  <S**2>=0.000
      13 -> 14         0.69141
 This state for optimization and/or second-order correction.
 Total Energy, E(CIS) =   3.07088587425
 Copying the excited state density for this state as the 1-particle RhoCI density.

 Excited State   2:      Singlet-A      6.2448 eV  198.54 nm  f=0.0050  <S**2>=0.000
      13 -> 15         0.63764
      13 -> 17         0.25499

 Excited State   3:      Singlet-A      6.8068 eV  182.15 nm  f=0.0022  <S**2>=0.000
       9 -> 14        -0.11074
      12 -> 14         0.69237

 Excited State   4:      Singlet-A      7.1977 eV  172.25 nm  f=0.0022  <S**2>=0.000
      10 -> 16         0.10754
      13 -> 16         0.64678
      13 -> 19        -0.17934

 Excited State   5:      Singlet-A      7.7892 eV  159.17 nm  f=0.0109  <S**2>=0.000
      10 -> 14        -0.14536
      11 -> 14         0.23894
      13 -> 15        -0.21577
      13 -> 17         0.55262
      13 -> 21        -0.17984

 Excited State   6:      Singlet-A      7.9489 eV  155.98 nm  f=0.0002  <S**2>=0.000
      10 -> 14        -0.30484
      11 -> 14         0.54910
      13 -> 17        -0.27237

 Excited State   7:      Singlet-A      8.3170 eV  149.07 nm  f=0.0081  <S**2>=0.000
      13 -> 17         0.16064
      13 -> 18         0.30824
      13 -> 19        -0.37742
      13 -> 21         0.45109

 Excited State   8:      Singlet-A      8.7082 eV  142.38 nm  f=0.0091  <S**2>=0.000
      10 -> 14         0.31449
      11 -> 14         0.20395
      11 -> 15         0.10083
      11 -> 16         0.10847
      12 -> 17         0.13939
      13 -> 16         0.10955
      13 -> 18         0.43486
      13 -> 19         0.24559

 Excited State   9:      Singlet-A      8.7288 eV  142.04 nm  f=0.0104  <S**2>=0.000
      10 -> 14         0.39743
      11 -> 14         0.18747
      12 -> 17         0.15975
      13 -> 18        -0.38790
      13 -> 19        -0.17054

 Excited State  10:      Singlet-A      9.2096 eV  134.62 nm  f=0.0616  <S**2>=0.000
       8 -> 15         0.13167
       9 -> 15        -0.10719
      10 -> 14        -0.21153
      11 -> 14        -0.13970
      12 -> 15         0.53767
      12 -> 17         0.19354

 Excited State  11:      Singlet-A      9.2957 eV  133.38 nm  f=0.0017  <S**2>=0.000
      11 -> 15        -0.15281
      13 -> 18        -0.15158
      13 -> 19         0.44658
      13 -> 20         0.11927
      13 -> 21         0.44569

 Excited State  12:      Singlet-A      9.3965 eV  131.95 nm  f=0.0734  <S**2>=0.000
       9 -> 15        -0.18735
      10 -> 14        -0.16420
      11 -> 15         0.52905
      11 -> 17         0.21448
      11 -> 18         0.10211
      12 -> 15        -0.13553
      13 -> 21         0.11369

 Excited State  13:      Singlet-A      9.5373 eV  130.00 nm  f=0.0202  <S**2>=0.000
       7 -> 15         0.12076
      10 -> 15         0.59497
      10 -> 17         0.12109
      11 -> 15         0.15060
      13 -> 15         0.13301
      13 -> 20         0.19600

 Excited State  14:      Singlet-A      9.7080 eV  127.71 nm  f=0.1428  <S**2>=0.000
       9 -> 15        -0.10824
      10 -> 14         0.16131
      10 -> 15        -0.11697
      11 -> 14         0.11289
      11 -> 18         0.12697
      12 -> 15         0.17144
      12 -> 17        -0.23670
      12 -> 18         0.36699
      12 -> 19        -0.11502
      13 -> 20         0.31852

 Excited State  15:      Singlet-A      9.7157 eV  127.61 nm  f=0.1614  <S**2>=0.000
      12 -> 16         0.64563
      12 -> 18        -0.10922
      12 -> 19        -0.12691
      12 -> 20         0.10352

 The electronic state is 1-A.
 Alpha  occ. eigenvalues --   -1.74188  -1.14186  -0.92817  -0.79449  -0.75325
 Alpha  occ. eigenvalues --   -0.66604  -0.65187  -0.54250  -0.49028  -0.43486
 Alpha  occ. eigenvalues --   -0.43084  -0.39299  -0.29485
 Alpha virt. eigenvalues --    0.12607   0.16380   0.20900   0.23244   0.27119
 Alpha virt. eigenvalues --    0.27971   0.30581   0.31463   0.39101   0.47845
 Alpha virt. eigenvalues --    0.51864

 Mulliken charges:
               1
     1  C   -0.219524
     2  C   -2.020508
     3  O    3.212101
     4  C   -1.918717
     5  C   -0.027005
     6  H    0.171962
     7  H    0.286018
     8  H    0.330284
     9  H    0.185389
 Sum of Mulliken charges =   0.00000

 Dipole moment (field-independent basis, Debye):
    X=              4.9158    Y=             -8.7995    Z=              0.4685  Tot=             10.0904
 N-N= 1.047875239819D+02 E-N=-1.704648949625D+02  KE=-1.485300819344D+01
 Orbital energies and kinetic energies (alpha):
                                 1                 2
   1         O                -1.741877         -1.248702
   2         O                -1.141861         -1.004292
   3         O                -0.928168         -0.851980
   4         O                -0.794494         -0.592580
   5         O                -0.753248         -0.677380
   6         O                -0.666043         -0.571609
   7         O                -0.651866         -0.532003

 Normal termination of Gaussian 09 at Tue Dec 15 17:06:06 2015.
