 Gaussian 09, Revision D.01,
 Gaussian 09:  ES64L-G09RevD.01 24-Apr-2013

 ------------------------------------------------------------
 #P AM1(Input,print) CIS(Singlets,NStates=15) pop(full) force
 ------------------------------------------------------------

 -----------------
 AM1-Reparam Input
 -----------------
 Symbolic Z-matrix:
 Charge =  0 Multiplicity = 1

                         Standard orientation:
 ---------------------------------------------------------------------
 Center     Atomic      Atomic             Coordinates (Angstroms)
 Number     Number       Type             X           Y           Z
 ---------------------------------------------------------------------
      1          6           0        0.959612    0.811778    0.014553
      2          6           0        0.988970   -0.599361   -0.004518
      3          8           0       -0.284980   -1.155866    0.008552
      4          6           0       -1.119805   -0.053989   -0.024754
      5          6           0       -0.525720    1.073199    0.000333
      6          1           0       -0.919785    2.022008   -0.017033
      7          1           0       -2.191863   -0.412602    0.069901
      8          1           0        1.864087   -1.278295   -0.035103
      9          1           0        1.709057    1.526061    0.000133
 ---------------------------------------------------------------------

 SCF Done:  E(RAM1) =   2.08221857275     A.U. after   14 cycles

 Excitation energies and oscillator strengths:

 Excited State   1:      Singlet-A      5.0244 eV  246.76 nm  f=0.3635  <S**2>=0.000
      13 -> 14         0.69733
 This state for optimization and/or second-order correction.
 Total Energy, E(CIS) =   2.26686282676
 Copying the excited state density for this state as the 1-particle RhoCI density.

 Excited State   2:      Singlet-A      6.0860 eV  203.72 nm  f=0.0003  <S**2>=0.000
      13 -> 15         0.64248
      13 -> 16        -0.13544
      13 -> 17        -0.10272
      13 -> 18         0.21241

 Excited State   3:      Singlet-A      6.3743 eV  194.51 nm  f=0.0003  <S**2>=0.000
      12 -> 14         0.70207

 Excited State   4:      Singlet-A      6.5140 eV  190.33 nm  f=0.0061  <S**2>=0.000
      13 -> 15         0.18319
      13 -> 16         0.60690
      13 -> 17         0.29111

 Excited State   5:      Singlet-A      7.4780 eV  165.80 nm  f=0.0024  <S**2>=0.000
      13 -> 15        -0.13904
      13 -> 16         0.21858
      13 -> 17        -0.28602
      13 -> 18         0.42388
      13 -> 19        -0.38094

 Excited State   6:      Singlet-A      7.9871 eV  155.23 nm  f=0.0106  <S**2>=0.000
      10 -> 14         0.68794
      13 -> 18        -0.10283

 Excited State   7:      Singlet-A      8.2545 eV  150.20 nm  f=0.0230  <S**2>=0.000
      10 -> 14         0.13426
      13 -> 15        -0.11173
      13 -> 16        -0.12271
      13 -> 17         0.39610
      13 -> 18         0.48683
      13 -> 19         0.21374

 Excited State   8:      Singlet-A      8.5812 eV  144.48 nm  f=0.0882  <S**2>=0.000
      11 -> 14         0.65577
      12 -> 15         0.17993

 Excited State   9:      Singlet-A      8.6422 eV  143.46 nm  f=0.0043  <S**2>=0.000
      11 -> 16        -0.10637
      13 -> 16         0.16346
      13 -> 17        -0.37227
      13 -> 18         0.11597
      13 -> 19         0.54099

 Excited State  10:      Singlet-A      9.1290 eV  135.81 nm  f=0.2628  <S**2>=0.000
      11 -> 14        -0.20500
      12 -> 15         0.48619
      12 -> 16        -0.24161
      12 -> 17        -0.20490
      12 -> 18         0.21733
      12 -> 19        -0.12730

 Excited State  11:      Singlet-A      9.4914 eV  130.63 nm  f=0.0036  <S**2>=0.000
      13 -> 20         0.68840

 Excited State  12:      Singlet-A      9.6732 eV  128.17 nm  f=0.0103  <S**2>=0.000
       9 -> 15         0.10908
      10 -> 15         0.15765
      10 -> 18         0.15830
      12 -> 15         0.40915
      12 -> 16         0.33659
      12 -> 17         0.28877
      12 -> 19         0.17898

 Excited State  13:      Singlet-A      9.7207 eV  127.55 nm  f=0.0599  <S**2>=0.000
      13 -> 21         0.67911

 Excited State  14:      Singlet-A     10.1556 eV  122.08 nm  f=0.0019  <S**2>=0.000
       7 -> 15        -0.14981
      11 -> 15         0.62209
      11 -> 16         0.21013
      11 -> 18         0.10264
      13 -> 15        -0.11465

 Excited State  15:      Singlet-A     10.2207 eV  121.31 nm  f=0.0389  <S**2>=0.000
       9 -> 16        -0.16924
      11 -> 16        -0.13744
      12 -> 16         0.42178
      12 -> 17        -0.11527
      12 -> 18         0.26263
      12 -> 19        -0.35938
      13 -> 22         0.10212

 The electronic state is 1-A.
 Alpha  occ. eigenvalues --   -1.92633  -1.18416  -0.94154  -0.81757  -0.78001
 Alpha  occ. eigenvalues --   -0.68318  -0.63659  -0.53675  -0.52550  -0.44673
 Alpha  occ. eigenvalues --   -0.43425  -0.39377  -0.27082
 Alpha virt. eigenvalues --    0.11145   0.17389   0.20314   0.27038   0.27481
 Alpha virt. eigenvalues --    0.30043   0.32201   0.32535   0.34167   0.43660
 Alpha virt. eigenvalues --    0.47084

 Mulliken charges:
               1
     1  C   -0.233250
     2  C   -2.009184
     3  O    3.166978
     4  C   -1.927821
     5  C   -0.205073
     6  H    0.244708
     7  H    0.348843
     8  H    0.369716
     9  H    0.245081
 Sum of Mulliken charges =   0.00000

 Dipole moment (field-independent basis, Debye):
    X=             -3.2111    Y=            -10.8637    Z=              0.3962  Tot=             11.3353
 N-N= 1.037357183456D+02 E-N=-1.687221160601D+02  KE=-1.543049579495D+01
 Orbital energies and kinetic energies (alpha):
                                 1                 2
   1         O                -1.926330         -1.358145
   2         O                -1.184162         -1.068602
   3         O                -0.941540         -0.870949
   4         O                -0.817570         -0.599769
   5         O                -0.780009         -0.661015
   6         O                -0.683176         -0.577547
   7         O                -0.636587         -0.514471

 Normal termination of Gaussian 09 at Tue Dec 15 17:07:26 2015.
