 Gaussian 09, Revision D.01,
 Gaussian 09:  ES64L-G09RevD.01 24-Apr-2013

 ------------------------------------------------------------
 #P AM1(Input,print) CIS(Singlets,NStates=15) pop(full) force
 ------------------------------------------------------------

 -----------------
 AM1-Reparam Input
 -----------------
 Symbolic Z-matrix:
 Charge =  0 Multiplicity = 1

                         Standard orientation:
 ---------------------------------------------------------------------
 Center     Atomic      Atomic             Coordinates (Angstroms)
 Number     Number       Type             X           Y           Z
 ---------------------------------------------------------------------
      1          6           0       -1.019760    0.708164   -0.025687
      2          6           0       -0.988633   -0.636175    0.046698
      3          8           0        0.370198   -1.136602   -0.036632
      4          6           0        1.185691    0.017817    0.028300
      5          6           0        0.420975    1.089536   -0.014464
      6          1           0        0.751393    2.181483    0.045415
      7          1           0        2.241335   -0.147917    0.023371
      8          1           0       -1.664749   -1.364004    0.025908
      9          1           0       -1.879206    1.347208   -0.010723
 ---------------------------------------------------------------------

 SCF Done:  E(RAM1) =   1.88226565532     A.U. after   14 cycles

 Excitation energies and oscillator strengths:

 Excited State   1:      Singlet-A      5.2650 eV  235.49 nm  f=0.3356  <S**2>=0.000
      13 -> 14         0.69228
 This state for optimization and/or second-order correction.
 Total Energy, E(CIS) =   2.07575036327
 Copying the excited state density for this state as the 1-particle RhoCI density.

 Excited State   2:      Singlet-A      6.1925 eV  200.22 nm  f=0.0009  <S**2>=0.000
      13 -> 15         0.66270
      13 -> 16        -0.11476
      13 -> 18        -0.12059
      13 -> 20        -0.12219

 Excited State   3:      Singlet-A      6.3859 eV  194.15 nm  f=0.0045  <S**2>=0.000
      12 -> 14         0.63425
      13 -> 16        -0.27790

 Excited State   4:      Singlet-A      6.4368 eV  192.62 nm  f=0.0023  <S**2>=0.000
      12 -> 14         0.29699
      13 -> 15         0.11755
      13 -> 16         0.59032
      13 -> 17        -0.14937

 Excited State   5:      Singlet-A      7.6256 eV  162.59 nm  f=0.0023  <S**2>=0.000
      11 -> 14         0.15484
      13 -> 16         0.16240
      13 -> 17         0.55464
      13 -> 18        -0.27781
      13 -> 22        -0.21158

 Excited State   6:      Singlet-A      7.8106 eV  158.74 nm  f=0.0058  <S**2>=0.000
      11 -> 14         0.60336
      13 -> 18         0.31038
      13 -> 22         0.11881

 Excited State   7:      Singlet-A      7.9900 eV  155.17 nm  f=0.0029  <S**2>=0.000
      11 -> 14        -0.31984
      13 -> 15         0.12124
      13 -> 17         0.37434
      13 -> 18         0.43235
      13 -> 20         0.13732
      13 -> 22         0.14688

 Excited State   8:      Singlet-A      8.6560 eV  143.23 nm  f=0.0037  <S**2>=0.000
      13 -> 18        -0.25282
      13 -> 19        -0.22560
      13 -> 20         0.59414

 Excited State   9:      Singlet-A      8.7626 eV  141.49 nm  f=0.0163  <S**2>=0.000
       8 -> 15         0.11689
      10 -> 14         0.41845
      11 -> 17         0.10783
      12 -> 15         0.37916
      12 -> 17         0.18395
      12 -> 18        -0.16627
      13 -> 19        -0.21867

 Excited State  10:      Singlet-A      8.8527 eV  140.05 nm  f=0.0559  <S**2>=0.000
       8 -> 16        -0.11347
      10 -> 14         0.36788
      11 -> 17        -0.10681
      11 -> 18        -0.13454
      12 -> 15        -0.23087
      12 -> 16         0.33852
      12 -> 18         0.18680
      13 -> 19        -0.22703
      13 -> 20        -0.11838

 Excited State  11:      Singlet-A      9.2414 eV  134.16 nm  f=0.0227  <S**2>=0.000
      13 -> 17         0.10222
      13 -> 18        -0.20312
      13 -> 20        -0.16041
      13 -> 21        -0.40017
      13 -> 22         0.48326

 Excited State  12:      Singlet-A      9.3453 eV  132.67 nm  f=0.0772  <S**2>=0.000
       9 -> 15         0.11948
      10 -> 14        -0.10561
      11 -> 15         0.21096
      11 -> 17        -0.12112
      11 -> 18        -0.11404
      12 -> 15         0.48219
      12 -> 16         0.21610
      12 -> 17        -0.27982

 Excited State  13:      Singlet-A      9.4423 eV  131.31 nm  f=0.0667  <S**2>=0.000
      10 -> 14         0.16419
      12 -> 17         0.10227
      13 -> 18        -0.11964
      13 -> 19         0.38839
      13 -> 21         0.34990
      13 -> 22         0.37989

 Excited State  14:      Singlet-A      9.6558 eV  128.40 nm  f=0.0793  <S**2>=0.000
      10 -> 14        -0.17853
      12 -> 16        -0.15735
      12 -> 17        -0.16317
      13 -> 19        -0.37540
      13 -> 20        -0.17989
      13 -> 21         0.42856
      13 -> 22         0.15924

 Excited State  15:      Singlet-A      9.7378 eV  127.32 nm  f=0.2677  <S**2>=0.000
       8 -> 16        -0.14059
      10 -> 14        -0.28675
      11 -> 16        -0.11098
      11 -> 17         0.14998
      12 -> 16         0.42595
      12 -> 17         0.23477
      12 -> 18        -0.22864
      13 -> 19        -0.11413

 The electronic state is 1-A.
 Alpha  occ. eigenvalues --   -1.91719  -1.19306  -0.97859  -0.81137  -0.79498
 Alpha  occ. eigenvalues --   -0.67121  -0.66354  -0.51449  -0.49129  -0.41958
 Alpha  occ. eigenvalues --   -0.40710  -0.36002  -0.25139
 Alpha virt. eigenvalues --    0.14240   0.20004   0.21950   0.27478   0.29351
 Alpha virt. eigenvalues --    0.31519   0.31731   0.33420   0.35329   0.41280
 Alpha virt. eigenvalues --    0.44872

 Mulliken charges:
               1
     1  C   -0.110565
     2  C   -1.871058
     3  O    3.112359
     4  C   -1.867436
     5  C   -0.134220
     6  H    0.147220
     7  H    0.295259
     8  H    0.278048
     9  H    0.150393
 Sum of Mulliken charges =   0.00000

 Dipole moment (field-independent basis, Debye):
    X=              3.7921    Y=            -10.8070    Z=             -0.9769  Tot=             11.4946
 N-N= 1.031550727485D+02 E-N=-1.680287184272D+02  KE=-1.556926971108D+01
 Orbital energies and kinetic energies (alpha):
                                 1                 2
   1         O                -1.917191         -1.351721
   2         O                -1.193064         -1.067717
   3         O                -0.978591         -0.917969
   4         O                -0.811367         -0.713134
   5         O                -0.794978         -0.614350
   6         O                -0.671213         -0.570476
   7         O                -0.663539         -0.564113

 Normal termination of Gaussian 09 at Tue Dec 15 17:10:02 2015.
