 Gaussian 09, Revision D.01,
 Gaussian 09:  ES64L-G09RevD.01 24-Apr-2013

 ------------------------------------------------------------
 #P AM1(Input,print) CIS(Singlets,NStates=15) pop(full) force
 ------------------------------------------------------------

 -----------------
 AM1-Reparam Input
 -----------------
 Symbolic Z-matrix:
 Charge =  0 Multiplicity = 1

                         Standard orientation:
 ---------------------------------------------------------------------
 Center     Atomic      Atomic             Coordinates (Angstroms)
 Number     Number       Type             X           Y           Z
 ---------------------------------------------------------------------
      1          6           0        0.406120    1.091959    0.018226
      2          6           0        1.107284   -0.035841   -0.014882
      3          8           0        0.368895   -1.105081    0.022608
      4          6           0       -1.010431   -0.604028   -0.009463
      5          6           0       -0.913724    0.696158   -0.028902
      6          1           0       -1.827221    1.383583    0.078202
      7          1           0       -1.730922   -1.319018   -0.010736
      8          1           0        2.231231   -0.249486   -0.051530
      9          1           0        0.840253    2.136077    0.013329
 ---------------------------------------------------------------------

 SCF Done:  E(RAM1) =   1.44067306214     A.U. after   13 cycles

 Excitation energies and oscillator strengths:

 Excited State   1:      Singlet-A      5.4015 eV  229.54 nm  f=0.0020  <S**2>=0.000
      11 -> 14         0.10933
      13 -> 14         0.68150
 This state for optimization and/or second-order correction.
 Total Energy, E(CIS) =   1.63917313773
 Copying the excited state density for this state as the 1-particle RhoCI density.

 Excited State   2:      Singlet-A      6.0428 eV  205.18 nm  f=0.2878  <S**2>=0.000
      13 -> 15         0.69148

 Excited State   3:      Singlet-A      6.8867 eV  180.04 nm  f=0.0007  <S**2>=0.000
      11 -> 16        -0.11170
      13 -> 16         0.61680
      13 -> 17        -0.25589
      13 -> 19        -0.10075
      13 -> 21         0.10885

 Excited State   4:      Singlet-A      7.3414 eV  168.88 nm  f=0.0068  <S**2>=0.000
      13 -> 16         0.23681
      13 -> 17         0.62496
      13 -> 20         0.10249

 Excited State   5:      Singlet-A      7.5645 eV  163.90 nm  f=0.0009  <S**2>=0.000
      11 -> 15        -0.18644
      12 -> 15         0.65089
      13 -> 22         0.10831

 Excited State   6:      Singlet-A      7.8974 eV  156.99 nm  f=0.0003  <S**2>=0.000
      13 -> 19         0.58139
      13 -> 22        -0.35214

 Excited State   7:      Singlet-A      8.2009 eV  151.18 nm  f=0.0137  <S**2>=0.000
      10 -> 15        -0.21997
      11 -> 15        -0.34816
      12 -> 15        -0.13605
      13 -> 18         0.52164
      13 -> 20        -0.10991

 Excited State   8:      Singlet-A      8.3250 eV  148.93 nm  f=0.0109  <S**2>=0.000
      10 -> 14        -0.10271
      10 -> 15         0.58272
      13 -> 18         0.30693
      13 -> 20         0.11687

 Excited State   9:      Singlet-A      8.4390 eV  146.92 nm  f=0.0099  <S**2>=0.000
      11 -> 14         0.48516
      12 -> 14         0.10541
      13 -> 17        -0.12131
      13 -> 19         0.15132
      13 -> 20         0.38404
      13 -> 22         0.14704

 Excited State  10:      Singlet-A      8.6081 eV  144.03 nm  f=0.0040  <S**2>=0.000
      11 -> 14        -0.35855
      13 -> 14         0.13119
      13 -> 20         0.49754
      13 -> 21         0.18617

 Excited State  11:      Singlet-A      8.7229 eV  142.14 nm  f=0.0106  <S**2>=0.000
      10 -> 15         0.14616
      11 -> 14        -0.19724
      13 -> 19         0.31905
      13 -> 22         0.54081

 Excited State  12:      Singlet-A      9.0988 eV  136.26 nm  f=0.0471  <S**2>=0.000
       8 -> 14         0.15990
       9 -> 14         0.13861
      10 -> 14        -0.28252
      11 -> 14        -0.14554
      12 -> 14         0.53051
      13 -> 18         0.12243

 Excited State  13:      Singlet-A      9.1970 eV  134.81 nm  f=0.0968  <S**2>=0.000
      10 -> 14        -0.11631
      10 -> 15        -0.21459
      10 -> 17         0.14470
      11 -> 15         0.46170
      12 -> 14        -0.11689
      12 -> 15         0.10318
      12 -> 17         0.21801
      12 -> 19        -0.12157
      13 -> 18         0.26643

 Excited State  14:      Singlet-A      9.2972 eV  133.36 nm  f=0.0443  <S**2>=0.000
      11 -> 16         0.12601
      13 -> 20        -0.18805
      13 -> 21         0.62053
      13 -> 23         0.12401

 Excited State  15:      Singlet-A      9.5697 eV  129.56 nm  f=0.0405  <S**2>=0.000
       9 -> 14         0.29956
      10 -> 14         0.48632
      10 -> 17        -0.20921
      11 -> 15         0.21727
      13 -> 18         0.12366

 The electronic state is 1-A.
 Alpha  occ. eigenvalues --   -1.89787  -1.21203  -0.96225  -0.78996  -0.76741
 Alpha  occ. eigenvalues --   -0.67282  -0.63022  -0.50147  -0.46893  -0.38800
 Alpha  occ. eigenvalues --   -0.37160  -0.36383  -0.23857
 Alpha virt. eigenvalues --    0.18211   0.19211   0.25786   0.28016   0.29330
 Alpha virt. eigenvalues --    0.30427   0.33127   0.35870   0.36856   0.40048
 Alpha virt. eigenvalues --    0.44635

 Mulliken charges:
               1
     1  C   -0.150988
     2  C   -1.534160
     3  O    2.763307
     4  C   -1.505551
     5  C    0.015916
     6  H    0.048469
     7  H    0.136265
     8  H    0.163350
     9  H    0.063393
 Sum of Mulliken charges =   0.00000

 Dipole moment (field-independent basis, Debye):
    X=              3.7860    Y=             -9.4054    Z=              0.3489  Tot=             10.1448
 N-N= 1.039318803647D+02 E-N=-1.705645021736D+02  KE=-1.588800217856D+01
 Orbital energies and kinetic energies (alpha):
                                 1                 2
   1         O                -1.897869         -1.383976
   2         O                -1.212035         -1.089241
   3         O                -0.962250         -0.892160
   4         O                -0.789962         -0.641808
   5         O                -0.767412         -0.677732
   6         O                -0.672818         -0.617322
   7         O                -0.630218         -0.553980

 Normal termination of Gaussian 09 at Tue Dec 15 17:08:01 2015.
