 Gaussian 09, Revision D.01,
 Gaussian 09:  ES64L-G09RevD.01 24-Apr-2013

 ------------------------------------------------------------
 #P AM1(Input,print) CIS(Singlets,NStates=15) pop(full) force
 ------------------------------------------------------------

 -----------------
 AM1-Reparam Input
 -----------------
 Symbolic Z-matrix:
 Charge =  0 Multiplicity = 1

                         Standard orientation:
 ---------------------------------------------------------------------
 Center     Atomic      Atomic             Coordinates (Angstroms)
 Number     Number       Type             X           Y           Z
 ---------------------------------------------------------------------
      1          6           0        0.285540    1.128025   -0.022795
      2          6           0        1.182488    0.050844   -0.009044
      3          8           0        0.402109   -1.082291    0.000520
      4          6           0       -0.907967   -0.694371    0.000924
      5          6           0       -0.980951    0.676219    0.016464
      6          1           0       -1.943050    1.161635   -0.007027
      7          1           0       -1.636924   -1.524341   -0.014432
      8          1           0        2.254782   -0.096142    0.061871
      9          1           0        0.633659    2.152871    0.042130
 ---------------------------------------------------------------------

 SCF Done:  E(RAM1) =   2.80638262116     A.U. after   14 cycles

 Excitation energies and oscillator strengths:

 Excited State   1:      Singlet-A      5.6953 eV  217.70 nm  f=0.2929  <S**2>=0.000
      13 -> 14         0.68705
 This state for optimization and/or second-order correction.
 Total Energy, E(CIS) =   3.01567959139
 Copying the excited state density for this state as the 1-particle RhoCI density.

 Excited State   2:      Singlet-A      6.7708 eV  183.12 nm  f=0.0067  <S**2>=0.000
      13 -> 15         0.62013
      13 -> 16         0.13864
      13 -> 17         0.24652

 Excited State   3:      Singlet-A      7.1347 eV  173.78 nm  f=0.0030  <S**2>=0.000
      12 -> 14         0.35389
      13 -> 15        -0.15053
      13 -> 16         0.51957
      13 -> 18        -0.17641

 Excited State   4:      Singlet-A      7.1976 eV  172.26 nm  f=0.0008  <S**2>=0.000
       9 -> 14         0.11752
      12 -> 14         0.58936
      13 -> 16        -0.32919
      13 -> 18         0.10065

 Excited State   5:      Singlet-A      7.6481 eV  162.11 nm  f=0.0055  <S**2>=0.000
      10 -> 14        -0.45972
      11 -> 14         0.51618

 Excited State   6:      Singlet-A      8.1385 eV  152.34 nm  f=0.0177  <S**2>=0.000
      13 -> 15        -0.18663
      13 -> 17         0.59221
      13 -> 18         0.16164
      13 -> 21         0.17088

 Excited State   7:      Singlet-A      8.4414 eV  146.88 nm  f=0.0037  <S**2>=0.000
      11 -> 16        -0.10356
      13 -> 16         0.11734
      13 -> 17        -0.21369
      13 -> 18         0.28609
      13 -> 19         0.30577
      13 -> 21         0.47744

 Excited State   8:      Singlet-A      8.6839 eV  142.78 nm  f=0.0915  <S**2>=0.000
      10 -> 14         0.51678
      11 -> 14         0.45804

 Excited State   9:      Singlet-A      8.8550 eV  140.02 nm  f=0.0002  <S**2>=0.000
      13 -> 16         0.14589
      13 -> 18         0.47095
      13 -> 19        -0.46026

 Excited State  10:      Singlet-A      9.3657 eV  132.38 nm  f=0.1114  <S**2>=0.000
       8 -> 15         0.10419
       9 -> 16        -0.11219
       9 -> 18         0.13122
      10 -> 15         0.18647
      10 -> 16         0.12962
      10 -> 17         0.21728
      11 -> 15        -0.19609
      11 -> 16        -0.17541
      11 -> 17        -0.24522
      12 -> 15         0.26317
      12 -> 17         0.19047
      12 -> 19         0.17955
      12 -> 21         0.10583
      13 -> 14         0.13037

 Excited State  11:      Singlet-A      9.4523 eV  131.17 nm  f=0.0003  <S**2>=0.000
      13 -> 18        -0.32822
      13 -> 19        -0.41986
      13 -> 21         0.43515

 Excited State  12:      Singlet-A      9.7495 eV  127.17 nm  f=0.0396  <S**2>=0.000
       9 -> 15        -0.11547
      10 -> 15        -0.29812
      11 -> 15         0.30700
      11 -> 16        -0.10059
      11 -> 18         0.10793
      12 -> 15         0.36352
      12 -> 16         0.25520
      12 -> 17         0.17094

 Excited State  13:      Singlet-A      9.7953 eV  126.58 nm  f=0.1258  <S**2>=0.000
       8 -> 15        -0.14016
      11 -> 15        -0.23143
      12 -> 15        -0.23760
      12 -> 16         0.50944
      12 -> 18        -0.17990
      13 -> 20         0.14818

 Excited State  14:      Singlet-A      9.8176 eV  126.29 nm  f=0.0905  <S**2>=0.000
      12 -> 16        -0.10549
      13 -> 20         0.66914

 Excited State  15:      Singlet-A      9.8954 eV  125.29 nm  f=0.0059  <S**2>=0.000
      10 -> 15         0.44522
      10 -> 16         0.14234
      10 -> 17         0.11593
      11 -> 15         0.32325
      11 -> 16         0.17372
      11 -> 17         0.12280
      12 -> 16         0.14509
      13 -> 15        -0.13435
      13 -> 16         0.14866
      13 -> 21         0.14881

 The electronic state is 1-A.
 Alpha  occ. eigenvalues --   -1.71084  -1.12991  -0.91206  -0.79049  -0.74947
 Alpha  occ. eigenvalues --   -0.66306  -0.63390  -0.54097  -0.50135  -0.42467
 Alpha  occ. eigenvalues --   -0.42256  -0.40822  -0.30242
 Alpha virt. eigenvalues --    0.12358   0.18047   0.19466   0.23560   0.27133
 Alpha virt. eigenvalues --    0.27969   0.29712   0.31075   0.36894   0.45726
 Alpha virt. eigenvalues --    0.50070

 Mulliken charges:
               1
     1  C   -0.124168
     2  C   -1.973426
     3  O    3.221282
     4  C   -1.971772
     5  C   -0.114252
     6  H    0.183216
     7  H    0.298955
     8  H    0.297953
     9  H    0.182212
 Sum of Mulliken charges =   0.00000

 Dipole moment (field-independent basis, Debye):
    X=              3.1921    Y=             -9.7436    Z=              0.2048  Tot=             10.2552
 N-N= 1.038691715881D+02 E-N=-1.689772126415D+02  KE=-1.476855047818D+01
 Orbital energies and kinetic energies (alpha):
                                 1                 2
   1         O                -1.710835         -1.205184
   2         O                -1.129909         -0.996312
   3         O                -0.912061         -0.837698
   4         O                -0.790487         -0.601331
   5         O                -0.749468         -0.661899
   6         O                -0.663059         -0.586685
   7         O                -0.633895         -0.525682

 Normal termination of Gaussian 09 at Tue Dec 15 17:05:57 2015.
