 Gaussian 09, Revision D.01,
 Gaussian 09:  ES64L-G09RevD.01 24-Apr-2013

 ------------------------------------------------------------
 #P AM1(Input,print) CIS(Singlets,NStates=15) pop(full) force
 ------------------------------------------------------------

 -----------------
 AM1-Reparam Input
 -----------------
 Symbolic Z-matrix:
 Charge =  0 Multiplicity = 1

                         Standard orientation:
 ---------------------------------------------------------------------
 Center     Atomic      Atomic             Coordinates (Angstroms)
 Number     Number       Type             X           Y           Z
 ---------------------------------------------------------------------
      1          6           0       -0.758455    0.927988   -0.011958
      2          6           0       -1.090365   -0.318593    0.029877
      3          8           0        0.016607   -1.170386   -0.037171
      4          6           0        1.068205   -0.332823    0.042094
      5          6           0        0.758371    0.984817   -0.009150
      6          1           0        1.365174    1.773344   -0.016099
      7          1           0        2.037449   -0.902824   -0.007160
      8          1           0       -2.057556   -0.851726    0.034843
      9          1           0       -1.344462    1.775963   -0.019400
 ---------------------------------------------------------------------

 SCF Done:  E(RAM1) =   1.89826197246     A.U. after   14 cycles

 Excitation energies and oscillator strengths:

 Excited State   1:      Singlet-A      5.2517 eV  236.08 nm  f=0.3492  <S**2>=0.000
      13 -> 14         0.69451
 This state for optimization and/or second-order correction.
 Total Energy, E(CIS) =   2.09125928803
 Copying the excited state density for this state as the 1-particle RhoCI density.

 Excited State   2:      Singlet-A      5.5846 eV  222.01 nm  f=0.0003  <S**2>=0.000
      13 -> 15         0.67931
      13 -> 17        -0.12518

 Excited State   3:      Singlet-A      6.0644 eV  204.45 nm  f=0.0009  <S**2>=0.000
      13 -> 16         0.67886
      13 -> 18         0.13335

 Excited State   4:      Singlet-A      6.3193 eV  196.20 nm  f=0.0005  <S**2>=0.000
      12 -> 14         0.70324

 Excited State   5:      Singlet-A      7.4972 eV  165.37 nm  f=0.0026  <S**2>=0.000
      13 -> 15         0.12130
      13 -> 17         0.55464
      13 -> 18         0.35232
      13 -> 22         0.19874

 Excited State   6:      Singlet-A      7.9166 eV  156.61 nm  f=0.0155  <S**2>=0.000
      10 -> 14        -0.22530
      11 -> 14         0.47878
      13 -> 17        -0.22703
      13 -> 18         0.38237

 Excited State   7:      Singlet-A      8.0615 eV  153.80 nm  f=0.0047  <S**2>=0.000
      10 -> 14        -0.20327
      11 -> 14         0.41171
      13 -> 17         0.32255
      13 -> 18        -0.39386

 Excited State   8:      Singlet-A      8.4434 eV  146.84 nm  f=0.1953  <S**2>=0.000
       8 -> 16         0.12336
      12 -> 15         0.53190
      12 -> 16        -0.29093
      12 -> 17        -0.16970
      12 -> 18        -0.17279

 Excited State   9:      Singlet-A      8.6488 eV  143.35 nm  f=0.0010  <S**2>=0.000
      10 -> 14        -0.10033
      13 -> 19         0.66843
      13 -> 22         0.11309

 Excited State  10:      Singlet-A      8.7019 eV  142.48 nm  f=0.0095  <S**2>=0.000
       8 -> 15        -0.12047
      10 -> 14         0.46999
      11 -> 14         0.21973
      12 -> 15        -0.24661
      12 -> 16        -0.28660
      13 -> 19         0.11681

 Excited State  11:      Singlet-A      9.2487 eV  134.06 nm  f=0.1034  <S**2>=0.000
      10 -> 14         0.31819
      11 -> 14         0.16106
      11 -> 16         0.10672
      12 -> 15         0.20108
      12 -> 16         0.51547
      12 -> 17        -0.12511

 Excited State  12:      Singlet-A      9.5066 eV  130.42 nm  f=0.0162  <S**2>=0.000
      10 -> 15        -0.25606
      11 -> 15        -0.21085
      11 -> 16        -0.10384
      12 -> 17         0.12203
      12 -> 18         0.11964
      13 -> 17        -0.10939
      13 -> 18        -0.16572
      13 -> 22         0.49719

 Excited State  13:      Singlet-A      9.5427 eV  129.93 nm  f=0.0697  <S**2>=0.000
      10 -> 14         0.12280
      10 -> 15         0.13337
      10 -> 16         0.10027
      11 -> 16        -0.15693
      11 -> 17         0.14557
      11 -> 18        -0.13242
      12 -> 15         0.19928
      12 -> 16        -0.10417
      12 -> 17         0.29059
      12 -> 18         0.27909
      12 -> 19         0.15553
      12 -> 22         0.10904
      13 -> 20        -0.11920
      13 -> 22        -0.23414

 Excited State  14:      Singlet-A      9.6208 eV  128.87 nm  f=0.0264  <S**2>=0.000
      10 -> 15         0.48650
      11 -> 15         0.20393
      13 -> 20         0.32481
      13 -> 21         0.14025
      13 -> 22         0.23892

 Excited State  15:      Singlet-A      9.7316 eV  127.40 nm  f=0.0679  <S**2>=0.000
      10 -> 15        -0.25141
      13 -> 19         0.10959
      13 -> 20         0.54582
      13 -> 21         0.16753
      13 -> 22        -0.24018

 The electronic state is 1-A.
 Alpha  occ. eigenvalues --   -1.94016  -1.20910  -0.97978  -0.81674  -0.79713
 Alpha  occ. eigenvalues --   -0.68553  -0.67039  -0.50669  -0.48842  -0.42245
 Alpha  occ. eigenvalues --   -0.41854  -0.36269  -0.25270
 Alpha virt. eigenvalues --    0.13887   0.17286   0.19065   0.28349   0.29942
 Alpha virt. eigenvalues --    0.31679   0.34248   0.35384   0.35774   0.44604
 Alpha virt. eigenvalues --    0.48184

 Mulliken charges:
               1
     1  C   -0.070266
     2  C   -1.848219
     3  O    3.103159
     4  C   -1.871327
     5  C   -0.183178
     6  H    0.156823
     7  H    0.284199
     8  H    0.285596
     9  H    0.143213
 Sum of Mulliken charges =   0.00000

 Dipole moment (field-independent basis, Debye):
    X=              0.0345    Y=            -11.3467    Z=             -1.0381  Tot=             11.3942
 N-N= 1.040854595556D+02 E-N=-1.696160196446D+02  KE=-1.565770052109D+01
 Orbital energies and kinetic energies (alpha):
                                 1                 2
   1         O                -1.940155         -1.402126
   2         O                -1.209104         -1.086741
   3         O                -0.979783         -0.914918
   4         O                -0.816744         -0.622158
   5         O                -0.797127         -0.687744
   6         O                -0.685526         -0.575164
   7         O                -0.670395         -0.576681

 Normal termination of Gaussian 09 at Tue Dec 15 17:09:51 2015.
