 Gaussian 09, Revision D.01,
 Gaussian 09:  ES64L-G09RevD.01 24-Apr-2013

 ------------------------------------------------------------
 #P AM1(Input,print) CIS(Singlets,NStates=15) pop(full) force
 ------------------------------------------------------------

 -----------------
 AM1-Reparam Input
 -----------------
 Symbolic Z-matrix:
 Charge =  0 Multiplicity = 1

                         Standard orientation:
 ---------------------------------------------------------------------
 Center     Atomic      Atomic             Coordinates (Angstroms)
 Number     Number       Type             X           Y           Z
 ---------------------------------------------------------------------
      1          6           0        0.559627    1.015389   -0.006607
      2          6           0        1.137285   -0.187972   -0.011430
      3          8           0        0.185658   -1.112927   -0.013445
      4          6           0       -1.030920   -0.500435    0.009945
      5          6           0       -0.857226    0.843068    0.026187
      6          1           0       -1.665486    1.532788   -0.070999
      7          1           0       -1.887181   -1.162659   -0.006423
      8          1           0        2.129413   -0.494770    0.098703
      9          1           0        1.085399    2.007760   -0.022291
 ---------------------------------------------------------------------

 SCF Done:  E(RAM1) =   1.09483015179     A.U. after   14 cycles

 Excitation energies and oscillator strengths:

 Excited State   1:      Singlet-A      5.5233 eV  224.48 nm  f=0.2010  <S**2>=0.000
      12 -> 16         0.11137
      13 -> 14         0.67935
 This state for optimization and/or second-order correction.
 Total Energy, E(CIS) =   1.29780746084
 Copying the excited state density for this state as the 1-particle RhoCI density.

 Excited State   2:      Singlet-A      6.4995 eV  190.76 nm  f=0.0061  <S**2>=0.000
      13 -> 15         0.57682
      13 -> 16        -0.36576
      13 -> 19         0.10992

 Excited State   3:      Singlet-A      6.9434 eV  178.56 nm  f=0.0021  <S**2>=0.000
      12 -> 14        -0.19288
      13 -> 15         0.21820
      13 -> 16         0.35256
      13 -> 17         0.48730
      13 -> 18        -0.12235
      13 -> 21         0.14510

 Excited State   4:      Singlet-A      7.0971 eV  174.70 nm  f=0.0019  <S**2>=0.000
      11 -> 14        -0.11218
      12 -> 14         0.38343
      13 -> 15        -0.19189
      13 -> 16        -0.31173
      13 -> 17         0.42311

 Excited State   5:      Singlet-A      7.2595 eV  170.79 nm  f=0.0012  <S**2>=0.000
       9 -> 14         0.15721
      11 -> 14         0.66700

 Excited State   6:      Singlet-A      7.8397 eV  158.15 nm  f=0.0222  <S**2>=0.000
       9 -> 14         0.10178
      10 -> 14         0.61983
      11 -> 16         0.12250
      12 -> 14         0.19753
      13 -> 16         0.13031

 Excited State   7:      Singlet-A      8.1322 eV  152.46 nm  f=0.2195  <S**2>=0.000
      10 -> 14        -0.25068
      12 -> 14         0.48912
      13 -> 15         0.21121
      13 -> 16         0.28436
      13 -> 18         0.14917

 Excited State   8:      Singlet-A      8.1435 eV  152.25 nm  f=0.0145  <S**2>=0.000
      12 -> 14        -0.11731
      12 -> 15         0.15176
      12 -> 16        -0.10418
      13 -> 17         0.14855
      13 -> 18         0.60433
      13 -> 19        -0.13197
      13 -> 22         0.15581

 Excited State   9:      Singlet-A      8.5501 eV  145.01 nm  f=0.0221  <S**2>=0.000
       9 -> 15        -0.13775
       9 -> 16        -0.15693
      10 -> 14        -0.15529
      10 -> 16         0.11884
      11 -> 15         0.40454
      11 -> 16         0.43782
      11 -> 17        -0.12810

 Excited State  10:      Singlet-A      8.5981 eV  144.20 nm  f=0.0001  <S**2>=0.000
      13 -> 19         0.18482
      13 -> 20         0.62706
      13 -> 23         0.13973

 Excited State  11:      Singlet-A      8.6418 eV  143.47 nm  f=0.0046  <S**2>=0.000
      12 -> 15         0.56381
      12 -> 16        -0.29125
      12 -> 20        -0.11466
      13 -> 17        -0.10729
      13 -> 18        -0.13821
      13 -> 20         0.12824

 Excited State  12:      Singlet-A      8.9591 eV  138.39 nm  f=0.1222  <S**2>=0.000
       9 -> 17        -0.12704
      12 -> 15         0.26134
      12 -> 16         0.48455
      12 -> 17         0.25388
      13 -> 14        -0.10570
      13 -> 19        -0.21551

 Excited State  13:      Singlet-A      9.0720 eV  136.67 nm  f=0.0730  <S**2>=0.000
       9 -> 15        -0.17551
       9 -> 16         0.12246
      10 -> 17        -0.11764
      11 -> 15         0.37943
      11 -> 16        -0.34992
      11 -> 20        -0.13542
      12 -> 16         0.10465
      12 -> 17        -0.21900
      13 -> 19         0.10867

 Excited State  14:      Singlet-A      9.1502 eV  135.50 nm  f=0.0688  <S**2>=0.000
      11 -> 15         0.21168
      12 -> 15        -0.11910
      12 -> 16        -0.23131
      12 -> 17         0.45465
      13 -> 19        -0.29494

 Excited State  15:      Singlet-A      9.3448 eV  132.68 nm  f=0.0011  <S**2>=0.000
       9 -> 14         0.64683
      11 -> 14        -0.16373

 The electronic state is 1-A.
 Alpha  occ. eigenvalues --   -1.84713  -1.19695  -1.00573  -0.88159  -0.80760
 Alpha  occ. eigenvalues --   -0.73992  -0.72728  -0.61659  -0.56035  -0.51999
 Alpha  occ. eigenvalues --   -0.49501  -0.47806  -0.38616
 Alpha virt. eigenvalues --    0.03239   0.09781   0.10222   0.11304   0.17668
 Alpha virt. eigenvalues --    0.19106   0.19686   0.21402   0.26728   0.27121
 Alpha virt. eigenvalues --    0.28190

 Mulliken charges:
               1
     1  C   -0.171056
     2  C   -1.253943
     3  O    2.153874
     4  C   -1.265024
     5  C   -0.107503
     6  H    0.110908
     7  H    0.201184
     8  H    0.206040
     9  H    0.125519
 Sum of Mulliken charges =   0.00000

 Dipole moment (field-independent basis, Debye):
    X=              1.1771    Y=             -6.8030    Z=             -0.0480  Tot=              6.9043
 N-N= 1.048113659396D+02 E-N=-1.718796042243D+02  KE=-1.502875339907D+01
 Orbital energies and kinetic energies (alpha):
                                 1                 2
   1         O                -1.847135         -1.265321
   2         O                -1.196953         -0.964608
   3         O                -1.005727         -0.819328
   4         O                -0.881589         -0.634845
   5         O                -0.807600         -0.678891
   6         O                -0.739916         -0.586788
   7         O                -0.727278         -0.519483

 Normal termination of Gaussian 09 at Tue Dec 15 17:05:36 2015.
