 Gaussian 09, Revision D.01,
 Gaussian 09:  ES64L-G09RevD.01 24-Apr-2013

 ------------------------------------------------------------
 #P AM1(Input,print) CIS(Singlets,NStates=15) pop(full) force
 ------------------------------------------------------------

 -----------------
 AM1-Reparam Input
 -----------------
 Symbolic Z-matrix:
 Charge =  0 Multiplicity = 1

                         Standard orientation:
 ---------------------------------------------------------------------
 Center     Atomic      Atomic             Coordinates (Angstroms)
 Number     Number       Type             X           Y           Z
 ---------------------------------------------------------------------
      1          6           0        0.804052    0.840071    0.001280
      2          6           0        1.027364   -0.520018   -0.011118
      3          8           0       -0.188200   -1.107461    0.028342
      4          6           0       -1.102251   -0.202701   -0.025629
      5          6           0       -0.527351    1.054121   -0.014606
      6          1           0       -1.063821    1.971322    0.073959
      7          1           0       -2.176746   -0.569906    0.004219
      8          1           0        1.924076   -1.135306   -0.049914
      9          1           0        1.611208    1.564739    0.045441
 ---------------------------------------------------------------------

 SCF Done:  E(RAM1) =   2.02896427465     A.U. after   13 cycles

 Excitation energies and oscillator strengths:

 Excited State   1:      Singlet-A      5.7971 eV  213.87 nm  f=0.3119  <S**2>=0.000
      13 -> 14         0.68792
 This state for optimization and/or second-order correction.
 Total Energy, E(CIS) =   2.24200309583
 Copying the excited state density for this state as the 1-particle RhoCI density.

 Excited State   2:      Singlet-A      6.9737 eV  177.79 nm  f=0.0123  <S**2>=0.000
      13 -> 15         0.62949
      13 -> 16         0.16113
      13 -> 17         0.23438

 Excited State   3:      Singlet-A      7.1885 eV  172.48 nm  f=0.0014  <S**2>=0.000
      11 -> 14         0.14983
      12 -> 14         0.67511

 Excited State   4:      Singlet-A      7.4805 eV  165.74 nm  f=0.0059  <S**2>=0.000
      11 -> 14         0.12559
      13 -> 15        -0.12119
      13 -> 16         0.61225
      13 -> 18         0.24561

 Excited State   5:      Singlet-A      7.6298 eV  162.50 nm  f=0.0044  <S**2>=0.000
      10 -> 14        -0.24936
      11 -> 14         0.62666
      12 -> 14        -0.14520
      13 -> 16        -0.11990

 Excited State   6:      Singlet-A      8.4895 eV  146.04 nm  f=0.0013  <S**2>=0.000
      10 -> 15         0.11971
      13 -> 15         0.12020
      13 -> 16        -0.11618
      13 -> 17        -0.20957
      13 -> 18         0.19570
      13 -> 19         0.49222
      13 -> 20        -0.14780
      13 -> 21        -0.30591

 Excited State   7:      Singlet-A      8.7885 eV  141.08 nm  f=0.1070  <S**2>=0.000
      10 -> 14         0.64487
      11 -> 14         0.23765

 Excited State   8:      Singlet-A      8.8844 eV  139.55 nm  f=0.0182  <S**2>=0.000
      10 -> 15        -0.11410
      10 -> 16         0.13038
      13 -> 15        -0.17684
      13 -> 17         0.58063
      13 -> 19         0.26189

 Excited State   9:      Singlet-A      9.4353 eV  131.40 nm  f=0.0068  <S**2>=0.000
      10 -> 16         0.17465
      11 -> 16         0.11780
      13 -> 16        -0.13717
      13 -> 17         0.13806
      13 -> 18         0.54939
      13 -> 19        -0.26359

 Excited State  10:      Singlet-A      9.4900 eV  130.65 nm  f=0.0782  <S**2>=0.000
       9 -> 15         0.12658
      10 -> 15         0.14457
      10 -> 16         0.15013
      11 -> 15        -0.25438
      11 -> 16        -0.25718
      11 -> 17        -0.18499
      11 -> 18        -0.10414
      11 -> 19        -0.11938
      12 -> 15         0.27631
      12 -> 17         0.17205
      12 -> 19        -0.19982
      13 -> 14        -0.12473
      13 -> 18         0.10022

 Excited State  11:      Singlet-A      9.9184 eV  125.00 nm  f=0.0298  <S**2>=0.000
      10 -> 15         0.14812
      11 -> 15         0.51794
      11 -> 17         0.19609
      11 -> 18        -0.12676
      12 -> 15         0.25693
      12 -> 16         0.12594
      12 -> 17         0.13526

 Excited State  12:      Singlet-A      9.9884 eV  124.13 nm  f=0.0025  <S**2>=0.000
      10 -> 15         0.50172
      10 -> 17         0.15330
      12 -> 15        -0.22268
      12 -> 16        -0.21350
      13 -> 15        -0.12910
      13 -> 16         0.11940
      13 -> 18        -0.16199

 Excited State  13:      Singlet-A     10.1306 eV  122.39 nm  f=0.0102  <S**2>=0.000
      10 -> 15         0.11599
      12 -> 16        -0.16735
      13 -> 18         0.12805
      13 -> 19         0.30581
      13 -> 20         0.18027
      13 -> 21         0.53934

 Excited State  14:      Singlet-A     10.1595 eV  122.04 nm  f=0.1508  <S**2>=0.000
      10 -> 15         0.17452
      12 -> 15        -0.19317
      12 -> 16         0.51255
      12 -> 18         0.25930
      13 -> 21         0.14933

 Excited State  15:      Singlet-A     10.3717 eV  119.54 nm  f=0.0737  <S**2>=0.000
      10 -> 16         0.12549
      13 -> 20         0.64132
      13 -> 21        -0.22804

 The electronic state is 1-A.
 Alpha  occ. eigenvalues --   -1.95990  -1.22223  -0.95621  -0.82900  -0.78922
 Alpha  occ. eigenvalues --   -0.68507  -0.66683  -0.55886  -0.53901  -0.44335
 Alpha  occ. eigenvalues --   -0.43810  -0.42730  -0.32073
 Alpha virt. eigenvalues --    0.11085   0.16998   0.19901   0.24068   0.26576
 Alpha virt. eigenvalues --    0.28073   0.29969   0.30357   0.38828   0.47064
 Alpha virt. eigenvalues --    0.52372

 Mulliken charges:
               1
     1  C   -0.165685
     2  C   -2.041571
     3  O    3.189333
     4  C   -2.053297
     5  C   -0.217179
     6  H    0.261608
     7  H    0.389516
     8  H    0.377312
     9  H    0.259964
 Sum of Mulliken charges =   0.00000

 Dipole moment (field-independent basis, Debye):
    X=             -1.9258    Y=             -9.0542    Z=              0.7554  Tot=              9.2875
 N-N= 1.051620596540D+02 E-N=-1.710319937300D+02  KE=-1.556258119113D+01
 Orbital energies and kinetic energies (alpha):
                                 1                 2
   1         O                -1.959903         -1.433218
   2         O                -1.222231         -1.079723
   3         O                -0.956206         -0.855698
   4         O                -0.829003         -0.607198
   5         O                -0.789221         -0.672277
   6         O                -0.685073         -0.583966
   7         O                -0.666826         -0.533392

 Normal termination of Gaussian 09 at Tue Dec 15 17:07:15 2015.
