 Gaussian 09, Revision D.01,
 Gaussian 09:  ES64L-G09RevD.01 24-Apr-2013

 ------------------------------------------------------------
 #P AM1(Input,print) CIS(Singlets,NStates=15) pop(full) force
 ------------------------------------------------------------

 -----------------
 AM1-Reparam Input
 -----------------
 Symbolic Z-matrix:
 Charge =  0 Multiplicity = 1

                         Standard orientation:
 ---------------------------------------------------------------------
 Center     Atomic      Atomic             Coordinates (Angstroms)
 Number     Number       Type             X           Y           Z
 ---------------------------------------------------------------------
      1          6           0        0.863239    0.784245   -0.020767
      2          6           0        1.033205   -0.481976    0.015390
      3          8           0       -0.225510   -1.153029    0.003608
      4          6           0       -1.105698   -0.133167   -0.010492
      5          6           0       -0.522442    1.046167   -0.000348
      6          1           0       -1.117619    1.976527    0.081247
      7          1           0       -2.183631   -0.462451   -0.015577
      8          1           0        1.851522   -1.191054    0.001046
      9          1           0        1.643985    1.609587    0.001716
 ---------------------------------------------------------------------

 SCF Done:  E(RAM1) =   1.12441777702     A.U. after   14 cycles

 Excitation energies and oscillator strengths:

 Excited State   1:      Singlet-A      5.4824 eV  226.15 nm  f=0.1827  <S**2>=0.000
      12 -> 15        -0.14538
      13 -> 14         0.67765
 This state for optimization and/or second-order correction.
 Total Energy, E(CIS) =   1.32589279423
 Copying the excited state density for this state as the 1-particle RhoCI density.

 Excited State   2:      Singlet-A      6.1405 eV  201.91 nm  f=0.0016  <S**2>=0.000
      13 -> 16         0.66491
      13 -> 17         0.10792
      13 -> 18        -0.13307

 Excited State   3:      Singlet-A      6.5857 eV  188.26 nm  f=0.0609  <S**2>=0.000
      12 -> 14         0.26338
      13 -> 15         0.63553

 Excited State   4:      Singlet-A      6.7611 eV  183.38 nm  f=0.0019  <S**2>=0.000
      13 -> 16        -0.11014
      13 -> 17         0.65792
      13 -> 19        -0.12797
      13 -> 21         0.12275

 Excited State   5:      Singlet-A      7.3259 eV  169.24 nm  f=0.0008  <S**2>=0.000
       9 -> 14         0.11280
      11 -> 14         0.68025
      12 -> 14        -0.11149

 Excited State   6:      Singlet-A      7.8660 eV  157.62 nm  f=0.0116  <S**2>=0.000
      10 -> 14         0.60192
      11 -> 15        -0.19890
      12 -> 14        -0.21138
      13 -> 20        -0.13475

 Excited State   7:      Singlet-A      8.0371 eV  154.26 nm  f=0.0004  <S**2>=0.000
      13 -> 18         0.53329
      13 -> 19        -0.32567
      13 -> 20        -0.20172
      13 -> 24         0.17091

 Excited State   8:      Singlet-A      8.1272 eV  152.55 nm  f=0.0090  <S**2>=0.000
      12 -> 14        -0.13375
      13 -> 17        -0.12816
      13 -> 19        -0.26331
      13 -> 20         0.58150
      13 -> 23         0.11863

 Excited State   9:      Singlet-A      8.1478 eV  152.17 nm  f=0.1593  <S**2>=0.000
      10 -> 14         0.23514
      11 -> 14         0.11128
      11 -> 18         0.13055
      12 -> 14         0.55874
      13 -> 15        -0.22073
      13 -> 20         0.10013

 Excited State  10:      Singlet-A      8.4323 eV  147.04 nm  f=0.0187  <S**2>=0.000
       6 -> 15         0.10872
       9 -> 15        -0.20255
      10 -> 14         0.23684
      10 -> 15         0.15551
      11 -> 15         0.56647
      12 -> 15        -0.17321

 Excited State  11:      Singlet-A      8.5808 eV  144.49 nm  f=0.0029  <S**2>=0.000
      12 -> 16         0.51623
      13 -> 18        -0.19462
      13 -> 19        -0.35265
      13 -> 20        -0.18544

 Excited State  12:      Singlet-A      8.6807 eV  142.83 nm  f=0.1716  <S**2>=0.000
       9 -> 16        -0.15238
      11 -> 15         0.15864
      11 -> 16        -0.10107
      11 -> 18         0.10192
      12 -> 15         0.58970
      13 -> 14         0.14372

 Excited State  13:      Singlet-A      8.8121 eV  140.70 nm  f=0.0018  <S**2>=0.000
      12 -> 16         0.38690
      12 -> 17         0.28482
      13 -> 16         0.12300
      13 -> 18         0.29407
      13 -> 19         0.31671
      13 -> 20         0.12533
      13 -> 21         0.10348
      13 -> 22         0.12242

 Excited State  14:      Singlet-A      9.2023 eV  134.73 nm  f=0.0005  <S**2>=0.000
      12 -> 17        -0.33194
      13 -> 21         0.57309
      13 -> 22         0.11844

 Excited State  15:      Singlet-A      9.3344 eV  132.83 nm  f=0.0017  <S**2>=0.000
       9 -> 16        -0.22733
      10 -> 16         0.48785
      10 -> 17         0.13113
      10 -> 19        -0.18169
      10 -> 20        -0.11158
      11 -> 16         0.15288
      11 -> 17         0.15431
      11 -> 19        -0.15650
      12 -> 15        -0.15326

 The electronic state is 1-A.
 Alpha  occ. eigenvalues --   -1.81289  -1.21306  -0.98758  -0.86860  -0.80473
 Alpha  occ. eigenvalues --   -0.73190  -0.71859  -0.59114  -0.55733  -0.50296
 Alpha  occ. eigenvalues --   -0.48343  -0.47227  -0.36745
 Alpha virt. eigenvalues --    0.05121   0.09093   0.09650   0.12232   0.18250
 Alpha virt. eigenvalues --    0.19043   0.20112   0.22605   0.26215   0.28185
 Alpha virt. eigenvalues --    0.28965

 Mulliken charges:
               1
     1  C   -0.103796
     2  C   -1.190748
     3  O    2.082248
     4  C   -1.200983
     5  C   -0.204156
     6  H    0.117553
     7  H    0.205522
     8  H    0.178556
     9  H    0.115803
 Sum of Mulliken charges =   0.00000

 Dipole moment (field-independent basis, Debye):
    X=             -1.7900    Y=             -7.5433    Z=              0.0421  Tot=              7.7529
 N-N= 1.046034744959D+02 E-N=-1.717676634302D+02  KE=-1.496657208546D+01
 Orbital energies and kinetic energies (alpha):
                                 1                 2
   1         O                -1.812889         -1.238197
   2         O                -1.213058         -0.985039
   3         O                -0.987578         -0.842797
   4         O                -0.868600         -0.605346
   5         O                -0.804732         -0.670313
   6         O                -0.731903         -0.580677
   7         O                -0.718594         -0.524806

 Normal termination of Gaussian 09 at Tue Dec 15 17:05:41 2015.
