 Gaussian 09, Revision D.01,
 Gaussian 09:  ES64L-G09RevD.01 24-Apr-2013

 ------------------------------------------------------------
 #P AM1(Input,print) CIS(Singlets,NStates=15) pop(full) force
 ------------------------------------------------------------

 -----------------
 AM1-Reparam Input
 -----------------
 Symbolic Z-matrix:
 Charge =  0 Multiplicity = 1

                         Standard orientation:
 ---------------------------------------------------------------------
 Center     Atomic      Atomic             Coordinates (Angstroms)
 Number     Number       Type             X           Y           Z
 ---------------------------------------------------------------------
      1          6           0        0.962296    0.749562    0.007155
      2          6           0        0.974707   -0.643081   -0.023719
      3          8           0       -0.345927   -1.140192    0.028641
      4          6           0       -1.173187   -0.023624   -0.018379
      5          6           0       -0.399275    1.114596   -0.003523
      6          1           0       -0.804527    2.105082    0.016803
      7          1           0       -2.203463   -0.163177   -0.018833
      8          1           0        1.747143   -1.331401   -0.043330
      9          1           0        1.841019    1.326315    0.047029
 ---------------------------------------------------------------------

 SCF Done:  E(RAM1) =   1.72090712882     A.U. after   13 cycles

 Excitation energies and oscillator strengths:

 Excited State   1:      Singlet-A      5.5749 eV  222.40 nm  f=0.3471  <S**2>=0.000
      13 -> 14         0.69179
 This state for optimization and/or second-order correction.
 Total Energy, E(CIS) =   1.92578027173
 Copying the excited state density for this state as the 1-particle RhoCI density.

 Excited State   2:      Singlet-A      7.2656 eV  170.65 nm  f=0.0008  <S**2>=0.000
      12 -> 14         0.69840

 Excited State   3:      Singlet-A      7.4617 eV  166.16 nm  f=0.0072  <S**2>=0.000
      13 -> 15         0.63417
      13 -> 16         0.20766
      13 -> 17        -0.16157

 Excited State   4:      Singlet-A      7.6436 eV  162.21 nm  f=0.0001  <S**2>=0.000
      10 -> 15        -0.11091
      13 -> 15        -0.20815
      13 -> 16         0.62857
      13 -> 18        -0.12881
      13 -> 19         0.15681

 Excited State   5:      Singlet-A      7.9500 eV  155.96 nm  f=0.0050  <S**2>=0.000
      11 -> 14         0.69555

 Excited State   6:      Singlet-A      9.1787 eV  135.08 nm  f=0.0002  <S**2>=0.000
      13 -> 16         0.11895
      13 -> 17         0.22466
      13 -> 18         0.57860
      13 -> 22        -0.28435

 Excited State   7:      Singlet-A      9.3562 eV  132.52 nm  f=0.0996  <S**2>=0.000
      10 -> 14         0.67957
      13 -> 20        -0.11995

 Excited State   8:      Singlet-A      9.5282 eV  130.12 nm  f=0.0119  <S**2>=0.000
      10 -> 16        -0.13111
      13 -> 15         0.12983
      13 -> 17         0.62909
      13 -> 18        -0.21147

 Excited State   9:      Singlet-A     10.0347 eV  123.56 nm  f=0.0007  <S**2>=0.000
      10 -> 15         0.10556
      13 -> 16        -0.10762
      13 -> 18         0.10277
      13 -> 19         0.66823

 Excited State  10:      Singlet-A     10.1027 eV  122.72 nm  f=0.0268  <S**2>=0.000
       8 -> 15        -0.11079
       9 -> 16         0.11952
      11 -> 15        -0.32228
      11 -> 17         0.23717
      11 -> 18        -0.11663
      12 -> 16         0.33585
      12 -> 17        -0.15952
      12 -> 18        -0.29291
      13 -> 14         0.10255

 Excited State  11:      Singlet-A     10.6082 eV  116.88 nm  f=0.1216  <S**2>=0.000
      11 -> 15        -0.12853
      12 -> 15         0.59874
      12 -> 16        -0.21676
      12 -> 17        -0.13502
      12 -> 19        -0.11586

 Excited State  12:      Singlet-A     10.7726 eV  115.09 nm  f=0.0865  <S**2>=0.000
      10 -> 14         0.12928
      11 -> 15         0.14646
      12 -> 16         0.17564
      13 -> 20         0.61632
      13 -> 21        -0.11045

 Excited State  13:      Singlet-A     10.8535 eV  114.23 nm  f=0.0372  <S**2>=0.000
      12 -> 16        -0.12015
      13 -> 18         0.24504
      13 -> 21        -0.36209
      13 -> 22         0.49783

 Excited State  14:      Singlet-A     10.9113 eV  113.63 nm  f=0.1286  <S**2>=0.000
      11 -> 15         0.17656
      11 -> 16         0.31678
      12 -> 15         0.10786
      12 -> 16         0.30527
      13 -> 18         0.12834
      13 -> 20        -0.11367
      13 -> 21         0.28537
      13 -> 22         0.32774

 Excited State  15:      Singlet-A     10.9511 eV  113.22 nm  f=0.1131  <S**2>=0.000
      11 -> 15        -0.12098
      11 -> 16        -0.28404
      12 -> 16        -0.21120
      13 -> 20         0.15505
      13 -> 21         0.48225
      13 -> 22         0.19553

 The electronic state is 1-A.
 Alpha  occ. eigenvalues --   -1.88866  -1.16802  -0.91806  -0.80845  -0.78871
 Alpha  occ. eigenvalues --   -0.70371  -0.66124  -0.56404  -0.55593  -0.46194
 Alpha  occ. eigenvalues --   -0.44356  -0.42300  -0.30624
 Alpha virt. eigenvalues --    0.11166   0.20296   0.20985   0.27848   0.29411
 Alpha virt. eigenvalues --    0.30833   0.31712   0.33175   0.35731   0.40636
 Alpha virt. eigenvalues --    0.43868

 Mulliken charges:
               1
     1  C   -0.144822
     2  C   -2.033320
     3  O    3.305220
     4  C   -2.031144
     5  C   -0.163503
     6  H    0.206732
     7  H    0.330844
     8  H    0.324919
     9  H    0.205074
 Sum of Mulliken charges =   0.00000

 Dipole moment (field-independent basis, Debye):
    X=             -3.2852    Y=            -10.5808    Z=              0.7176  Tot=             11.1023
 N-N= 1.032283644210D+02 E-N=-1.681621406520D+02  KE=-1.546964464405D+01
 Orbital energies and kinetic energies (alpha):
                                 1                 2
   1         O                -1.888656         -1.328374
   2         O                -1.168025         -1.055554
   3         O                -0.918055         -0.898948
   4         O                -0.808445         -0.565066
   5         O                -0.788714         -0.698180
   6         O                -0.703714         -0.598366
   7         O                -0.661244         -0.530581

 Normal termination of Gaussian 09 at Tue Dec 15 17:09:47 2015.
