 Gaussian 09, Revision D.01,
 Gaussian 09:  ES64L-G09RevD.01 24-Apr-2013

 ------------------------------------------------------------
 #P AM1(Input,print) CIS(Singlets,NStates=15) pop(full) force
 ------------------------------------------------------------

 -----------------
 AM1-Reparam Input
 -----------------
 Symbolic Z-matrix:
 Charge =  0 Multiplicity = 1

                         Standard orientation:
 ---------------------------------------------------------------------
 Center     Atomic      Atomic             Coordinates (Angstroms)
 Number     Number       Type             X           Y           Z
 ---------------------------------------------------------------------
      1          6           0       -0.791361    0.865569   -0.019063
      2          6           0       -1.080120   -0.487728    0.038010
      3          8           0        0.150444   -1.116339   -0.018479
      4          6           0        1.149966   -0.213091   -0.005149
      5          6           0        0.564242    0.995773    0.007387
      6          1           0        1.120018    1.939580    0.030739
      7          1           0        2.137831   -0.601887    0.036199
      8          1           0       -1.978883   -1.080538   -0.012795
      9          1           0       -1.538885    1.710418   -0.033425
 ---------------------------------------------------------------------

 SCF Done:  E(RAM1) =   2.02842304307     A.U. after   13 cycles

 Excitation energies and oscillator strengths:

 Excited State   1:      Singlet-A      5.5983 eV  221.47 nm  f=0.3150  <S**2>=0.000
      13 -> 14         0.68989
 This state for optimization and/or second-order correction.
 Total Energy, E(CIS) =   2.23415798190
 Copying the excited state density for this state as the 1-particle RhoCI density.

 Excited State   2:      Singlet-A      7.0190 eV  176.64 nm  f=0.0103  <S**2>=0.000
      12 -> 14         0.46130
      13 -> 15         0.49115
      13 -> 17         0.14996

 Excited State   3:      Singlet-A      7.0570 eV  175.69 nm  f=0.0084  <S**2>=0.000
      12 -> 14         0.51358
      13 -> 15        -0.42402
      13 -> 16        -0.11941
      13 -> 17        -0.13208

 Excited State   4:      Singlet-A      7.3399 eV  168.92 nm  f=0.0022  <S**2>=0.000
      13 -> 15        -0.10900
      13 -> 16         0.61024
      13 -> 18         0.25793
      13 -> 21        -0.11030

 Excited State   5:      Singlet-A      7.5153 eV  164.98 nm  f=0.0082  <S**2>=0.000
      11 -> 14         0.68888

 Excited State   6:      Singlet-A      8.2171 eV  150.89 nm  f=0.0001  <S**2>=0.000
      13 -> 16         0.16018
      13 -> 18        -0.36310
      13 -> 19         0.44798
      13 -> 20        -0.19946
      13 -> 21         0.27872

 Excited State   7:      Singlet-A      8.8131 eV  140.68 nm  f=0.1082  <S**2>=0.000
      10 -> 14         0.69193

 Excited State   8:      Singlet-A      8.9472 eV  138.57 nm  f=0.0147  <S**2>=0.000
      10 -> 15        -0.10054
      10 -> 16         0.15769
      13 -> 15        -0.16685
      13 -> 17         0.64228

 Excited State   9:      Singlet-A      9.3692 eV  132.33 nm  f=0.0005  <S**2>=0.000
      10 -> 15         0.14627
      10 -> 16         0.12904
      13 -> 16        -0.17272
      13 -> 18         0.37531
      13 -> 19         0.50455

 Excited State  10:      Singlet-A      9.4962 eV  130.56 nm  f=0.0866  <S**2>=0.000
       9 -> 16        -0.11951
      11 -> 15         0.38901
      11 -> 16         0.11101
      11 -> 17         0.25861
      12 -> 16        -0.19680
      12 -> 18        -0.25677
      12 -> 19         0.22565
      13 -> 14        -0.11768

 Excited State  11:      Singlet-A      9.7838 eV  126.72 nm  f=0.0078  <S**2>=0.000
      13 -> 18         0.35747
      13 -> 19        -0.15779
      13 -> 20        -0.35340
      13 -> 21         0.45596

 Excited State  12:      Singlet-A      9.9407 eV  124.72 nm  f=0.0501  <S**2>=0.000
      11 -> 15        -0.10351
      11 -> 16         0.17922
      11 -> 18         0.10147
      12 -> 15         0.56401
      12 -> 16        -0.14358
      12 -> 17         0.18563
      12 -> 18        -0.17285
      12 -> 20        -0.11542

 Excited State  13:      Singlet-A     10.0587 eV  123.26 nm  f=0.0786  <S**2>=0.000
      13 -> 20         0.54705
      13 -> 21         0.40351

 Excited State  14:      Singlet-A     10.2386 eV  121.09 nm  f=0.1560  <S**2>=0.000
      11 -> 15         0.23737
      11 -> 16         0.38330
      11 -> 18         0.15848
      12 -> 16         0.42882
      12 -> 18         0.18984

 Excited State  15:      Singlet-A     10.4016 eV  119.20 nm  f=0.0015  <S**2>=0.000
      10 -> 15         0.59427
      10 -> 16         0.18321
      10 -> 17         0.13390
      13 -> 16         0.15743

 The electronic state is 1-A.
 Alpha  occ. eigenvalues --   -1.94474  -1.21322  -0.96304  -0.81817  -0.79685
 Alpha  occ. eigenvalues --   -0.68290  -0.65764  -0.56669  -0.54427  -0.44428
 Alpha  occ. eigenvalues --   -0.43231  -0.42277  -0.31153
 Alpha virt. eigenvalues --    0.10925   0.18929   0.20397   0.24846   0.26815
 Alpha virt. eigenvalues --    0.27516   0.29227   0.30079   0.35685   0.43992
 Alpha virt. eigenvalues --    0.49563

 Mulliken charges:
               1
     1  C   -0.195348
     2  C   -2.034822
     3  O    3.205980
     4  C   -2.018597
     5  C   -0.235743
     6  H    0.269600
     7  H    0.370756
     8  H    0.371696
     9  H    0.266479
 Sum of Mulliken charges =   0.00000

 Dipole moment (field-independent basis, Debye):
    X=              1.4535    Y=             -9.3107    Z=             -0.4936  Tot=              9.4364
 N-N= 1.045966909792D+02 E-N=-1.700279133014D+02  KE=-1.551179121784D+01
 Orbital energies and kinetic energies (alpha):
                                 1                 2
   1         O                -1.944738         -1.396319
   2         O                -1.213225         -1.065489
   3         O                -0.963037         -0.865759
   4         O                -0.818168         -0.602891
   5         O                -0.796852         -0.682732
   6         O                -0.682902         -0.580461
   7         O                -0.657637         -0.528372

 Normal termination of Gaussian 09 at Tue Dec 15 17:07:19 2015.
