 Gaussian 09, Revision D.01,
 Gaussian 09:  ES64L-G09RevD.01 24-Apr-2013

 ------------------------------------------------------------
 #P AM1(Input,print) CIS(Singlets,NStates=15) pop(full) force
 ------------------------------------------------------------

 -----------------
 AM1-Reparam Input
 -----------------
 Symbolic Z-matrix:
 Charge =  0 Multiplicity = 1

                         Standard orientation:
 ---------------------------------------------------------------------
 Center     Atomic      Atomic             Coordinates (Angstroms)
 Number     Number       Type             X           Y           Z
 ---------------------------------------------------------------------
      1          6           0       -0.641123    1.005779   -0.031384
      2          6           0       -1.129898   -0.283423    0.038843
      3          8           0       -0.049575   -1.188788   -0.025569
      4          6           0        1.067270   -0.347998    0.002481
      5          6           0        0.740796    0.891495    0.010900
      6          1           0        1.483228    1.728144    0.013694
      7          1           0        2.054875   -0.910209    0.044960
      8          1           0       -2.029750   -0.737221    0.024056
      9          1           0       -1.334025    1.834473   -0.003191
 ---------------------------------------------------------------------

 SCF Done:  E(RAM1) =   2.63982193798     A.U. after   13 cycles

 Excitation energies and oscillator strengths:

 Excited State   1:      Singlet-A      5.1534 eV  240.59 nm  f=0.3330  <S**2>=0.000
      13 -> 14         0.69681
 This state for optimization and/or second-order correction.
 Total Energy, E(CIS) =   2.82920467003
 Copying the excited state density for this state as the 1-particle RhoCI density.

 Excited State   2:      Singlet-A      6.0061 eV  206.43 nm  f=0.0002  <S**2>=0.000
      10 -> 15         0.10896
      13 -> 15         0.67100
      13 -> 16        -0.10134
      13 -> 19        -0.10408

 Excited State   3:      Singlet-A      6.4393 eV  192.54 nm  f=0.0026  <S**2>=0.000
      13 -> 15         0.10547
      13 -> 16         0.66954

 Excited State   4:      Singlet-A      6.7678 eV  183.20 nm  f=0.0018  <S**2>=0.000
      11 -> 14         0.11212
      12 -> 14         0.68885

 Excited State   5:      Singlet-A      7.2934 eV  170.00 nm  f=0.0047  <S**2>=0.000
      11 -> 14         0.68813
      12 -> 14        -0.11243

 Excited State   6:      Singlet-A      7.9117 eV  156.71 nm  f=0.0003  <S**2>=0.000
      13 -> 17         0.65929
      13 -> 18        -0.16025
      13 -> 21         0.12139

 Excited State   7:      Singlet-A      8.6044 eV  144.09 nm  f=0.0910  <S**2>=0.000
      10 -> 14         0.68258
      12 -> 15         0.10629

 Excited State   8:      Singlet-A      8.9642 eV  138.31 nm  f=0.0097  <S**2>=0.000
      10 -> 15         0.23085
      10 -> 16        -0.11461
      13 -> 17         0.16851
      13 -> 18         0.60549
      13 -> 19         0.13248

 Excited State   9:      Singlet-A      9.2054 eV  134.69 nm  f=0.1080  <S**2>=0.000
       9 -> 15        -0.13750
      10 -> 14        -0.13926
      11 -> 15         0.17934
      11 -> 18        -0.13373
      12 -> 15         0.51758
      12 -> 16        -0.23138
      12 -> 17         0.19744

 Excited State  10:      Singlet-A      9.3022 eV  133.28 nm  f=0.1822  <S**2>=0.000
       8 -> 15        -0.10479
      11 -> 15        -0.26348
      11 -> 16        -0.16776
      11 -> 18         0.19317
      12 -> 15         0.41479
      12 -> 16         0.24508
      12 -> 17        -0.26151
      12 -> 18        -0.10706

 Excited State  11:      Singlet-A      9.4440 eV  131.28 nm  f=0.0033  <S**2>=0.000
       7 -> 16         0.10286
      10 -> 16         0.34428
      13 -> 19         0.57676

 Excited State  12:      Singlet-A      9.8132 eV  126.34 nm  f=0.1600  <S**2>=0.000
       9 -> 15         0.12153
      11 -> 15        -0.26963
      11 -> 16         0.56332
      11 -> 19         0.18272
      12 -> 16         0.10668

 Excited State  13:      Singlet-A      9.9914 eV  124.09 nm  f=0.0021  <S**2>=0.000
       7 -> 15        -0.13891
      10 -> 15         0.61834
      13 -> 15        -0.15282
      13 -> 18        -0.21100

 Excited State  14:      Singlet-A     10.2101 eV  121.43 nm  f=0.0241  <S**2>=0.000
       8 -> 16         0.17033
       9 -> 15        -0.21592
      10 -> 16         0.15176
      11 -> 15         0.22156
      11 -> 16         0.15901
      11 -> 17        -0.19802
      12 -> 16         0.42222
      12 -> 17         0.14707
      12 -> 19         0.10680
      13 -> 19        -0.12671

 Excited State  15:      Singlet-A     10.3526 eV  119.76 nm  f=0.0012  <S**2>=0.000
      10 -> 16         0.52981
      11 -> 15        -0.10162
      12 -> 16        -0.12110
      13 -> 16         0.14037
      13 -> 18         0.16855
      13 -> 19        -0.29045

 The electronic state is 1-A.
 Alpha  occ. eigenvalues --   -1.83552  -1.13715  -0.87411  -0.78422  -0.75075
 Alpha  occ. eigenvalues --   -0.66326  -0.62511  -0.54465  -0.53900  -0.43643
 Alpha  occ. eigenvalues --   -0.42464  -0.41128  -0.28633
 Alpha virt. eigenvalues --    0.10855   0.16411   0.19100   0.26603   0.28536
 Alpha virt. eigenvalues --    0.31080   0.37456   0.42347   0.45670   0.53998
 Alpha virt. eigenvalues --    0.56797

 Mulliken charges:
               1
     1  C   -0.202801
     2  C   -1.975351
     3  O    3.439735
     4  C   -1.965790
     5  C   -0.192368
     6  H    0.196381
     7  H    0.272853
     8  H    0.237496
     9  H    0.189846
 Sum of Mulliken charges =   0.00000

 Dipole moment (field-independent basis, Debye):
    X=              0.3338    Y=            -12.5475    Z=             -0.5959  Tot=             12.5661
 N-N= 1.038907867559D+02 E-N=-1.695158986643D+02  KE=-1.436113309943D+01
 Orbital energies and kinetic energies (alpha):
                                 1                 2
   1         O                -1.835517         -1.215014
   2         O                -1.137149         -0.984960
   3         O                -0.874105         -0.816751
   4         O                -0.784222         -0.524354
   5         O                -0.750754         -0.611365
   6         O                -0.663256         -0.544972
   7         O                -0.625112         -0.502276

 Normal termination of Gaussian 09 at Tue Dec 15 17:07:47 2015.
