 Gaussian 09, Revision D.01,
 Gaussian 09:  ES64L-G09RevD.01 24-Apr-2013

 -------------------------------------------------------
 #P B3LYP/3-21G CIS(Singlets,NStates=15) pop(full) force
 -------------------------------------------------------

 --------
 FuranDFT
 --------
 Symbolic Z-matrix:
 Charge =  0 Multiplicity = 1

                         Standard orientation:
 ---------------------------------------------------------------------
 Center     Atomic      Atomic             Coordinates (Angstroms)
 Number     Number       Type             X           Y           Z
 ---------------------------------------------------------------------
      1          6           0       -1.019134    0.700298   -0.028078
      2          6           0       -0.896149   -0.702093    0.005899
      3          8           0        0.366618   -1.083516   -0.012352
      4          6           0        1.164285   -0.002440    0.015332
      5          6           0        0.363164    1.140054    0.027278
      6          1           0        0.743042    2.129363   -0.022659
      7          1           0        2.214252   -0.156025   -0.065589
      8          1           0       -1.697125   -1.438065    0.071687
      9          1           0       -1.866105    1.317940   -0.007204
 ---------------------------------------------------------------------

 SCF Done:  E(RB3LYP) =  -228.741279538     A.U. after   14 cycles

 Excitation energies and oscillator strengths:

 Excited State   1:      Singlet-A      6.9436 eV  178.56 nm  f=0.0005  <S**2>=0.000
      17 -> 19        -0.49291
      18 -> 20         0.49924
 This state for optimization and/or second-order correction.
 Total Energy, E(CIS) =  -228.486108143
 Copying the excited state density for this state as the 1-particle RhoCI density.

 Excited State   2:      Singlet-A      7.1971 eV  172.27 nm  f=0.2372  <S**2>=0.000
      18 -> 19         0.68218

 Excited State   3:      Singlet-A      8.6722 eV  142.97 nm  f=0.0075  <S**2>=0.000
      16 -> 19         0.69465

 Excited State   4:      Singlet-A      8.8633 eV  139.89 nm  f=0.0005  <S**2>=0.000
      18 -> 21         0.65259
      18 -> 22         0.25223

 Excited State   5:      Singlet-A      9.1525 eV  135.47 nm  f=0.0004  <S**2>=0.000
      18 -> 21        -0.24564
      18 -> 22         0.64870

 Excited State   6:      Singlet-A      9.2971 eV  133.36 nm  f=0.1806  <S**2>=0.000
      17 -> 20         0.67086

 Excited State   7:      Singlet-A      9.3941 eV  131.98 nm  f=0.5345  <S**2>=0.000
      16 -> 20         0.11062
      17 -> 19         0.45412
      18 -> 20         0.45245

 Excited State   8:      Singlet-A      9.7163 eV  127.60 nm  f=0.0051  <S**2>=0.000
      15 -> 19        -0.14137
      17 -> 21        -0.17239
      18 -> 23         0.64734

 Excited State   9:      Singlet-A      9.8841 eV  125.44 nm  f=0.0220  <S**2>=0.000
      14 -> 19         0.15786
      15 -> 19         0.53291
      16 -> 20        -0.39411

 Excited State  10:      Singlet-A     10.0704 eV  123.12 nm  f=0.0029  <S**2>=0.000
      14 -> 19        -0.21998
      15 -> 19         0.33597
      16 -> 20         0.39277
      17 -> 21        -0.37732
      17 -> 22        -0.10715
      18 -> 24        -0.13770

 Excited State  11:      Singlet-A     10.1293 eV  122.40 nm  f=0.0029  <S**2>=0.000
      14 -> 19        -0.13508
      15 -> 19         0.25401
      16 -> 20         0.26932
      17 -> 21         0.49763
      17 -> 22         0.18932
      18 -> 23         0.21916

 Excited State  12:      Singlet-A     10.4023 eV  119.19 nm  f=0.0008  <S**2>=0.000
      17 -> 21        -0.26396
      17 -> 22         0.43206
      18 -> 24         0.47655

 Excited State  13:      Singlet-A     10.4263 eV  118.91 nm  f=0.0026  <S**2>=0.000
      14 -> 19         0.19604
      16 -> 20         0.12497
      17 -> 22        -0.45270
      18 -> 24         0.47021

 Excited State  14:      Singlet-A     10.5021 eV  118.06 nm  f=0.0025  <S**2>=0.000
      14 -> 19         0.59046
      16 -> 20         0.26530
      17 -> 22         0.21613
      18 -> 24        -0.11468

 Excited State  15:      Singlet-A     10.8179 eV  114.61 nm  f=0.0062  <S**2>=0.000
      18 -> 25         0.68134

 The electronic state is 1-A.
 Alpha  occ. eigenvalues --  -19.12338 -10.18152 -10.17560 -10.12728 -10.12594
 Alpha  occ. eigenvalues --   -1.14998  -0.79375  -0.75462  -0.60717  -0.56901
 Alpha  occ. eigenvalues --   -0.54563  -0.46398  -0.45632  -0.41708  -0.40014
 Alpha  occ. eigenvalues --   -0.35667  -0.27356  -0.22658
 Alpha virt. eigenvalues --    0.02068   0.06919   0.14142   0.15464   0.17714
 Alpha virt. eigenvalues --    0.19457   0.21856   0.23707   0.34503   0.40017
 Alpha virt. eigenvalues --    0.46490   0.69964   0.70133   0.70221   0.73408

 Mulliken charges:
               1
     1  C   -0.256790
     2  C    0.115748
     3  O   -0.498031
     4  C    0.086823
     5  C   -0.257740
     6  H    0.186043
     7  H    0.219088
     8  H    0.216033
     9  H    0.188825
 Sum of Mulliken charges =   0.00000

 Dipole moment (field-independent basis, Debye):
    X=             -0.1668    Y=              0.5285    Z=             -0.0230  Tot=              0.5546
 Quadrupole moment (field-independent basis, Debye-Ang):
   XX=            -24.0091   YY=            -27.6840   ZZ=            -31.9087
   XY=              1.1460   XZ=             -0.3784   YZ=             -0.2002

 Normal termination of Gaussian 09 at Tue Dec 15 16:11:15 2015.
