 Gaussian 09, Revision D.01,
 Gaussian 09:  ES64L-G09RevD.01 24-Apr-2013

 -------------------------------------------------------
 #P B3LYP/3-21G CIS(Singlets,NStates=15) pop(full) force
 -------------------------------------------------------

 --------
 FuranDFT
 --------
 Symbolic Z-matrix:
 Charge =  0 Multiplicity = 1

                         Standard orientation:
 ---------------------------------------------------------------------
 Center     Atomic      Atomic             Coordinates (Angstroms)
 Number     Number       Type             X           Y           Z
 ---------------------------------------------------------------------
      1          6           0       -0.641123    1.005779   -0.031384
      2          6           0       -1.129898   -0.283423    0.038843
      3          8           0       -0.049575   -1.188788   -0.025569
      4          6           0        1.067270   -0.347998    0.002481
      5          6           0        0.740796    0.891495    0.010900
      6          1           0        1.483228    1.728144    0.013694
      7          1           0        2.054875   -0.910209    0.044960
      8          1           0       -2.029750   -0.737221    0.024056
      9          1           0       -1.334025    1.834473   -0.003191
 ---------------------------------------------------------------------

 SCF Done:  E(RB3LYP) =  -228.732524990     A.U. after   15 cycles

 Excitation energies and oscillator strengths:

 Excited State   1:      Singlet-A      7.1498 eV  173.41 nm  f=0.2084  <S**2>=0.000
      18 -> 19         0.67551
 This state for optimization and/or second-order correction.
 Total Energy, E(CIS) =  -228.469774910
 Copying the excited state density for this state as the 1-particle RhoCI density.

 Excited State   2:      Singlet-A      7.4662 eV  166.06 nm  f=0.0061  <S**2>=0.000
      17 -> 19         0.53391
      18 -> 20         0.44109

 Excited State   3:      Singlet-A      8.2203 eV  150.83 nm  f=0.0001  <S**2>=0.000
      18 -> 21         0.69559

 Excited State   4:      Singlet-A      8.6807 eV  142.83 nm  f=0.0048  <S**2>=0.000
      16 -> 19         0.69806

 Excited State   5:      Singlet-A      9.0685 eV  136.72 nm  f=0.0083  <S**2>=0.000
      18 -> 20        -0.10939
      18 -> 22         0.66898

 Excited State   6:      Singlet-A      9.5980 eV  129.18 nm  f=0.0101  <S**2>=0.000
      17 -> 20        -0.12700
      17 -> 21         0.66617

 Excited State   7:      Singlet-A      9.6632 eV  128.31 nm  f=0.3053  <S**2>=0.000
      15 -> 19        -0.14174
      17 -> 19        -0.31035
      17 -> 20        -0.34807
      17 -> 21        -0.15326
      18 -> 20         0.39592
      18 -> 22         0.14372

 Excited State   8:      Singlet-A      9.9212 eV  124.97 nm  f=0.0235  <S**2>=0.000
      15 -> 19         0.66132
      18 -> 20         0.10912

 Excited State   9:      Singlet-A     10.0411 eV  123.48 nm  f=0.0059  <S**2>=0.000
      17 -> 21         0.11020
      18 -> 23         0.27494
      18 -> 24         0.61435

 Excited State  10:      Singlet-A     10.1667 eV  121.95 nm  f=0.2314  <S**2>=0.000
      14 -> 19        -0.12257
      17 -> 19        -0.19999
      17 -> 20         0.50252
      17 -> 22        -0.20215
      18 -> 20         0.24395
      18 -> 23        -0.14273
      18 -> 24         0.10025

 Excited State  11:      Singlet-A     10.2594 eV  120.85 nm  f=0.0290  <S**2>=0.000
      14 -> 19         0.48149
      17 -> 20         0.18336
      18 -> 23         0.43343
      18 -> 24        -0.14341

 Excited State  12:      Singlet-A     10.2912 eV  120.48 nm  f=0.0014  <S**2>=0.000
      14 -> 19         0.45078
      15 -> 19         0.11051
      17 -> 22         0.11761
      18 -> 23        -0.44031
      18 -> 24         0.22114
      18 -> 25        -0.10587

 Excited State  13:      Singlet-A     10.4840 eV  118.26 nm  f=0.0240  <S**2>=0.000
      14 -> 19        -0.13251
      17 -> 20         0.16137
      17 -> 22         0.65151

 Excited State  14:      Singlet-A     10.8063 eV  114.73 nm  f=0.0045  <S**2>=0.000
      12 -> 19         0.55094
      13 -> 19        -0.29092
      16 -> 20         0.15213
      18 -> 25        -0.26645

 Excited State  15:      Singlet-A     10.8364 eV  114.41 nm  f=0.0159  <S**2>=0.000
      12 -> 19         0.20534
      13 -> 19        -0.13451
      18 -> 24         0.13249
      18 -> 25         0.60741
      18 -> 26        -0.14138

 The electronic state is 1-A.
 Alpha  occ. eigenvalues --  -19.10511 -10.17247 -10.17028 -10.12788 -10.12176
 Alpha  occ. eigenvalues --   -1.10206  -0.82169  -0.74425  -0.60059  -0.57209
 Alpha  occ. eigenvalues --   -0.53875  -0.44027  -0.43650  -0.41792  -0.40218
 Alpha  occ. eigenvalues --   -0.36348  -0.28530  -0.23399
 Alpha virt. eigenvalues --    0.01467   0.09369   0.11549   0.14433   0.18234
 Alpha virt. eigenvalues --    0.18351   0.20913   0.22310   0.34360   0.44001
 Alpha virt. eigenvalues --    0.48290   0.66471   0.69807   0.71815   0.76387

 Mulliken charges:
               1
     1  C   -0.235995
     2  C    0.044138
     3  O   -0.464275
     4  C    0.099568
     5  C   -0.254300
     6  H    0.190710
     7  H    0.209521
     8  H    0.218448
     9  H    0.192185
 Sum of Mulliken charges =   0.00000

 Dipole moment (field-independent basis, Debye):
    X=              0.0129    Y=              0.8747    Z=              0.0907  Tot=              0.8795
 Quadrupole moment (field-independent basis, Debye-Ang):
   XX=            -23.3135   YY=            -28.4386   ZZ=            -31.6904
   XY=             -0.1699   XZ=              0.0690   YZ=             -0.0607

 Normal termination of Gaussian 09 at Tue Dec 15 16:28:56 2015.
