 Gaussian 09, Revision D.01,
 Gaussian 09:  ES64L-G09RevD.01 24-Apr-2013

 ------------------------------------------------------------
 #P AM1(Input,print) CIS(Singlets,NStates=15) pop(full) force
 ------------------------------------------------------------

 -----------------
 AM1-Reparam Input
 -----------------
 Symbolic Z-matrix:
 Charge =  0 Multiplicity = 1

                         Standard orientation:
 ---------------------------------------------------------------------
 Center     Atomic      Atomic             Coordinates (Angstroms)
 Number     Number       Type             X           Y           Z
 ---------------------------------------------------------------------
      1          6           0        0.426935    1.086993    0.006452
      2          6           0        1.158484   -0.062068    0.034016
      3          8           0        0.323832   -1.092775   -0.013920
      4          6           0       -0.987586   -0.654582   -0.000887
      5          6           0       -0.950789    0.774502   -0.023468
      6          1           0       -1.781889    1.417671    0.030627
      7          1           0       -1.744242   -1.345937    0.070045
      8          1           0        2.197984   -0.256572   -0.078761
      9          1           0        0.855220    2.057965   -0.007227
 ---------------------------------------------------------------------

 SCF Done:  E(RAM1) =   2.08934918496     A.U. after   13 cycles

 Excitation energies and oscillator strengths:

 Excited State   1:      Singlet-A      5.6600 eV  219.05 nm  f=0.3453  <S**2>=0.000
      13 -> 14         0.69336
 This state for optimization and/or second-order correction.
 Total Energy, E(CIS) =   2.29735162322
 Copying the excited state density for this state as the 1-particle RhoCI density.

 Excited State   2:      Singlet-A      6.8057 eV  182.18 nm  f=0.0065  <S**2>=0.000
      11 -> 15         0.10855
      13 -> 15         0.65347
      13 -> 16         0.14726
      13 -> 17         0.15329

 Excited State   3:      Singlet-A      7.2648 eV  170.66 nm  f=0.0028  <S**2>=0.000
      11 -> 16        -0.10357
      12 -> 14         0.11210
      13 -> 15        -0.13925
      13 -> 16         0.63505
      13 -> 18         0.10279
      13 -> 19         0.15087

 Excited State   4:      Singlet-A      7.3447 eV  168.81 nm  f=0.0005  <S**2>=0.000
      12 -> 14         0.68533
      13 -> 16        -0.10494

 Excited State   5:      Singlet-A      8.1101 eV  152.88 nm  f=0.0060  <S**2>=0.000
      10 -> 14         0.69507

 Excited State   6:      Singlet-A      8.4564 eV  146.62 nm  f=0.0001  <S**2>=0.000
      13 -> 16        -0.10127
      13 -> 17         0.16907
      13 -> 18         0.53022
      13 -> 21        -0.39373

 Excited State   7:      Singlet-A      8.8271 eV  140.46 nm  f=0.0117  <S**2>=0.000
      11 -> 14        -0.11867
      11 -> 15        -0.10115
      11 -> 16         0.12279
      13 -> 15        -0.12620
      13 -> 17         0.62464
      13 -> 18        -0.14796

 Excited State   8:      Singlet-A      8.8979 eV  139.34 nm  f=0.1109  <S**2>=0.000
      11 -> 14         0.67400
      13 -> 17         0.10953

 Excited State   9:      Singlet-A      9.5362 eV  130.01 nm  f=0.0008  <S**2>=0.000
      11 -> 15         0.11140
      11 -> 16         0.14747
      13 -> 18        -0.18300
      13 -> 19         0.62125
      13 -> 21        -0.13774

 Excited State  10:      Singlet-A      9.8419 eV  125.98 nm  f=0.0019  <S**2>=0.000
      13 -> 18         0.36978
      13 -> 19         0.19264
      13 -> 21         0.53497

 Excited State  11:      Singlet-A      9.9513 eV  124.59 nm  f=0.0573  <S**2>=0.000
       9 -> 15         0.12989
      10 -> 15         0.32311
      10 -> 16         0.12373
      10 -> 17         0.22854
      12 -> 15        -0.22373
      12 -> 16        -0.26398
      12 -> 17        -0.19568
      12 -> 18        -0.23139
      13 -> 21         0.11373

 Excited State  12:      Singlet-A     10.0335 eV  123.57 nm  f=0.0678  <S**2>=0.000
       8 -> 15        -0.11988
      12 -> 15         0.60447
      12 -> 16        -0.15812
      12 -> 18        -0.17988

 Excited State  13:      Singlet-A     10.1651 eV  121.97 nm  f=0.0937  <S**2>=0.000
      11 -> 15         0.22540
      11 -> 16        -0.10977
      13 -> 20         0.64023

 Excited State  14:      Singlet-A     10.2715 eV  120.71 nm  f=0.0075  <S**2>=0.000
      11 -> 15         0.56599
      11 -> 16         0.20441
      13 -> 15        -0.13938
      13 -> 16         0.11154
      13 -> 19        -0.11787
      13 -> 20        -0.20303

 Excited State  15:      Singlet-A     10.6947 eV  115.93 nm  f=0.1428  <S**2>=0.000
       8 -> 16         0.11884
      10 -> 15         0.18085
      10 -> 16         0.29269
      12 -> 16         0.49439
      12 -> 19         0.12104
      13 -> 22         0.17290

 The electronic state is 1-A.
 Alpha  occ. eigenvalues --   -1.94179  -1.18857  -0.93689  -0.81300  -0.79105
 Alpha  occ. eigenvalues --   -0.69986  -0.66235  -0.56857  -0.54527  -0.45740
 Alpha  occ. eigenvalues --   -0.44807  -0.43204  -0.31100
 Alpha virt. eigenvalues --    0.10590   0.17160   0.19753   0.25119   0.27005
 Alpha virt. eigenvalues --    0.28915   0.29958   0.30875   0.32475   0.40152
 Alpha virt. eigenvalues --    0.45367

 Mulliken charges:
               1
     1  C   -0.159292
     2  C   -1.908314
     3  O    3.229027
     4  C   -1.923125
     5  C   -0.108017
     6  H    0.161927
     7  H    0.264509
     8  H    0.278143
     9  H    0.165141
 Sum of Mulliken charges =   0.00000

 Dipole moment (field-independent basis, Debye):
    X=              3.3099    Y=             -9.4300    Z=             -0.4597  Tot=             10.0046
 N-N= 1.040982108498D+02 E-N=-1.690822651271D+02  KE=-1.534371139621D+01
 Orbital energies and kinetic energies (alpha):
                                 1                 2
   1         O                -1.941792         -1.368277
   2         O                -1.188572         -1.041337
   3         O                -0.936887         -0.874476
   4         O                -0.813000         -0.574597
   5         O                -0.791053         -0.693191
   6         O                -0.699861         -0.601249
   7         O                -0.662354         -0.523165

 Normal termination of Gaussian 09 at Tue Dec 15 17:09:15 2015.
