 Gaussian 09, Revision D.01,
 Gaussian 09:  ES64L-G09RevD.01 24-Apr-2013

 ------------------------------------------------------------
 #P AM1(Input,print) CIS(Singlets,NStates=15) pop(full) force
 ------------------------------------------------------------

 -----------------
 AM1-Reparam Input
 -----------------
 Symbolic Z-matrix:
 Charge =  0 Multiplicity = 1

                         Standard orientation:
 ---------------------------------------------------------------------
 Center     Atomic      Atomic             Coordinates (Angstroms)
 Number     Number       Type             X           Y           Z
 ---------------------------------------------------------------------
      1          6           0       -0.975310    0.715668   -0.009273
      2          6           0       -0.928919   -0.602198   -0.018064
      3          8           0        0.318882   -1.148367    0.018147
      4          6           0        1.166129   -0.012823   -0.013168
      5          6           0        0.405930    1.103118    0.015270
      6          1           0        0.802026    2.164230   -0.016746
      7          1           0        2.195371   -0.198491   -0.022500
      8          1           0       -1.727105   -1.367089   -0.003242
      9          1           0       -1.828327    1.365698    0.048715
 ---------------------------------------------------------------------

 SCF Done:  E(RAM1) =  -4.06527798421     A.U. after   14 cycles

 Excitation energies and oscillator strengths:

 Excited State   1:      Singlet-A      6.5373 eV  189.66 nm  f=0.2762  <S**2>=0.000
      13 -> 14         0.69036
 This state for optimization and/or second-order correction.
 Total Energy, E(CIS) =  -3.82503617150
 Copying the excited state density for this state as the 1-particle RhoCI density.

 Excited State   2:      Singlet-A      7.5102 eV  165.09 nm  f=0.0018  <S**2>=0.000
      13 -> 15         0.68996

 Excited State   3:      Singlet-A      7.7936 eV  159.08 nm  f=0.0002  <S**2>=0.000
      10 -> 14        -0.18918
      11 -> 14        -0.20159
      12 -> 14         0.63194
      13 -> 17        -0.13321

 Excited State   4:      Singlet-A      8.0159 eV  154.67 nm  f=0.0044  <S**2>=0.000
      12 -> 14         0.13227
      13 -> 16         0.16021
      13 -> 17         0.65860

 Excited State   5:      Singlet-A      8.2720 eV  149.88 nm  f=0.0917  <S**2>=0.000
       9 -> 14        -0.13320
      13 -> 16         0.66808
      13 -> 17        -0.16192

 Excited State   6:      Singlet-A      8.6392 eV  143.51 nm  f=0.0015  <S**2>=0.000
       8 -> 14        -0.12419
      10 -> 14        -0.38160
      11 -> 14         0.57216

 Excited State   7:      Singlet-A      9.8105 eV  126.38 nm  f=0.0008  <S**2>=0.000
      10 -> 14         0.52533
      11 -> 14         0.31983
      12 -> 14         0.27058
      13 -> 18        -0.14830
      13 -> 19         0.10348

 Excited State   8:      Singlet-A      9.8458 eV  125.93 nm  f=0.0006  <S**2>=0.000
       9 -> 15        -0.11670
      10 -> 14         0.11104
      13 -> 18         0.66718

 Excited State   9:      Singlet-A     10.3115 eV  120.24 nm  f=0.0002  <S**2>=0.000
      13 -> 19         0.67919
      13 -> 20         0.10071

 Excited State  10:      Singlet-A     10.5271 eV  117.78 nm  f=0.0240  <S**2>=0.000
       8 -> 14         0.19764
       9 -> 14         0.61148
      12 -> 15         0.12736
      12 -> 17         0.14131

 Excited State  11:      Singlet-A     10.6046 eV  116.92 nm  f=0.0275  <S**2>=0.000
       8 -> 15         0.10437
       9 -> 16         0.11047
      10 -> 15        -0.23275
      10 -> 17         0.13439
      11 -> 15        -0.32249
      11 -> 17        -0.15574
      12 -> 15         0.44890
      12 -> 19        -0.13382

 Excited State  12:      Singlet-A     10.9702 eV  113.02 nm  f=0.0205  <S**2>=0.000
       8 -> 14         0.56411
       9 -> 14        -0.14062
      12 -> 15        -0.10087
      12 -> 16        -0.28977
      12 -> 17        -0.15098

 Excited State  13:      Singlet-A     11.1583 eV  111.11 nm  f=0.0001  <S**2>=0.000
       8 -> 16         0.10734
       9 -> 15        -0.11030
       9 -> 17        -0.11174
      12 -> 16         0.10312
      13 -> 20         0.64615

 Excited State  14:      Singlet-A     11.2800 eV  109.92 nm  f=0.0038  <S**2>=0.000
       8 -> 14         0.21528
       8 -> 16         0.27798
       9 -> 16         0.21708
      11 -> 16        -0.26988
      12 -> 15        -0.14201
      12 -> 16         0.40587
      13 -> 20        -0.18094

 Excited State  15:      Singlet-A     11.3414 eV  109.32 nm  f=0.2492  <S**2>=0.000
       9 -> 14        -0.17359
      11 -> 15         0.15703
      11 -> 17        -0.32356
      12 -> 17         0.50610

 The electronic state is 1-A.
 Alpha  occ. eigenvalues --   -3.75732  -1.17058  -0.89994  -0.87863  -0.85615
 Alpha  occ. eigenvalues --   -0.75741  -0.74798  -0.57061  -0.53673  -0.51960
 Alpha  occ. eigenvalues --   -0.50627  -0.47605  -0.36423
 Alpha virt. eigenvalues --    0.09385   0.15464   0.16436   0.18049   0.24758
 Alpha virt. eigenvalues --    0.27574   0.30772   0.35129   0.42540   0.50077
 Alpha virt. eigenvalues --    0.52383

 Mulliken charges:
               1
     1  C   -0.081664
     2  C   -1.298309
     3  O    2.856245
     4  C   -1.302268
     5  C   -0.038113
     6  H   -0.036984
     7  H   -0.033034
     8  H   -0.024404
     9  H   -0.041469
 Sum of Mulliken charges =   0.00000

 Dipole moment (field-independent basis, Debye):
    X=              2.7519    Y=            -11.2744    Z=              0.4008  Tot=             11.6124
 N-N= 1.042041891623D+02 E-N=-1.708451871343D+02  KE=-2.161073354053D+01
 Orbital energies and kinetic energies (alpha):
                                 1                 2
   1         O                -3.757322         -2.947407
   2         O                -1.170581         -1.047769
   3         O                -0.899936         -0.763903
   4         O                -0.878628         -0.806722
   5         O                -0.856148         -0.799522
   6         O                -0.757413         -0.748793
   7         O                -0.747982         -0.718386

 Normal termination of Gaussian 09 at Fri Dec 11 13:41:22 2015.
