 Gaussian 09, Revision D.01,
 Gaussian 09:  ES64L-G09RevD.01 24-Apr-2013

 ------------------------------------------------------------
 #P AM1(Input,print) CIS(Singlets,NStates=15) pop(full) force
 ------------------------------------------------------------

 -----------------
 AM1-Reparam Input
 -----------------
 Symbolic Z-matrix:
 Charge =  0 Multiplicity = 1

                         Standard orientation:
 ---------------------------------------------------------------------
 Center     Atomic      Atomic             Coordinates (Angstroms)
 Number     Number       Type             X           Y           Z
 ---------------------------------------------------------------------
      1          6           0       -0.520978    1.102256   -0.031309
      2          6           0       -1.158001   -0.172240   -0.009191
      3          8           0       -0.207656   -1.147392    0.007263
      4          6           0        1.042012   -0.528583   -0.022241
      5          6           0        0.868888    0.809823    0.035096
      6          1           0        1.608042    1.564539    0.007360
      7          1           0        1.895582   -1.141840   -0.003126
      8          1           0       -2.203763   -0.517997    0.079096
      9          1           0       -1.030141    2.006900    0.024441
 ---------------------------------------------------------------------

 SCF Done:  E(RAM1) =   1.77447203136     A.U. after   14 cycles

 Excitation energies and oscillator strengths:

 Excited State   1:      Singlet-A      5.5720 eV  222.51 nm  f=0.3557  <S**2>=0.000
      13 -> 14         0.69115
 This state for optimization and/or second-order correction.
 Total Energy, E(CIS) =   1.97923786625
 Copying the excited state density for this state as the 1-particle RhoCI density.

 Excited State   2:      Singlet-A      6.8599 eV  180.74 nm  f=0.0072  <S**2>=0.000
      13 -> 15         0.66077
      13 -> 16         0.11077
      13 -> 17         0.18374

 Excited State   3:      Singlet-A      7.1793 eV  172.70 nm  f=0.0022  <S**2>=0.000
      13 -> 16         0.65917
      13 -> 18        -0.13139
      13 -> 19         0.13749

 Excited State   4:      Singlet-A      7.5732 eV  163.71 nm  f=0.0013  <S**2>=0.000
      12 -> 14         0.69374

 Excited State   5:      Singlet-A      8.3255 eV  148.92 nm  f=0.0029  <S**2>=0.000
      10 -> 14         0.51009
      13 -> 17         0.25384
      13 -> 18         0.35278
      13 -> 21        -0.15827

 Excited State   6:      Singlet-A      8.3783 eV  147.98 nm  f=0.0026  <S**2>=0.000
      10 -> 14         0.47709
      13 -> 17        -0.22391
      13 -> 18        -0.41766
      13 -> 21         0.15661

 Excited State   7:      Singlet-A      9.0092 eV  137.62 nm  f=0.0999  <S**2>=0.000
      11 -> 14         0.67509

 Excited State   8:      Singlet-A      9.1779 eV  135.09 nm  f=0.0135  <S**2>=0.000
      11 -> 15         0.13707
      11 -> 16        -0.13129
      13 -> 15        -0.12125
      13 -> 17         0.55230
      13 -> 18        -0.34968

 Excited State   9:      Singlet-A      9.7497 eV  127.17 nm  f=0.0002  <S**2>=0.000
      11 -> 15        -0.14229
      11 -> 16        -0.12112
      13 -> 19         0.65613

 Excited State  10:      Singlet-A      9.8913 eV  125.35 nm  f=0.0392  <S**2>=0.000
       8 -> 15         0.10016
       9 -> 16        -0.10622
      10 -> 15        -0.21717
      10 -> 16        -0.20884
      10 -> 17        -0.15575
      10 -> 18         0.17984
      12 -> 15         0.30217
      12 -> 16        -0.13944
      12 -> 17         0.25004
      12 -> 18         0.26919
      13 -> 14        -0.10263

 Excited State  11:      Singlet-A     10.3744 eV  119.51 nm  f=0.0070  <S**2>=0.000
      10 -> 15         0.10303
      11 -> 15         0.52759
      12 -> 15         0.27828
      12 -> 16         0.13362
      13 -> 15         0.12903
      13 -> 17        -0.11978
      13 -> 19         0.14377

 Excited State  12:      Singlet-A     10.4813 eV  118.29 nm  f=0.1089  <S**2>=0.000
      10 -> 16        -0.15595
      11 -> 15        -0.19908
      12 -> 15         0.15467
      12 -> 16         0.58457
      12 -> 19         0.12148

 Excited State  13:      Singlet-A     10.5546 eV  117.47 nm  f=0.0628  <S**2>=0.000
      10 -> 15         0.27228
      12 -> 15         0.20918
      12 -> 16        -0.11904
      13 -> 18         0.17656
      13 -> 20         0.15590
      13 -> 21         0.52521

 Excited State  14:      Singlet-A     10.5656 eV  117.35 nm  f=0.1275  <S**2>=0.000
      10 -> 15         0.41408
      10 -> 17         0.10584
      11 -> 15        -0.21721
      12 -> 15         0.24300
      12 -> 16        -0.18340
      13 -> 18        -0.10166
      13 -> 20        -0.10911
      13 -> 21        -0.34226

 Excited State  15:      Singlet-A     10.7231 eV  115.62 nm  f=0.0900  <S**2>=0.000
      11 -> 16        -0.24963
      13 -> 20         0.61649
      13 -> 21        -0.17377

 The electronic state is 1-A.
 Alpha  occ. eigenvalues --   -1.98267  -1.26333  -0.99375  -0.89316  -0.85345
 Alpha  occ. eigenvalues --   -0.76589  -0.73314  -0.63841  -0.62120  -0.52749
 Alpha  occ. eigenvalues --   -0.51913  -0.50294  -0.37494
 Alpha virt. eigenvalues --    0.04104   0.11102   0.12605   0.19274   0.20654
 Alpha virt. eigenvalues --    0.22664   0.25609   0.26786   0.28365   0.36376
 Alpha virt. eigenvalues --    0.41740

 Mulliken charges:
               1
     1  C   -0.132859
     2  C   -1.916633
     3  O    3.178567
     4  C   -1.889055
     5  C   -0.093709
     6  H    0.148089
     7  H    0.276607
     8  H    0.282393
     9  H    0.146599
 Sum of Mulliken charges =   0.00000

 Dipole moment (field-independent basis, Debye):
    X=             -1.8561    Y=            -10.4481    Z=              0.5335  Tot=             10.6251
 N-N= 1.050967325898D+02 E-N=-1.696796526575D+02  KE=-1.562587102215D+01
 Orbital energies and kinetic energies (alpha):
                                 1                 2
   1         O                -1.982669         -1.355367
   2         O                -1.263329         -1.048732
   3         O                -0.993749         -0.875206
   4         O                -0.893161         -0.591977
   5         O                -0.853454         -0.694147
   6         O                -0.765889         -0.623303
   7         O                -0.733138         -0.539083

 Normal termination of Gaussian 09 at Tue Dec 15 17:08:52 2015.
