 Gaussian 09, Revision D.01,
 Gaussian 09:  ES64L-G09RevD.01 24-Apr-2013

 ------------------------------------------------------------
 #P AM1(Input,print) CIS(Singlets,NStates=15) pop(full) force
 ------------------------------------------------------------

 -----------------
 AM1-Reparam Input
 -----------------
 Symbolic Z-matrix:
 Charge =  0 Multiplicity = 1

                         Standard orientation:
 ---------------------------------------------------------------------
 Center     Atomic      Atomic             Coordinates (Angstroms)
 Number     Number       Type             X           Y           Z
 ---------------------------------------------------------------------
      1          6           0       -0.635852    0.987878    0.013521
      2          6           0       -1.130008   -0.288040    0.007647
      3          8           0       -0.073227   -1.147976    0.000258
      4          6           0        1.100177   -0.403273   -0.007055
      5          6           0        0.726460    0.910716   -0.029787
      6          1           0        1.488692    1.726728    0.064265
      7          1           0        2.010116   -0.945801    0.059112
      8          1           0       -2.049912   -0.717208   -0.032770
      9          1           0       -1.227742    1.876404    0.001369
 ---------------------------------------------------------------------

 SCF Done:  E(RAM1) =   1.39137077774     A.U. after   13 cycles

 Excitation energies and oscillator strengths:

 Excited State   1:      Singlet-A      6.2502 eV  198.37 nm  f=0.2762  <S**2>=0.000
      13 -> 14         0.68368
 This state for optimization and/or second-order correction.
 Total Energy, E(CIS) =   1.62106258521
 Copying the excited state density for this state as the 1-particle RhoCI density.

 Excited State   2:      Singlet-A      6.6758 eV  185.72 nm  f=0.0120  <S**2>=0.000
      12 -> 16         0.13208
      13 -> 15         0.63450
      13 -> 17        -0.23292

 Excited State   3:      Singlet-A      7.0869 eV  174.95 nm  f=0.0001  <S**2>=0.000
      12 -> 15         0.20484
      13 -> 16         0.64209
      13 -> 21         0.12206
      13 -> 22        -0.11734

 Excited State   4:      Singlet-A      7.7714 eV  159.54 nm  f=0.0026  <S**2>=0.000
       9 -> 14         0.10534
      10 -> 14         0.10713
      11 -> 14         0.62840
      13 -> 17         0.21267
      13 -> 22         0.10595

 Excited State   5:      Singlet-A      7.8141 eV  158.67 nm  f=0.0109  <S**2>=0.000
      10 -> 14        -0.20279
      11 -> 14        -0.17600
      12 -> 16         0.11773
      13 -> 15         0.19809
      13 -> 17         0.59712

 Excited State   6:      Singlet-A      8.1873 eV  151.44 nm  f=0.0025  <S**2>=0.000
      10 -> 14         0.62897
      11 -> 14        -0.19990
      12 -> 14        -0.16393
      13 -> 17         0.15855

 Excited State   7:      Singlet-A      8.2854 eV  149.64 nm  f=0.0001  <S**2>=0.000
      12 -> 15         0.15059
      13 -> 19         0.48533
      13 -> 21         0.17502
      13 -> 22         0.43487

 Excited State   8:      Singlet-A      8.5000 eV  145.86 nm  f=0.0118  <S**2>=0.000
      10 -> 14         0.18078
      12 -> 14         0.53486
      13 -> 18         0.40398

 Excited State   9:      Singlet-A      8.9577 eV  138.41 nm  f=0.0030  <S**2>=0.000
      12 -> 15         0.31975
      13 -> 19        -0.34106
      13 -> 20         0.24403
      13 -> 21        -0.25801
      13 -> 22         0.36487

 Excited State  10:      Singlet-A      9.0438 eV  137.09 nm  f=0.0002  <S**2>=0.000
      13 -> 16        -0.11791
      13 -> 19        -0.35291
      13 -> 20        -0.24665
      13 -> 21         0.49901
      13 -> 22         0.19011

 Excited State  11:      Singlet-A      9.3025 eV  133.28 nm  f=0.0886  <S**2>=0.000
      12 -> 14         0.17207
      12 -> 16        -0.27905
      13 -> 18        -0.23865
      13 -> 20         0.47011
      13 -> 21         0.26278
      13 -> 23         0.11268

 Excited State  12:      Singlet-A      9.3177 eV  133.06 nm  f=0.1610  <S**2>=0.000
      12 -> 14        -0.33645
      12 -> 15         0.12553
      12 -> 16        -0.15815
      13 -> 18         0.47065
      13 -> 20         0.18613
      13 -> 21         0.17864
      13 -> 22        -0.14271

 Excited State  13:      Singlet-A      9.4354 eV  131.40 nm  f=0.0263  <S**2>=0.000
      12 -> 14         0.12546
      12 -> 15         0.50273
      12 -> 17        -0.14740
      12 -> 20         0.12220
      13 -> 16        -0.21946
      13 -> 18        -0.17421
      13 -> 20        -0.10473
      13 -> 22        -0.27583

 Excited State  14:      Singlet-A      9.7408 eV  127.28 nm  f=0.0993  <S**2>=0.000
       8 -> 15         0.12735
       9 -> 16        -0.10059
      10 -> 15        -0.26948
      10 -> 17         0.39103
      10 -> 19         0.11221
      11 -> 16        -0.14310
      11 -> 17        -0.25032
      11 -> 19         0.26528

 Excited State  15:      Singlet-A      9.9051 eV  125.17 nm  f=0.0149  <S**2>=0.000
      12 -> 16         0.53863
      12 -> 21         0.12512
      13 -> 15        -0.18416
      13 -> 20         0.28388
      13 -> 21         0.13984
      13 -> 23        -0.11545

 The electronic state is 1-A.
 Alpha  occ. eigenvalues --   -1.89067  -1.20093  -0.96370  -0.79172  -0.77970
 Alpha  occ. eigenvalues --   -0.67632  -0.62093  -0.50868  -0.48444  -0.39501
 Alpha  occ. eigenvalues --   -0.38537  -0.36852  -0.25991
 Alpha virt. eigenvalues --    0.18008   0.22398   0.23639   0.27507   0.29489
 Alpha virt. eigenvalues --    0.30369   0.32927   0.33629   0.35841   0.39908
 Alpha virt. eigenvalues --    0.45394

 Mulliken charges:
               1
     1  C   -0.064836
     2  C   -1.568374
     3  O    2.797013
     4  C   -1.567353
     5  C   -0.045132
     6  H    0.064615
     7  H    0.157970
     8  H    0.158863
     9  H    0.067234
 Sum of Mulliken charges =   0.00000

 Dipole moment (field-independent basis, Debye):
    X=             -0.6248    Y=             -9.3798    Z=              0.0614  Tot=              9.4008
 N-N= 1.037816432438D+02 E-N=-1.702321543070D+02  KE=-1.589657448164D+01
 Orbital energies and kinetic energies (alpha):
                                 1                 2
   1         O                -1.890671         -1.379864
   2         O                -1.200930         -1.080008
   3         O                -0.963701         -0.883189
   4         O                -0.791719         -0.682437
   5         O                -0.779703         -0.660806
   6         O                -0.676319         -0.629735
   7         O                -0.620929         -0.547664

 Normal termination of Gaussian 09 at Tue Dec 15 17:08:01 2015.
