 Gaussian 09, Revision D.01,
 Gaussian 09:  ES64L-G09RevD.01 24-Apr-2013

 ------------------------------------------------------------
 #P AM1(Input,print) CIS(Singlets,NStates=15) pop(full) force
 ------------------------------------------------------------

 -----------------
 AM1-Reparam Input
 -----------------
 Symbolic Z-matrix:
 Charge =  0 Multiplicity = 1

                         Standard orientation:
 ---------------------------------------------------------------------
 Center     Atomic      Atomic             Coordinates (Angstroms)
 Number     Number       Type             X           Y           Z
 ---------------------------------------------------------------------
      1          6           0       -0.281351    1.148219   -0.011564
      2          6           0       -1.110725    0.093769    0.001486
      3          8           0       -0.445888   -1.085625   -0.008252
      4          6           0        0.885337   -0.704822   -0.005958
      5          6           0        1.004143    0.621537    0.018903
      6          1           0        1.947620    1.175873   -0.023501
      7          1           0        1.577096   -1.497072    0.026344
      8          1           0       -2.272191   -0.085348    0.053848
      9          1           0       -0.669843    2.139323   -0.007879
 ---------------------------------------------------------------------

 SCF Done:  E(RAM1) =   2.86342460097     A.U. after   13 cycles

 Excitation energies and oscillator strengths:

 Excited State   1:      Singlet-A      5.4403 eV  227.90 nm  f=0.3171  <S**2>=0.000
      11 -> 17        -0.10406
      13 -> 14         0.69259
 This state for optimization and/or second-order correction.
 Total Energy, E(CIS) =   3.06335056368
 Copying the excited state density for this state as the 1-particle RhoCI density.

 Excited State   2:      Singlet-A      5.9914 eV  206.94 nm  f=0.0011  <S**2>=0.000
      10 -> 15         0.13481
      13 -> 15         0.67157
      13 -> 17         0.12879

 Excited State   3:      Singlet-A      6.6807 eV  185.59 nm  f=0.0027  <S**2>=0.000
      10 -> 16        -0.12444
      13 -> 16         0.65126
      13 -> 17         0.15051
      13 -> 18        -0.15578

 Excited State   4:      Singlet-A      7.0461 eV  175.96 nm  f=0.0001  <S**2>=0.000
       9 -> 14         0.10980
      12 -> 14         0.69272

 Excited State   5:      Singlet-A      7.6230 eV  162.65 nm  f=0.0212  <S**2>=0.000
      10 -> 14         0.10131
      11 -> 14         0.37866
      13 -> 15        -0.11490
      13 -> 17         0.52811
      13 -> 18         0.14724
      13 -> 21        -0.11195

 Excited State   6:      Singlet-A      7.7823 eV  159.31 nm  f=0.0003  <S**2>=0.000
      10 -> 14         0.15299
      11 -> 14         0.55935
      13 -> 17        -0.34505
      13 -> 18        -0.13764

 Excited State   7:      Singlet-A      8.0854 eV  153.34 nm  f=0.0044  <S**2>=0.000
      10 -> 16        -0.11065
      13 -> 16         0.14501
      13 -> 17        -0.22114
      13 -> 18         0.46098
      13 -> 21        -0.42599

 Excited State   8:      Singlet-A      8.5934 eV  144.28 nm  f=0.0001  <S**2>=0.000
      13 -> 16         0.10675
      13 -> 18         0.21698
      13 -> 19         0.62219
      13 -> 21         0.18356

 Excited State   9:      Singlet-A      8.7135 eV  142.29 nm  f=0.0543  <S**2>=0.000
      10 -> 14         0.61992
      11 -> 14        -0.17048
      12 -> 15        -0.21373

 Excited State  10:      Singlet-A      9.0738 eV  136.64 nm  f=0.1044  <S**2>=0.000
       8 -> 15         0.16652
      10 -> 14         0.19095
      11 -> 15         0.14520
      11 -> 17        -0.10582
      12 -> 15         0.54396
      12 -> 16        -0.16252
      12 -> 18         0.13012

 Excited State  11:      Singlet-A      9.1670 eV  135.25 nm  f=0.0083  <S**2>=0.000
      10 -> 15         0.13222
      12 -> 15         0.10292
      13 -> 18         0.39299
      13 -> 19        -0.28128
      13 -> 21         0.46886

 Excited State  12:      Singlet-A      9.4016 eV  131.87 nm  f=0.0396  <S**2>=0.000
       9 -> 15        -0.19823
      10 -> 15         0.24123
      11 -> 15         0.38826
      11 -> 16         0.10749
      11 -> 17         0.29002
      12 -> 15         0.11924
      12 -> 16         0.15385
      12 -> 18        -0.14580
      12 -> 19         0.11609

 Excited State  13:      Singlet-A      9.4133 eV  131.71 nm  f=0.0053  <S**2>=0.000
       7 -> 15        -0.12652
      10 -> 15         0.58279
      11 -> 15        -0.22455
      11 -> 17        -0.10639
      13 -> 15        -0.14905
      13 -> 21        -0.14722

 Excited State  14:      Singlet-A      9.5567 eV  129.73 nm  f=0.0823  <S**2>=0.000
      13 -> 20         0.68518

 Excited State  15:      Singlet-A      9.8548 eV  125.81 nm  f=0.1502  <S**2>=0.000
       9 -> 16        -0.10558
      11 -> 16        -0.27991
      11 -> 17        -0.13072
      11 -> 18         0.10563
      12 -> 16         0.56010
      12 -> 17         0.12348
      12 -> 19        -0.10294

 The electronic state is 1-A.
 Alpha  occ. eigenvalues --   -1.71587  -1.13263  -0.91525  -0.79073  -0.74370
 Alpha  occ. eigenvalues --   -0.65907  -0.63629  -0.51921  -0.49559  -0.42170
 Alpha  occ. eigenvalues --   -0.41765  -0.39565  -0.27821
 Alpha virt. eigenvalues --    0.13268   0.15995   0.19969   0.25345   0.28554
 Alpha virt. eigenvalues --    0.29156   0.31213   0.32397   0.36741   0.46338
 Alpha virt. eigenvalues --    0.49309

 Mulliken charges:
               1
     1  C   -0.154239
     2  C   -1.924704
     3  O    3.196977
     4  C   -1.932510
     5  C   -0.107691
     6  H    0.170904
     7  H    0.289392
     8  H    0.285451
     9  H    0.176420
 Sum of Mulliken charges =   0.00000

 Dipole moment (field-independent basis, Debye):
    X=             -4.4699    Y=            -10.2147    Z=              0.0513  Tot=             11.1500
 N-N= 1.041950102005D+02 E-N=-1.696301782561D+02  KE=-1.478987552863D+01
 Orbital energies and kinetic energies (alpha):
                                 1                 2
   1         O                -1.715873         -1.211523
   2         O                -1.132635         -1.005089
   3         O                -0.915254         -0.853495
   4         O                -0.790729         -0.593399
   5         O                -0.743696         -0.661554
   6         O                -0.659074         -0.570901
   7         O                -0.636293         -0.530755

 Normal termination of Gaussian 09 at Tue Dec 15 17:05:58 2015.
