 Gaussian 09, Revision D.01,
 Gaussian 09:  ES64L-G09RevD.01 24-Apr-2013

 ------------------------------------------------------------
 #P AM1(Input,print) CIS(Singlets,NStates=15) pop(full) force
 ------------------------------------------------------------

 -----------------
 AM1-Reparam Input
 -----------------
 Symbolic Z-matrix:
 Charge =  0 Multiplicity = 1

                         Standard orientation:
 ---------------------------------------------------------------------
 Center     Atomic      Atomic             Coordinates (Angstroms)
 Number     Number       Type             X           Y           Z
 ---------------------------------------------------------------------
      1          6           0        0.910887    0.802540   -0.001698
      2          6           0        0.997376   -0.549908    0.016192
      3          8           0       -0.229411   -1.131440    0.005287
      4          6           0       -1.140191   -0.141281   -0.031029
      5          6           0       -0.524155    1.083897    0.002240
      6          1           0       -0.998771    2.070282    0.039637
      7          1           0       -2.167242   -0.445418    0.063473
      8          1           0        1.798177   -1.214087   -0.038172
      9          1           0        1.739618    1.469259   -0.021473
 ---------------------------------------------------------------------

 SCF Done:  E(RAM1) =   1.82548818000     A.U. after   14 cycles

 Excitation energies and oscillator strengths:

 Excited State   1:      Singlet-A      5.5776 eV  222.29 nm  f=0.3369  <S**2>=0.000
      11 -> 17        -0.10164
      13 -> 14         0.69154
 This state for optimization and/or second-order correction.
 Total Energy, E(CIS) =   2.03046078895
 Copying the excited state density for this state as the 1-particle RhoCI density.

 Excited State   2:      Singlet-A      6.5653 eV  188.85 nm  f=0.0028  <S**2>=0.000
      10 -> 15        -0.11757
      13 -> 15         0.66231
      13 -> 17         0.13217
      13 -> 19        -0.10426

 Excited State   3:      Singlet-A      6.6134 eV  187.47 nm  f=0.0030  <S**2>=0.000
      10 -> 16         0.11595
      13 -> 16         0.65962
      13 -> 17         0.14404
      13 -> 19         0.10982

 Excited State   4:      Singlet-A      6.7113 eV  184.74 nm  f=0.0003  <S**2>=0.000
      12 -> 14         0.69913

 Excited State   5:      Singlet-A      7.7765 eV  159.44 nm  f=0.0072  <S**2>=0.000
      11 -> 14         0.69074
      13 -> 17         0.11321

 Excited State   6:      Singlet-A      8.1455 eV  152.21 nm  f=0.0004  <S**2>=0.000
      13 -> 16         0.10866
      13 -> 17        -0.18544
      13 -> 18         0.57018
      13 -> 21        -0.30949

 Excited State   7:      Singlet-A      8.2480 eV  150.32 nm  f=0.0128  <S**2>=0.000
      10 -> 15         0.11134
      11 -> 14        -0.11988
      13 -> 15        -0.12842
      13 -> 16        -0.10222
      13 -> 17         0.63339
      13 -> 18         0.17073

 Excited State   8:      Singlet-A      8.9182 eV  139.02 nm  f=0.0688  <S**2>=0.000
      10 -> 14         0.64573
      12 -> 16         0.13487
      13 -> 19        -0.11677

 Excited State   9:      Singlet-A      8.9422 eV  138.65 nm  f=0.0030  <S**2>=0.000
      10 -> 14         0.11726
      13 -> 18         0.13823
      13 -> 19         0.66265

 Excited State  10:      Singlet-A      9.0585 eV  136.87 nm  f=0.0283  <S**2>=0.000
       8 -> 15         0.10345
       8 -> 16         0.11983
      11 -> 15        -0.11366
      11 -> 16        -0.13963
      11 -> 17        -0.22722
      12 -> 15         0.37483
      12 -> 16        -0.30844
      12 -> 18         0.30312
      12 -> 21        -0.11418

 Excited State  11:      Singlet-A      9.5422 eV  129.93 nm  f=0.0099  <S**2>=0.000
      13 -> 18         0.31727
      13 -> 20        -0.24913
      13 -> 21         0.55342

 Excited State  12:      Singlet-A      9.6033 eV  129.11 nm  f=0.0635  <S**2>=0.000
       9 -> 15        -0.11368
      10 -> 14        -0.13224
      11 -> 15         0.26767
      11 -> 17         0.11575
      12 -> 15         0.48930
      12 -> 16         0.26404
      12 -> 17         0.17119

 Excited State  13:      Singlet-A      9.7189 eV  127.57 nm  f=0.1882  <S**2>=0.000
       9 -> 16        -0.11165
      11 -> 15        -0.10310
      11 -> 16        -0.36744
      11 -> 17        -0.20919
      12 -> 15        -0.10013
      12 -> 16         0.44922
      12 -> 18         0.17249
      12 -> 19         0.11322

 Excited State  14:      Singlet-A      9.8248 eV  126.19 nm  f=0.0823  <S**2>=0.000
      10 -> 15        -0.17077
      13 -> 20         0.62586
      13 -> 21         0.24034

 Excited State  15:      Singlet-A     10.0099 eV  123.86 nm  f=0.0774  <S**2>=0.000
       8 -> 15         0.14910
       8 -> 16        -0.15167
       9 -> 15         0.13543
       9 -> 16         0.17535
      10 -> 14        -0.16753
      11 -> 15        -0.26404
      11 -> 16         0.27032
      11 -> 19         0.24582
      12 -> 15         0.11061
      12 -> 16         0.16252
      12 -> 17        -0.25459

 The electronic state is 1-A.
 Alpha  occ. eigenvalues --   -1.94692  -1.20485  -0.98491  -0.81654  -0.80196
 Alpha  occ. eigenvalues --   -0.68880  -0.67072  -0.52170  -0.49555  -0.42537
 Alpha  occ. eigenvalues --   -0.41697  -0.38248  -0.27659
 Alpha virt. eigenvalues --    0.13371   0.19096   0.19726   0.26759   0.28484
 Alpha virt. eigenvalues --    0.30363   0.32211   0.34275   0.36620   0.45393
 Alpha virt. eigenvalues --    0.50094

 Mulliken charges:
               1
     1  C   -0.089047
     2  C   -1.919049
     3  O    3.128302
     4  C   -1.923531
     5  C   -0.108317
     6  H    0.153240
     7  H    0.305263
     8  H    0.300173
     9  H    0.152966
 Sum of Mulliken charges =   0.00000

 Dipole moment (field-independent basis, Debye):
    X=             -2.0189    Y=            -10.0820    Z=              0.2553  Tot=             10.2853
 N-N= 1.041223512805D+02 E-N=-1.696638598167D+02  KE=-1.566312911395D+01
 Orbital energies and kinetic energies (alpha):
                                 1                 2
   1         O                -1.946920         -1.420356
   2         O                -1.204854         -1.072890
   3         O                -0.984913         -0.904564
   4         O                -0.816535         -0.625522
   5         O                -0.801964         -0.699330
   6         O                -0.688804         -0.569382
   7         O                -0.670716         -0.577330

 Normal termination of Gaussian 09 at Tue Dec 15 17:10:04 2015.
