 Gaussian 09, Revision D.01,
 Gaussian 09:  ES64L-G09RevD.01 24-Apr-2013

 ------------------------------------------------------------
 #P AM1(Input,print) CIS(Singlets,NStates=15) pop(full) force
 ------------------------------------------------------------

 -----------------
 AM1-Reparam Input
 -----------------
 Symbolic Z-matrix:
 Charge =  0 Multiplicity = 1

                         Standard orientation:
 ---------------------------------------------------------------------
 Center     Atomic      Atomic             Coordinates (Angstroms)
 Number     Number       Type             X           Y           Z
 ---------------------------------------------------------------------
      1          6           0       -0.771177    0.857452   -0.007565
      2          6           0       -1.028867   -0.432706    0.000097
      3          8           0        0.101544   -1.122845   -0.009403
      4          6           0        1.127116   -0.225692    0.001740
      5          6           0        0.584698    0.984843    0.015259
      6          1           0        1.141704    1.894237   -0.041266
      7          1           0        2.137814   -0.626432    0.017541
      8          1           0       -1.978290   -1.078726    0.041361
      9          1           0       -1.584198    1.690297    0.000396
 ---------------------------------------------------------------------

 SCF Done:  E(RAM1) =   2.60746091336     A.U. after   13 cycles

 Excitation energies and oscillator strengths:

 Excited State   1:      Singlet-A      5.2745 eV  235.06 nm  f=0.3326  <S**2>=0.000
      13 -> 14         0.69645
 This state for optimization and/or second-order correction.
 Total Energy, E(CIS) =   2.80129509685
 Copying the excited state density for this state as the 1-particle RhoCI density.

 Excited State   2:      Singlet-A      6.1012 eV  203.21 nm  f=0.0013  <S**2>=0.000
      10 -> 15         0.11219
      13 -> 15         0.67211
      13 -> 18        -0.11224

 Excited State   3:      Singlet-A      6.5655 eV  188.84 nm  f=0.0028  <S**2>=0.000
      10 -> 16        -0.10114
      13 -> 16         0.66586

 Excited State   4:      Singlet-A      6.7664 eV  183.24 nm  f=0.0001  <S**2>=0.000
      12 -> 14         0.69270

 Excited State   5:      Singlet-A      7.2463 eV  171.10 nm  f=0.0044  <S**2>=0.000
      11 -> 14         0.69491

 Excited State   6:      Singlet-A      7.8814 eV  157.31 nm  f=0.0002  <S**2>=0.000
      13 -> 17         0.65619
      13 -> 18        -0.17619
      13 -> 21        -0.11881

 Excited State   7:      Singlet-A      8.6656 eV  143.08 nm  f=0.0986  <S**2>=0.000
      10 -> 14         0.68975

 Excited State   8:      Singlet-A      8.9358 eV  138.75 nm  f=0.0060  <S**2>=0.000
      10 -> 15         0.26382
      13 -> 17         0.18470
      13 -> 18         0.59732
      13 -> 19         0.10818

 Excited State   9:      Singlet-A      9.1457 eV  135.56 nm  f=0.0043  <S**2>=0.000
       9 -> 15        -0.12213
      11 -> 15         0.15377
      11 -> 16         0.21810
      11 -> 17        -0.10427
      11 -> 18        -0.19461
      12 -> 15         0.42714
      12 -> 16        -0.17102
      12 -> 17         0.29194
      12 -> 18        -0.10813

 Excited State  10:      Singlet-A      9.3120 eV  133.14 nm  f=0.2479  <S**2>=0.000
      11 -> 15         0.44236
      11 -> 16         0.17437
      11 -> 18        -0.16198
      12 -> 15        -0.42976
      12 -> 17         0.15784

 Excited State  11:      Singlet-A      9.5449 eV  129.90 nm  f=0.0103  <S**2>=0.000
      10 -> 16         0.30538
      11 -> 16        -0.15545
      12 -> 16        -0.14826
      13 -> 19         0.55730

 Excited State  12:      Singlet-A      9.6489 eV  128.50 nm  f=0.1183  <S**2>=0.000
      10 -> 16         0.10953
      11 -> 15        -0.21810
      11 -> 16         0.35888
      11 -> 19         0.14802
      12 -> 16         0.43960
      13 -> 19         0.21443

 Excited State  13:      Singlet-A      9.9081 eV  125.13 nm  f=0.0019  <S**2>=0.000
       7 -> 15        -0.12164
      10 -> 15         0.61243
      13 -> 15        -0.16301
      13 -> 18        -0.23109

 Excited State  14:      Singlet-A     10.1454 eV  122.21 nm  f=0.0261  <S**2>=0.000
       8 -> 15        -0.18082
       8 -> 16         0.10455
       9 -> 15        -0.15323
      11 -> 15         0.25832
      11 -> 17        -0.22481
      11 -> 19        -0.14411
      12 -> 15         0.20018
      12 -> 16         0.36058
      12 -> 17        -0.19562
      12 -> 18         0.15004

 Excited State  15:      Singlet-A     10.4079 eV  119.13 nm  f=0.0022  <S**2>=0.000
       9 -> 14        -0.10697
      10 -> 16         0.56588
      13 -> 16         0.15554
      13 -> 18         0.13724
      13 -> 19        -0.29139

 The electronic state is 1-A.
 Alpha  occ. eigenvalues --   -1.86203  -1.15456  -0.88277  -0.79717  -0.74767
 Alpha  occ. eigenvalues --   -0.65984  -0.64973  -0.55939  -0.54654  -0.44959
 Alpha  occ. eigenvalues --   -0.43157  -0.42300  -0.30327
 Alpha virt. eigenvalues --    0.09918   0.15100   0.17596   0.24806   0.26764
 Alpha virt. eigenvalues --    0.29813   0.35923   0.41266   0.49752   0.57301
 Alpha virt. eigenvalues --    0.61515

 Mulliken charges:
               1
     1  C   -0.223908
     2  C   -2.000922
     3  O    3.431401
     4  C   -1.991532
     5  C   -0.193134
     6  H    0.201501
     7  H    0.276112
     8  H    0.289765
     9  H    0.210717
 Sum of Mulliken charges =   0.00000

 Dipole moment (field-independent basis, Debye):
    X=              0.4704    Y=            -11.0720    Z=             -0.0880  Tot=             11.0824
 N-N= 1.048663783709D+02 E-N=-1.711773444655D+02  KE=-1.440622260515D+01
 Orbital energies and kinetic energies (alpha):
                                 1                 2
   1         O                -1.862031         -1.281822
   2         O                -1.154562         -0.980997
   3         O                -0.882765         -0.798415
   4         O                -0.797171         -0.523835
   5         O                -0.747668         -0.618534
   6         O                -0.659841         -0.545921
   7         O                -0.649733         -0.512597

 Normal termination of Gaussian 09 at Tue Dec 15 17:07:36 2015.
