 Gaussian 09, Revision D.01,
 Gaussian 09:  ES64L-G09RevD.01 24-Apr-2013

 ------------------------------------------------------------
 #P AM1(Input,print) CIS(Singlets,NStates=15) pop(full) force
 ------------------------------------------------------------

 -----------------
 AM1-Reparam Input
 -----------------
 Symbolic Z-matrix:
 Charge =  0 Multiplicity = 1

                         Standard orientation:
 ---------------------------------------------------------------------
 Center     Atomic      Atomic             Coordinates (Angstroms)
 Number     Number       Type             X           Y           Z
 ---------------------------------------------------------------------
      1          6           0        0.924730    0.802116   -0.001519
      2          6           0        0.978904   -0.505533   -0.017753
      3          8           0       -0.216221   -1.150469    0.005277
      4          6           0       -1.100722   -0.163239    0.001189
      5          6           0       -0.573084    1.091656    0.000874
      6          1           0       -1.070051    1.991082   -0.016060
      7          1           0       -2.123968   -0.465702    0.005121
      8          1           0        1.856634   -1.238558    0.028856
      9          1           0        1.688186    1.566931    0.043121
 ---------------------------------------------------------------------

 SCF Done:  E(RAM1) =   2.86061725854     A.U. after   13 cycles

 Excitation energies and oscillator strengths:

 Excited State   1:      Singlet-A      4.9213 eV  251.93 nm  f=0.3497  <S**2>=0.000
      13 -> 14         0.69696
 This state for optimization and/or second-order correction.
 Total Energy, E(CIS) =   3.04147236209
 Copying the excited state density for this state as the 1-particle RhoCI density.

 Excited State   2:      Singlet-A      5.7390 eV  216.04 nm  f=0.0001  <S**2>=0.000
      13 -> 15         0.63762
      13 -> 16        -0.19722
      13 -> 18         0.19261

 Excited State   3:      Singlet-A      6.0128 eV  206.20 nm  f=0.0021  <S**2>=0.000
      13 -> 15         0.22243
      13 -> 16         0.62502
      13 -> 17         0.20662

 Excited State   4:      Singlet-A      6.3654 eV  194.78 nm  f=0.0002  <S**2>=0.000
      12 -> 14         0.69903

 Excited State   5:      Singlet-A      7.2109 eV  171.94 nm  f=0.0005  <S**2>=0.000
      13 -> 15        -0.12622
      13 -> 16         0.16079
      13 -> 17        -0.24661
      13 -> 18         0.52843
      13 -> 20         0.31656

 Excited State   6:      Singlet-A      7.6628 eV  161.80 nm  f=0.0244  <S**2>=0.000
      10 -> 14         0.13703
      13 -> 16        -0.14423
      13 -> 17         0.59575
      13 -> 18         0.29856

 Excited State   7:      Singlet-A      8.0412 eV  154.19 nm  f=0.0008  <S**2>=0.000
      10 -> 14         0.67627
      13 -> 17        -0.12908

 Excited State   8:      Singlet-A      8.2880 eV  149.59 nm  f=0.0002  <S**2>=0.000
      13 -> 18        -0.23901
      13 -> 19         0.48364
      13 -> 20         0.42866

 Excited State   9:      Singlet-A      8.4628 eV  146.50 nm  f=0.0830  <S**2>=0.000
       8 -> 15        -0.10370
      11 -> 14         0.62497
      12 -> 15         0.25505

 Excited State  10:      Singlet-A      8.7543 eV  141.63 nm  f=0.0075  <S**2>=0.000
      13 -> 17        -0.11129
      13 -> 18         0.17098
      13 -> 19         0.47301
      13 -> 20        -0.44467
      13 -> 21        -0.17515

 Excited State  11:      Singlet-A      8.8810 eV  139.61 nm  f=0.2739  <S**2>=0.000
       8 -> 15        -0.13197
       8 -> 16        -0.10622
      11 -> 14        -0.24590
      12 -> 15         0.50909
      12 -> 16        -0.27633
      12 -> 18         0.17622

 Excited State  12:      Singlet-A      9.1283 eV  135.82 nm  f=0.0755  <S**2>=0.000
      13 -> 19         0.14965
      13 -> 20        -0.10112
      13 -> 21         0.67064

 Excited State  13:      Singlet-A      9.4265 eV  131.53 nm  f=0.0679  <S**2>=0.000
       8 -> 16         0.10858
      11 -> 14        -0.14476
      12 -> 15         0.32791
      12 -> 16         0.50209
      12 -> 17         0.15965
      12 -> 18        -0.12457

 Excited State  14:      Singlet-A      9.6579 eV  128.38 nm  f=0.0039  <S**2>=0.000
       7 -> 15        -0.14059
      11 -> 15         0.65103
      11 -> 16         0.12555
      13 -> 15        -0.12391

 Excited State  15:      Singlet-A      9.7391 eV  127.31 nm  f=0.0004  <S**2>=0.000
       9 -> 14         0.69002

 The electronic state is 1-A.
 Alpha  occ. eigenvalues --   -1.72560  -1.10551  -0.92174  -0.79750  -0.73967
 Alpha  occ. eigenvalues --   -0.66108  -0.63516  -0.51788  -0.48697  -0.44495
 Alpha  occ. eigenvalues --   -0.42892  -0.38768  -0.26319
 Alpha virt. eigenvalues --    0.11371   0.16640   0.18252   0.26424   0.27338
 Alpha virt. eigenvalues --    0.29369   0.31058   0.31190   0.38267   0.47812
 Alpha virt. eigenvalues --    0.50761

 Mulliken charges:
               1
     1  C   -0.105295
     2  C   -1.890238
     3  O    3.186271
     4  C   -1.934561
     5  C   -0.183175
     6  H    0.173290
     7  H    0.299123
     8  H    0.286334
     9  H    0.168251
 Sum of Mulliken charges =   0.00000

 Dipole moment (field-independent basis, Debye):
    X=             -1.7434    Y=            -10.8795    Z=              0.2888  Tot=             11.0221
 N-N= 1.039670520722D+02 E-N=-1.692157677733D+02  KE=-1.476539704086D+01
 Orbital energies and kinetic energies (alpha):
                                 1                 2
   1         O                -1.725596         -1.223194
   2         O                -1.105510         -0.986956
   3         O                -0.921744         -0.844103
   4         O                -0.797504         -0.603430
   5         O                -0.739670         -0.674593
   6         O                -0.661083         -0.556498
   7         O                -0.635160         -0.519037

 Normal termination of Gaussian 09 at Tue Dec 15 17:06:00 2015.
