 Gaussian 09, Revision D.01,
 Gaussian 09:  ES64L-G09RevD.01 24-Apr-2013

 ------------------------------------------------------------
 #P AM1(Input,print) CIS(Singlets,NStates=15) pop(full) force
 ------------------------------------------------------------

 -----------------
 AM1-Reparam Input
 -----------------
 Symbolic Z-matrix:
 Charge =  0 Multiplicity = 1

                         Standard orientation:
 ---------------------------------------------------------------------
 Center     Atomic      Atomic             Coordinates (Angstroms)
 Number     Number       Type             X           Y           Z
 ---------------------------------------------------------------------
      1          6           0        0.701226    0.967271    0.040553
      2          6           0        1.125392   -0.316932   -0.018002
      3          8           0        0.007052   -1.142557   -0.010788
      4          6           0       -1.064523   -0.340344    0.037152
      5          6           0       -0.742517    0.901630   -0.041313
      6          1           0       -1.448645    1.775495   -0.029997
      7          1           0       -2.014939   -0.928212    0.013211
      8          1           0        2.024224   -0.811181   -0.003780
      9          1           0        1.265480    1.834602   -0.003475
 ---------------------------------------------------------------------

 SCF Done:  E(RAM1) =   2.09406493596     A.U. after   14 cycles

 Excitation energies and oscillator strengths:

 Excited State   1:      Singlet-A      5.1973 eV  238.56 nm  f=0.3476  <S**2>=0.000
      13 -> 14         0.69552
 This state for optimization and/or second-order correction.
 Total Energy, E(CIS) =   2.28506161531
 Copying the excited state density for this state as the 1-particle RhoCI density.

 Excited State   2:      Singlet-A      6.2921 eV  197.05 nm  f=0.0021  <S**2>=0.000
      13 -> 15         0.65747
      13 -> 17         0.18036
      13 -> 18         0.14068

 Excited State   3:      Singlet-A      6.6346 eV  186.88 nm  f=0.0003  <S**2>=0.000
      12 -> 14         0.69631

 Excited State   4:      Singlet-A      6.8696 eV  180.48 nm  f=0.0078  <S**2>=0.000
      13 -> 16         0.63407
      13 -> 18        -0.25487

 Excited State   5:      Singlet-A      7.6863 eV  161.31 nm  f=0.0086  <S**2>=0.000
      11 -> 14        -0.30341
      13 -> 15        -0.13663
      13 -> 16         0.14786
      13 -> 17         0.21619
      13 -> 18         0.39728
      13 -> 19         0.31113
      13 -> 20         0.22359

 Excited State   6:      Singlet-A      7.7166 eV  160.67 nm  f=0.0057  <S**2>=0.000
      11 -> 14         0.62639
      13 -> 16         0.11027
      13 -> 18         0.20126
      13 -> 19         0.17561

 Excited State   7:      Singlet-A      8.2642 eV  150.03 nm  f=0.0146  <S**2>=0.000
      13 -> 15        -0.14688
      13 -> 17         0.60989
      13 -> 19        -0.27487

 Excited State   8:      Singlet-A      8.8216 eV  140.55 nm  f=0.0932  <S**2>=0.000
      10 -> 14         0.67403
      12 -> 15         0.12590

 Excited State   9:      Singlet-A      8.9583 eV  138.40 nm  f=0.0042  <S**2>=0.000
      10 -> 16         0.13477
      13 -> 16        -0.17638
      13 -> 17         0.16074
      13 -> 18        -0.40123
      13 -> 19         0.48895
      13 -> 20         0.10001

 Excited State  10:      Singlet-A      9.2772 eV  133.64 nm  f=0.0760  <S**2>=0.000
      10 -> 14        -0.10272
      11 -> 17        -0.16486
      12 -> 15         0.42970
      12 -> 16        -0.20761
      12 -> 18         0.31155
      12 -> 19         0.14494
      13 -> 20         0.20286

 Excited State  11:      Singlet-A      9.4297 eV  131.48 nm  f=0.0358  <S**2>=0.000
      12 -> 15        -0.17365
      13 -> 18        -0.17745
      13 -> 19        -0.20499
      13 -> 20         0.57601
      13 -> 21         0.19308

 Excited State  12:      Singlet-A      9.6949 eV  127.89 nm  f=0.0682  <S**2>=0.000
      11 -> 15         0.29661
      11 -> 17         0.20062
      12 -> 15         0.42372
      12 -> 16         0.18266
      12 -> 17         0.12729
      12 -> 18        -0.19260
      12 -> 19        -0.17086
      13 -> 21         0.14003

 Excited State  13:      Singlet-A      9.8750 eV  125.55 nm  f=0.0559  <S**2>=0.000
      13 -> 20        -0.20103
      13 -> 21         0.64458

 Excited State  14:      Singlet-A     10.2519 eV  120.94 nm  f=0.1385  <S**2>=0.000
      10 -> 15         0.25924
      11 -> 15        -0.11112
      11 -> 16        -0.28170
      11 -> 17        -0.12084
      11 -> 18         0.11414
      12 -> 16         0.46958
      12 -> 19         0.19586

 Excited State  15:      Singlet-A     10.2947 eV  120.44 nm  f=0.0135  <S**2>=0.000
       7 -> 15        -0.10816
      10 -> 15         0.49677
      11 -> 15        -0.13445
      11 -> 16         0.19251
      11 -> 19         0.11102
      12 -> 16        -0.18029
      12 -> 17        -0.18038
      12 -> 18        -0.11826
      12 -> 19        -0.14588

 The electronic state is 1-A.
 Alpha  occ. eigenvalues --   -1.95032  -1.20828  -0.97152  -0.82709  -0.79161
 Alpha  occ. eigenvalues --   -0.68908  -0.65796  -0.55073  -0.53877  -0.44623
 Alpha  occ. eigenvalues --   -0.43690  -0.40486  -0.28458
 Alpha virt. eigenvalues --    0.11070   0.17188   0.21105   0.25979   0.27445
 Alpha virt. eigenvalues --    0.28978   0.30417   0.31904   0.35116   0.44073
 Alpha virt. eigenvalues --    0.48378

 Mulliken charges:
               1
     1  C   -0.205798
     2  C   -1.985629
     3  O    3.180754
     4  C   -1.968834
     5  C   -0.252060
     6  H    0.262763
     7  H    0.366374
     8  H    0.350780
     9  H    0.251651
 Sum of Mulliken charges =   0.00000

 Dipole moment (field-independent basis, Debye):
    X=             -0.8101    Y=            -10.5739    Z=             -0.3138  Tot=             10.6095
 N-N= 1.048078417299D+02 E-N=-1.703810166215D+02  KE=-1.553066619176D+01
 Orbital energies and kinetic energies (alpha):
                                 1                 2
   1         O                -1.950323         -1.396017
   2         O                -1.208281         -1.068523
   3         O                -0.971525         -0.879880
   4         O                -0.827085         -0.604419
   5         O                -0.791611         -0.680966
   6         O                -0.689077         -0.566476
   7         O                -0.657957         -0.526714

 Normal termination of Gaussian 09 at Tue Dec 15 17:07:13 2015.
