 Gaussian 09, Revision D.01,
 Gaussian 09:  ES64L-G09RevD.01 24-Apr-2013

 ------------------------------------------------------------
 #P AM1(Input,print) CIS(Singlets,NStates=15) pop(full) force
 ------------------------------------------------------------

 -----------------
 AM1-Reparam Input
 -----------------
 Symbolic Z-matrix:
 Charge =  0 Multiplicity = 1

                         Standard orientation:
 ---------------------------------------------------------------------
 Center     Atomic      Atomic             Coordinates (Angstroms)
 Number     Number       Type             X           Y           Z
 ---------------------------------------------------------------------
      1          6           0       -0.600845    1.011082   -0.011114
      2          6           0       -1.134477   -0.269980   -0.037861
      3          8           0       -0.093479   -1.155839    0.034801
      4          6           0        1.096304   -0.450574   -0.034439
      5          6           0        0.759577    0.910126    0.013513
      6          1           0        1.468851    1.740545    0.047492
      7          1           0        1.958711   -0.939815   -0.005863
      8          1           0       -2.157857   -0.646201    0.045303
      9          1           0       -1.245235    1.888258    0.054067
 ---------------------------------------------------------------------

 SCF Done:  E(RAM1) =   2.51071687043     A.U. after   13 cycles

 Excitation energies and oscillator strengths:

 Excited State   1:      Singlet-A      5.6744 eV  218.50 nm  f=0.3153  <S**2>=0.000
      13 -> 14         0.69052
 This state for optimization and/or second-order correction.
 Total Energy, E(CIS) =   2.71924552839
 Copying the excited state density for this state as the 1-particle RhoCI density.

 Excited State   2:      Singlet-A      6.7845 eV  182.75 nm  f=0.0059  <S**2>=0.000
      13 -> 15         0.63074
      13 -> 16         0.20315
      13 -> 17         0.18620

 Excited State   3:      Singlet-A      7.2180 eV  171.77 nm  f=0.0022  <S**2>=0.000
      13 -> 15        -0.18265
      13 -> 16         0.62580
      13 -> 19         0.17270

 Excited State   4:      Singlet-A      7.2396 eV  171.26 nm  f=0.0006  <S**2>=0.000
       9 -> 14         0.14176
      12 -> 14         0.68314

 Excited State   5:      Singlet-A      7.7104 eV  160.80 nm  f=0.0040  <S**2>=0.000
      10 -> 14        -0.47105
      11 -> 14         0.51698

 Excited State   6:      Singlet-A      8.3852 eV  147.86 nm  f=0.0003  <S**2>=0.000
      13 -> 17         0.16532
      13 -> 18         0.56465
      13 -> 21         0.35340

 Excited State   7:      Singlet-A      8.6749 eV  142.92 nm  f=0.0074  <S**2>=0.000
      10 -> 16         0.11601
      11 -> 16         0.11562
      13 -> 15        -0.13272
      13 -> 17         0.62207
      13 -> 18        -0.16655
      13 -> 19        -0.10287

 Excited State   8:      Singlet-A      8.7710 eV  141.36 nm  f=0.0984  <S**2>=0.000
      10 -> 14         0.51455
      11 -> 14         0.46687

 Excited State   9:      Singlet-A      9.3838 eV  132.13 nm  f=0.0018  <S**2>=0.000
      10 -> 16         0.10407
      11 -> 15         0.15814
      11 -> 16         0.13940
      13 -> 18         0.11462
      13 -> 19         0.58901
      13 -> 21        -0.18745

 Excited State  10:      Singlet-A      9.4593 eV  131.07 nm  f=0.1025  <S**2>=0.000
       9 -> 15         0.11120
       9 -> 16        -0.12681
      10 -> 15         0.27542
      10 -> 16         0.17959
      10 -> 17         0.19182
      11 -> 15        -0.27613
      11 -> 16        -0.15698
      11 -> 17        -0.21426
      12 -> 16        -0.13209
      12 -> 18         0.28491
      13 -> 14        -0.11787

 Excited State  11:      Singlet-A      9.7906 eV  126.64 nm  f=0.0001  <S**2>=0.000
       9 -> 14         0.13902
      13 -> 18        -0.35167
      13 -> 19         0.22341
      13 -> 21         0.53573

 Excited State  12:      Singlet-A      9.8598 eV  125.75 nm  f=0.0393  <S**2>=0.000
      10 -> 16         0.10627
      11 -> 15         0.26209
      11 -> 16        -0.11274
      12 -> 15         0.56838
      12 -> 17         0.14895

 Excited State  13:      Singlet-A     10.0517 eV  123.35 nm  f=0.0044  <S**2>=0.000
      10 -> 15         0.37610
      11 -> 15         0.40153
      11 -> 16         0.13153
      12 -> 15        -0.12743
      12 -> 16        -0.18747
      13 -> 15        -0.14669
      13 -> 16         0.13310
      13 -> 19        -0.13315
      13 -> 21         0.15587

 Excited State  14:      Singlet-A     10.1309 eV  122.38 nm  f=0.1137  <S**2>=0.000
      10 -> 15         0.12344
      11 -> 16        -0.23346
      12 -> 16         0.30933
      13 -> 20         0.54827

 Excited State  15:      Singlet-A     10.1799 eV  121.79 nm  f=0.1204  <S**2>=0.000
      10 -> 15         0.13221
      10 -> 16         0.27235
      12 -> 16         0.44110
      12 -> 19         0.11646
      13 -> 20        -0.36169

 The electronic state is 1-A.
 Alpha  occ. eigenvalues --   -1.72687  -1.16272  -0.94999  -0.80235  -0.77174
 Alpha  occ. eigenvalues --   -0.67961  -0.63729  -0.56059  -0.50505  -0.43739
 Alpha  occ. eigenvalues --   -0.43217  -0.42055  -0.30826
 Alpha virt. eigenvalues --    0.11468   0.17806   0.19998   0.24736   0.26677
 Alpha virt. eigenvalues --    0.28569   0.30299   0.31880   0.38886   0.47790
 Alpha virt. eigenvalues --    0.52933

 Mulliken charges:
               1
     1  C   -0.057260
     2  C   -1.958687
     3  O    3.242637
     4  C   -1.952994
     5  C   -0.044960
     6  H    0.123214
     7  H    0.254924
     8  H    0.268555
     9  H    0.124571
 Sum of Mulliken charges =   0.00000

 Dipole moment (field-independent basis, Debye):
    X=             -1.1893    Y=             -9.9770    Z=              1.2417  Tot=             10.1241
 N-N= 1.035334192376D+02 E-N=-1.682277030784D+02  KE=-1.502854380092D+01
 Orbital energies and kinetic energies (alpha):
                                 1                 2
   1         O                -1.726872         -1.220839
   2         O                -1.162718         -1.013463
   3         O                -0.949988         -0.864730
   4         O                -0.802352         -0.614524
   5         O                -0.771740         -0.685023
   6         O                -0.679606         -0.586030
   7         O                -0.637285         -0.522050

 Normal termination of Gaussian 09 at Tue Dec 15 17:06:16 2015.
