 Gaussian 09, Revision D.01,
 Gaussian 09:  ES64L-G09RevD.01 24-Apr-2013

 ------------------------------------------------------------
 #P AM1(Input,print) CIS(Singlets,NStates=15) pop(full) force
 ------------------------------------------------------------

 -----------------
 AM1-Reparam Input
 -----------------
 Symbolic Z-matrix:
 Charge =  0 Multiplicity = 1

                         Standard orientation:
 ---------------------------------------------------------------------
 Center     Atomic      Atomic             Coordinates (Angstroms)
 Number     Number       Type             X           Y           Z
 ---------------------------------------------------------------------
      1          6           0       -0.257164    1.151475   -0.027852
      2          6           0        0.996723    0.546250   -0.011402
      3          8           0        0.909943   -0.750057    0.005757
      4          6           0       -0.485246   -1.033249   -0.014089
      5          6           0       -1.214787    0.121354    0.032600
      6          1           0       -2.271530    0.189291   -0.054279
      7          1           0       -0.693412   -2.123085    0.015739
      8          1           0        1.950343    0.986965    0.051470
      9          1           0       -0.502104    2.232304    0.065469
 ---------------------------------------------------------------------

 SCF Done:  E(RAM1) =   2.10567460223     A.U. after   13 cycles

 Excitation energies and oscillator strengths:

 Excited State   1:      Singlet-A      5.6544 eV  219.27 nm  f=0.3394  <S**2>=0.000
      13 -> 14         0.69355
 This state for optimization and/or second-order correction.
 Total Energy, E(CIS) =   2.31346830719
 Copying the excited state density for this state as the 1-particle RhoCI density.

 Excited State   2:      Singlet-A      6.5349 eV  189.73 nm  f=0.0057  <S**2>=0.000
      11 -> 15         0.10764
      13 -> 15         0.66780
      13 -> 17        -0.13773

 Excited State   3:      Singlet-A      6.8995 eV  179.70 nm  f=0.0008  <S**2>=0.000
      11 -> 16        -0.13921
      13 -> 16         0.66366

 Excited State   4:      Singlet-A      7.3155 eV  169.48 nm  f=0.0005  <S**2>=0.000
      12 -> 14         0.69904

 Excited State   5:      Singlet-A      8.1183 eV  152.72 nm  f=0.0088  <S**2>=0.000
      10 -> 14         0.62134
      11 -> 14        -0.25843
      13 -> 17        -0.17762

 Excited State   6:      Singlet-A      8.3232 eV  148.96 nm  f=0.0012  <S**2>=0.000
      10 -> 14         0.15514
      11 -> 16        -0.10647
      13 -> 17         0.40725
      13 -> 18         0.42642
      13 -> 20        -0.14839
      13 -> 22        -0.26669

 Excited State   7:      Singlet-A      8.5829 eV  144.46 nm  f=0.0072  <S**2>=0.000
      11 -> 15         0.12521
      13 -> 15         0.12868
      13 -> 17         0.50494
      13 -> 18        -0.36255
      13 -> 20         0.11587
      13 -> 22         0.20471

 Excited State   8:      Singlet-A      8.9870 eV  137.96 nm  f=0.0821  <S**2>=0.000
      10 -> 14         0.26215
      11 -> 14         0.61113
      12 -> 16        -0.11549
      13 -> 21        -0.11672

 Excited State   9:      Singlet-A      9.3075 eV  133.21 nm  f=0.0029  <S**2>=0.000
      13 -> 18         0.22569
      13 -> 19         0.59001
      13 -> 20         0.26438

 Excited State  10:      Singlet-A      9.5951 eV  129.22 nm  f=0.0216  <S**2>=0.000
      13 -> 18         0.31102
      13 -> 19        -0.29017
      13 -> 20         0.31456
      13 -> 22         0.42881

 Excited State  11:      Singlet-A      9.7424 eV  127.26 nm  f=0.0309  <S**2>=0.000
       9 -> 15        -0.12347
      10 -> 15        -0.10510
      10 -> 17         0.16314
      12 -> 15         0.44568
      12 -> 16        -0.30429
      12 -> 18         0.23578
      13 -> 22        -0.13053

 Excited State  12:      Singlet-A      9.9107 eV  125.10 nm  f=0.0407  <S**2>=0.000
      10 -> 15         0.35396
      10 -> 17        -0.10989
      11 -> 15         0.29374
      12 -> 15         0.36660
      12 -> 17        -0.13274
      13 -> 20        -0.17939
      13 -> 22         0.15139

 Excited State  13:      Singlet-A      9.9473 eV  124.64 nm  f=0.0258  <S**2>=0.000
       9 -> 15        -0.10186
      10 -> 17         0.12906
      11 -> 15         0.47874
      11 -> 17        -0.10340
      12 -> 15        -0.25553
      12 -> 16        -0.20334
      12 -> 17         0.14989
      12 -> 18         0.10448
      13 -> 20        -0.11484

 Excited State  14:      Singlet-A     10.1239 eV  122.47 nm  f=0.0638  <S**2>=0.000
      10 -> 15         0.14494
      11 -> 15         0.20581
      11 -> 16         0.11962
      13 -> 19        -0.19444
      13 -> 20         0.45722
      13 -> 22        -0.37856

 Excited State  15:      Singlet-A     10.2874 eV  120.52 nm  f=0.2548  <S**2>=0.000
       8 -> 16         0.12301
       9 -> 15        -0.10431
       9 -> 16         0.14744
      10 -> 15        -0.16779
      10 -> 16        -0.18217
      10 -> 17         0.16019
      11 -> 14         0.10155
      11 -> 16         0.10923
      12 -> 15         0.10762
      12 -> 16         0.46839
      12 -> 17         0.13039
      12 -> 18         0.19354

 The electronic state is 1-A.
 Alpha  occ. eigenvalues --   -1.93786  -1.19095  -0.92081  -0.80530  -0.78412
 Alpha  occ. eigenvalues --   -0.69129  -0.65738  -0.55125  -0.53139  -0.44296
 Alpha  occ. eigenvalues --   -0.43876  -0.41620  -0.29517
 Alpha virt. eigenvalues --    0.12251   0.17257   0.19082   0.25815   0.27412
 Alpha virt. eigenvalues --    0.29885   0.31043   0.32361   0.33057   0.40677
 Alpha virt. eigenvalues --    0.44602

 Mulliken charges:
               1
     1  C   -0.202426
     2  C   -1.911562
     3  O    3.203723
     4  C   -1.864928
     5  C   -0.060515
     6  H    0.150504
     7  H    0.245945
     8  H    0.278621
     9  H    0.160638
 Sum of Mulliken charges =   0.00000

 Dipole moment (field-independent basis, Debye):
    X=              8.4850    Y=             -6.7543    Z=              0.4628  Tot=             10.8549
 N-N= 1.039498026455D+02 E-N=-1.690431737765D+02  KE=-1.531818398014D+01
 Orbital energies and kinetic energies (alpha):
                                 1                 2
   1         O                -1.937858         -1.361359
   2         O                -1.190952         -1.057711
   3         O                -0.920812         -0.867342
   4         O                -0.805298         -0.575333
   5         O                -0.784125         -0.682248
   6         O                -0.691291         -0.586108
   7         O                -0.657384         -0.526082

 Normal termination of Gaussian 09 at Tue Dec 15 17:08:45 2015.
