 Gaussian 09, Revision D.01,
 Gaussian 09:  ES64L-G09RevD.01 24-Apr-2013

 ------------------------------------------------------------
 #P AM1(Input,print) CIS(Singlets,NStates=15) pop(full) force
 ------------------------------------------------------------

 -----------------
 AM1-Reparam Input
 -----------------
 Symbolic Z-matrix:
 Charge =  0 Multiplicity = 1

                         Standard orientation:
 ---------------------------------------------------------------------
 Center     Atomic      Atomic             Coordinates (Angstroms)
 Number     Number       Type             X           Y           Z
 ---------------------------------------------------------------------
      1          6           0        0.406120    1.091959    0.018226
      2          6           0        1.107284   -0.035841   -0.014882
      3          8           0        0.368895   -1.105081    0.022608
      4          6           0       -1.010431   -0.604028   -0.009463
      5          6           0       -0.913724    0.696158   -0.028902
      6          1           0       -1.827221    1.383583    0.078202
      7          1           0       -1.730922   -1.319018   -0.010736
      8          1           0        2.231231   -0.249486   -0.051530
      9          1           0        0.840253    2.136077    0.013329
 ---------------------------------------------------------------------

 SCF Done:  E(RAM1) =   1.12454942556     A.U. after   14 cycles

 Excitation energies and oscillator strengths:

 Excited State   1:      Singlet-A      5.5775 eV  222.29 nm  f=0.1734  <S**2>=0.000
      12 -> 16         0.13392
      13 -> 14         0.67321
 This state for optimization and/or second-order correction.
 Total Energy, E(CIS) =   1.32951886511
 Copying the excited state density for this state as the 1-particle RhoCI density.

 Excited State   2:      Singlet-A      5.9881 eV  207.05 nm  f=0.0079  <S**2>=0.000
      13 -> 15         0.65942
      13 -> 17         0.11407
      13 -> 18        -0.10207
      13 -> 19         0.10699

 Excited State   3:      Singlet-A      6.6819 eV  185.55 nm  f=0.0462  <S**2>=0.000
      12 -> 14        -0.25483
      13 -> 16         0.62843

 Excited State   4:      Singlet-A      7.1062 eV  174.47 nm  f=0.0014  <S**2>=0.000
      13 -> 17         0.65331
      13 -> 18         0.10844
      13 -> 21         0.12072

 Excited State   5:      Singlet-A      7.2891 eV  170.09 nm  f=0.0033  <S**2>=0.000
       9 -> 14        -0.11853
      11 -> 14         0.60252
      12 -> 14         0.30374

 Excited State   6:      Singlet-A      7.8411 eV  158.12 nm  f=0.0138  <S**2>=0.000
      10 -> 14         0.60379
      11 -> 14        -0.16948
      11 -> 16         0.14022
      12 -> 14         0.18887

 Excited State   7:      Singlet-A      8.0648 eV  153.73 nm  f=0.0123  <S**2>=0.000
      12 -> 14        -0.19096
      12 -> 15         0.23450
      13 -> 18         0.46853
      13 -> 19         0.14872
      13 -> 20        -0.33061
      13 -> 24         0.12316

 Excited State   8:      Singlet-A      8.1123 eV  152.83 nm  f=0.0969  <S**2>=0.000
      10 -> 14        -0.19534
      11 -> 14        -0.21177
      11 -> 15        -0.12085
      11 -> 18         0.10487
      12 -> 14         0.45654
      12 -> 15        -0.11370
      13 -> 16         0.17064
      13 -> 18         0.27564

 Excited State   9:      Singlet-A      8.2289 eV  150.67 nm  f=0.0027  <S**2>=0.000
      10 -> 14         0.13651
      13 -> 17        -0.13812
      13 -> 18         0.23587
      13 -> 19         0.17794
      13 -> 20         0.56036
      13 -> 21         0.12906

 Excited State  10:      Singlet-A      8.2930 eV  149.50 nm  f=0.0274  <S**2>=0.000
       9 -> 16         0.18460
      10 -> 14        -0.23272
      10 -> 15        -0.10183
      10 -> 16        -0.19323
      11 -> 15         0.11264
      11 -> 16         0.44930
      12 -> 15         0.15674
      12 -> 16         0.29032

 Excited State  11:      Singlet-A      8.4364 eV  146.96 nm  f=0.0199  <S**2>=0.000
      11 -> 15        -0.27844
      12 -> 15         0.53736
      13 -> 19        -0.19352
      13 -> 20         0.10818

 Excited State  12:      Singlet-A      8.7510 eV  141.68 nm  f=0.0058  <S**2>=0.000
      12 -> 17         0.21401
      13 -> 15        -0.13148
      13 -> 18        -0.23783
      13 -> 19         0.56276
      13 -> 21        -0.15007

 Excited State  13:      Singlet-A      8.8242 eV  140.50 nm  f=0.1757  <S**2>=0.000
       9 -> 15         0.21955
      11 -> 16        -0.31213
      12 -> 16         0.50852
      13 -> 14        -0.13293

 Excited State  14:      Singlet-A      9.0809 eV  136.53 nm  f=0.0527  <S**2>=0.000
       9 -> 15        -0.16177
      10 -> 15         0.47303
      10 -> 16        -0.11516
      10 -> 19         0.10722
      11 -> 15        -0.34518
      12 -> 16         0.17040

 Excited State  15:      Singlet-A      9.2744 eV  133.68 nm  f=0.0960  <S**2>=0.000
       9 -> 15        -0.12233
      10 -> 15         0.17200
      10 -> 17         0.25900
      10 -> 19         0.16032
      10 -> 20        -0.14923
      11 -> 15         0.25699
      11 -> 16        -0.17126
      11 -> 18        -0.24222
      12 -> 14         0.14494
      12 -> 15         0.12484
      12 -> 16         0.16897
      12 -> 17         0.17483

 The electronic state is 1-A.
 Alpha  occ. eigenvalues --   -1.82539  -1.21399  -0.98974  -0.86573  -0.81089
 Alpha  occ. eigenvalues --   -0.73284  -0.72305  -0.60377  -0.55645  -0.50306
 Alpha  occ. eigenvalues --   -0.48327  -0.47252  -0.37435
 Alpha virt. eigenvalues --    0.05032   0.08017   0.09268   0.13612   0.17730
 Alpha virt. eigenvalues --    0.19070   0.19258   0.22870   0.26495   0.27801
 Alpha virt. eigenvalues --    0.28679

 Mulliken charges:
               1
     1  C   -0.242561
     2  C   -1.216592
     3  O    2.110433
     4  C   -1.218686
     5  C   -0.066905
     6  H    0.118670
     7  H    0.168400
     8  H    0.220664
     9  H    0.126578
 Sum of Mulliken charges =   0.00000

 Dipole moment (field-independent basis, Debye):
    X=              3.1059    Y=             -6.8584    Z=              0.2722  Tot=              7.5339
 N-N= 1.046625344571D+02 E-N=-1.717811984355D+02  KE=-1.498462779217D+01
 Orbital energies and kinetic energies (alpha):
                                 1                 2
   1         O                -1.825394         -1.244095
   2         O                -1.213987         -0.983257
   3         O                -0.989740         -0.836007
   4         O                -0.865734         -0.603736
   5         O                -0.810894         -0.675788
   6         O                -0.732836         -0.580326
   7         O                -0.723053         -0.524530

 Normal termination of Gaussian 09 at Tue Dec 15 17:05:38 2015.
