 Gaussian 09, Revision D.01,
 Gaussian 09:  ES64L-G09RevD.01 24-Apr-2013

 -------------------------------------------------------
 #P B3LYP/3-21G CIS(Singlets,NStates=15) pop(full) force
 -------------------------------------------------------

 --------
 FuranDFT
 --------
 Symbolic Z-matrix:
 Charge =  0 Multiplicity = 1

                         Standard orientation:
 ---------------------------------------------------------------------
 Center     Atomic      Atomic             Coordinates (Angstroms)
 Number     Number       Type             X           Y           Z
 ---------------------------------------------------------------------
      1          6           0       -0.604638    1.068931   -0.015413
      2          6           0       -1.152340   -0.264023    0.032375
      3          8           0       -0.149541   -1.118586   -0.035039
      4          6           0        1.069541   -0.492961    0.036707
      5          6           0        0.853211    0.849429   -0.018215
      6          1           0        1.528250    1.653489    0.034645
      7          1           0        1.939498   -1.071980    0.000474
      8          1           0       -2.163899   -0.586992    0.032373
      9          1           0       -1.102162    1.985913    0.000107
 ---------------------------------------------------------------------

 SCF Done:  E(RB3LYP) =  -228.737747622     A.U. after   15 cycles

 Excitation energies and oscillator strengths:

 Excited State   1:      Singlet-A      6.8419 eV  181.21 nm  f=0.0170  <S**2>=0.000
      17 -> 19         0.47414
      18 -> 19         0.21372
      18 -> 20        -0.46742
 This state for optimization and/or second-order correction.
 Total Energy, E(CIS) =  -228.486312415
 Copying the excited state density for this state as the 1-particle RhoCI density.

 Excited State   2:      Singlet-A      7.2000 eV  172.20 nm  f=0.2174  <S**2>=0.000
      17 -> 19        -0.19358
      18 -> 19         0.64519
      18 -> 20         0.11561

 Excited State   3:      Singlet-A      8.3517 eV  148.45 nm  f=0.0123  <S**2>=0.000
      16 -> 19         0.69026

 Excited State   4:      Singlet-A      8.8627 eV  139.89 nm  f=0.0024  <S**2>=0.000
      18 -> 21         0.57463
      18 -> 22        -0.39439

 Excited State   5:      Singlet-A      8.9333 eV  138.79 nm  f=0.2591  <S**2>=0.000
      16 -> 19        -0.11165
      17 -> 19         0.27343
      17 -> 20         0.49464
      18 -> 20         0.32460

 Excited State   6:      Singlet-A      9.1092 eV  136.11 nm  f=0.0077  <S**2>=0.000
      18 -> 21         0.38215
      18 -> 22         0.57308

 Excited State   7:      Singlet-A      9.4705 eV  130.92 nm  f=0.4161  <S**2>=0.000
      16 -> 20         0.11365
      17 -> 19        -0.33723
      17 -> 20         0.43660
      18 -> 20        -0.33528

 Excited State   8:      Singlet-A      9.6576 eV  128.38 nm  f=0.0031  <S**2>=0.000
      15 -> 19         0.64395
      16 -> 20        -0.19956
      18 -> 23         0.17106

 Excited State   9:      Singlet-A      9.8173 eV  126.29 nm  f=0.0064  <S**2>=0.000
      14 -> 19        -0.14581
      16 -> 20         0.48196
      17 -> 22        -0.12806
      18 -> 23         0.44332

 Excited State  10:      Singlet-A      9.9169 eV  125.02 nm  f=0.0088  <S**2>=0.000
      14 -> 19         0.11623
      15 -> 19        -0.26455
      16 -> 20        -0.37210
      17 -> 21         0.13192
      17 -> 22        -0.21954
      18 -> 23         0.42619

 Excited State  11:      Singlet-A     10.0181 eV  123.76 nm  f=0.0018  <S**2>=0.000
      16 -> 20         0.12538
      17 -> 21         0.53269
      17 -> 22        -0.38260
      18 -> 23        -0.18967

 Excited State  12:      Singlet-A     10.2473 eV  120.99 nm  f=0.0087  <S**2>=0.000
      17 -> 21         0.42482
      17 -> 22         0.51539
      18 -> 23         0.17991

 Excited State  13:      Singlet-A     10.5225 eV  117.83 nm  f=0.0005  <S**2>=0.000
      14 -> 19         0.28605
      18 -> 24         0.59399
      18 -> 25        -0.17018

 Excited State  14:      Singlet-A     10.5664 eV  117.34 nm  f=0.0003  <S**2>=0.000
      14 -> 19         0.60109
      16 -> 20         0.18210
      18 -> 24        -0.27735

 Excited State  15:      Singlet-A     10.6568 eV  116.34 nm  f=0.0039  <S**2>=0.000
      18 -> 24         0.19731
      18 -> 25         0.66310

 The electronic state is 1-A.
 Alpha  occ. eigenvalues --  -19.11606 -10.18300 -10.17467 -10.12650 -10.12511
 Alpha  occ. eigenvalues --   -1.13540  -0.78883  -0.75232  -0.60248  -0.57638
 Alpha  occ. eigenvalues --   -0.54372  -0.46900  -0.45190  -0.42231  -0.39232
 Alpha  occ. eigenvalues --   -0.34918  -0.26993  -0.22708
 Alpha virt. eigenvalues --    0.01834   0.06787   0.14427   0.15038   0.18062
 Alpha virt. eigenvalues --    0.19951   0.21138   0.23126   0.34697   0.39601
 Alpha virt. eigenvalues --    0.46389   0.68319   0.69858   0.70073   0.74122

 Mulliken charges:
               1
     1  C   -0.264694
     2  C    0.117442
     3  O   -0.502456
     4  C    0.086113
     5  C   -0.254831
     6  H    0.189631
     7  H    0.222268
     8  H    0.222850
     9  H    0.183678
 Sum of Mulliken charges =   0.00000

 Dipole moment (field-independent basis, Debye):
    X=              0.0715    Y=              0.5390    Z=              0.0871  Tot=              0.5506
 Quadrupole moment (field-independent basis, Debye-Ang):
   XX=            -23.5101   YY=            -27.8309   ZZ=            -31.9110
   XY=             -0.4344   XZ=             -0.0440   YZ=              0.0413

 Normal termination of Gaussian 09 at Tue Dec 15 16:18:07 2015.
