 Gaussian 09, Revision D.01,
 Gaussian 09:  ES64L-G09RevD.01 24-Apr-2013

 ------------------------------------------------------------
 #P AM1(Input,print) CIS(Singlets,NStates=15) pop(full) force
 ------------------------------------------------------------

 -----------------
 AM1-Reparam Input
 -----------------
 Symbolic Z-matrix:
 Charge =  0 Multiplicity = 1

                         Standard orientation:
 ---------------------------------------------------------------------
 Center     Atomic      Atomic             Coordinates (Angstroms)
 Number     Number       Type             X           Y           Z
 ---------------------------------------------------------------------
      1          6           0        0.620232    1.021634   -0.011508
      2          6           0       -0.753987    0.813278   -0.000132
      3          8           0       -1.092145   -0.443872    0.008531
      4          6           0        0.103143   -1.113403   -0.010312
      5          6           0        1.170354   -0.257542    0.001872
      6          1           0        2.244777   -0.537404    0.008794
      7          1           0        0.078390   -2.216367    0.013477
      8          1           0       -1.523544    1.522542   -0.021462
      9          1           0        1.099085    1.998400    0.051417
 ---------------------------------------------------------------------

 SCF Done:  E(RAM1) =   1.82793938029     A.U. after   14 cycles

 Excitation energies and oscillator strengths:

 Excited State   1:      Singlet-A      5.9406 eV  208.70 nm  f=0.3070  <S**2>=0.000
      11 -> 17        -0.11813
      13 -> 14         0.68662
 This state for optimization and/or second-order correction.
 Total Energy, E(CIS) =   2.04625414881
 Copying the excited state density for this state as the 1-particle RhoCI density.

 Excited State   2:      Singlet-A      6.6781 eV  185.66 nm  f=0.0032  <S**2>=0.000
      10 -> 15        -0.12288
      13 -> 15         0.65186
      13 -> 16         0.10886
      13 -> 17        -0.18354

 Excited State   3:      Singlet-A      6.9227 eV  179.10 nm  f=0.0006  <S**2>=0.000
      10 -> 16         0.14487
      13 -> 15        -0.11160
      13 -> 16         0.65318
      13 -> 19        -0.11791

 Excited State   4:      Singlet-A      6.9957 eV  177.23 nm  f=0.0009  <S**2>=0.000
      12 -> 14         0.69878

 Excited State   5:      Singlet-A      7.7231 eV  160.54 nm  f=0.0043  <S**2>=0.000
      11 -> 14         0.69431

 Excited State   6:      Singlet-A      8.4087 eV  147.45 nm  f=0.0101  <S**2>=0.000
      10 -> 15        -0.14304
      13 -> 15         0.14195
      13 -> 17         0.65607

 Excited State   7:      Singlet-A      8.5328 eV  145.30 nm  f=0.0010  <S**2>=0.000
      10 -> 16         0.11148
      13 -> 18         0.61548
      13 -> 19         0.11515
      13 -> 21        -0.27538

 Excited State   8:      Singlet-A      8.8745 eV  139.71 nm  f=0.0232  <S**2>=0.000
       8 -> 16         0.13078
      10 -> 14         0.47795
      11 -> 15        -0.19240
      11 -> 16        -0.14264
      11 -> 17         0.20523
      12 -> 15        -0.10136
      12 -> 16         0.23995
      12 -> 18        -0.17842

 Excited State   9:      Singlet-A      9.0689 eV  136.71 nm  f=0.0477  <S**2>=0.000
       8 -> 15        -0.12984
       9 -> 15         0.13032
      10 -> 14         0.44996
      11 -> 15         0.17687
      11 -> 16         0.13366
      11 -> 17        -0.16373
      12 -> 15         0.28835
      12 -> 16        -0.13114
      12 -> 18         0.18080

 Excited State  10:      Singlet-A      9.1752 eV  135.13 nm  f=0.0006  <S**2>=0.000
      10 -> 15         0.10513
      13 -> 18        -0.18395
      13 -> 19         0.64240
      13 -> 20         0.11390

 Excited State  11:      Singlet-A      9.4488 eV  131.22 nm  f=0.0790  <S**2>=0.000
       9 -> 15        -0.13729
      11 -> 15        -0.41626
      11 -> 17         0.11597
      11 -> 19        -0.11509
      12 -> 15         0.46382
      12 -> 17        -0.18187

 Excited State  12:      Singlet-A      9.7238 eV  127.51 nm  f=0.0580  <S**2>=0.000
      10 -> 15         0.39336
      11 -> 16         0.18449
      12 -> 15         0.15186
      12 -> 16         0.41312
      13 -> 15         0.10847

 Excited State  13:      Singlet-A      9.7335 eV  127.38 nm  f=0.0671  <S**2>=0.000
      10 -> 14         0.10739
      10 -> 15         0.44328
      12 -> 16        -0.39440
      13 -> 15         0.11647
      13 -> 21        -0.12172

 Excited State  14:      Singlet-A      9.8402 eV  126.00 nm  f=0.0921  <S**2>=0.000
       8 -> 15         0.12317
       8 -> 16        -0.14955
       9 -> 15        -0.15618
       9 -> 16        -0.12866
      10 -> 14         0.15558
      11 -> 15        -0.14101
      11 -> 16         0.38286
      11 -> 19        -0.21862
      12 -> 15        -0.24991
      12 -> 17        -0.20896
      12 -> 19        -0.11043

 Excited State  15:      Singlet-A      9.9140 eV  125.06 nm  f=0.0321  <S**2>=0.000
      10 -> 15         0.15752
      10 -> 16        -0.19087
      13 -> 18         0.21431
      13 -> 19         0.14064
      13 -> 20        -0.37497
      13 -> 21         0.46149

 The electronic state is 1-A.
 Alpha  occ. eigenvalues --   -1.94788  -1.22194  -0.97388  -0.81092  -0.79798
 Alpha  occ. eigenvalues --   -0.69351  -0.66647  -0.50824  -0.49022  -0.41433
 Alpha  occ. eigenvalues --   -0.40446  -0.38297  -0.28561
 Alpha virt. eigenvalues --    0.14745   0.19029   0.19981   0.26537   0.28367
 Alpha virt. eigenvalues --    0.30616   0.32451   0.35905   0.38156   0.47210
 Alpha virt. eigenvalues --    0.51208

 Mulliken charges:
               1
     1  C   -0.114309
     2  C   -1.955359
     3  O    3.122085
     4  C   -1.930999
     5  C   -0.029609
     6  H    0.140283
     7  H    0.304130
     8  H    0.314612
     9  H    0.149167
 Sum of Mulliken charges =   0.00000

 Dipole moment (field-independent basis, Debye):
    X=             -9.4416    Y=             -3.7781    Z=              0.2358  Tot=             10.1722
 N-N= 1.044216048757D+02 E-N=-1.702987834211D+02  KE=-1.569170915537D+01
 Orbital energies and kinetic energies (alpha):
                                 1                 2
   1         O                -1.947881         -1.433413
   2         O                -1.221936         -1.096396
   3         O                -0.973884         -0.903271
   4         O                -0.810917         -0.633236
   5         O                -0.797981         -0.674691
   6         O                -0.693511         -0.577944
   7         O                -0.666466         -0.579927

 Normal termination of Gaussian 09 at Tue Dec 15 17:10:02 2015.
