 Gaussian 09, Revision D.01,
 Gaussian 09:  ES64L-G09RevD.01 24-Apr-2013

 ------------------------------------------------------------
 #P AM1(Input,print) CIS(Singlets,NStates=15) pop(full) force
 ------------------------------------------------------------

 -----------------
 AM1-Reparam Input
 -----------------
 Symbolic Z-matrix:
 Charge =  0 Multiplicity = 1

                         Standard orientation:
 ---------------------------------------------------------------------
 Center     Atomic      Atomic             Coordinates (Angstroms)
 Number     Number       Type             X           Y           Z
 ---------------------------------------------------------------------
      1          6           0       -0.876845    0.810863    0.003037
      2          6           0       -1.038661   -0.488756    0.018427
      3          8           0        0.198093   -1.086035   -0.031322
      4          6           0        1.112108   -0.203469    0.036920
      5          6           0        0.596026    1.014068   -0.009220
      6          1           0        1.077561    1.972741   -0.017671
      7          1           0        2.108694   -0.511949   -0.013008
      8          1           0       -1.906568   -1.134547    0.030369
      9          1           0       -1.620199    1.565802   -0.044097
 ---------------------------------------------------------------------

 SCF Done:  E(RAM1) =   1.88329776287     A.U. after   13 cycles

 Excitation energies and oscillator strengths:

 Excited State   1:      Singlet-A      5.3418 eV  232.10 nm  f=0.3471  <S**2>=0.000
      13 -> 14         0.69439
 This state for optimization and/or second-order correction.
 Total Energy, E(CIS) =   2.07960376513
 Copying the excited state density for this state as the 1-particle RhoCI density.

 Excited State   2:      Singlet-A      6.0452 eV  205.09 nm  f=0.0022  <S**2>=0.000
      13 -> 15         0.67347
      13 -> 17         0.13388

 Excited State   3:      Singlet-A      6.3581 eV  195.00 nm  f=0.0001  <S**2>=0.000
      12 -> 14         0.70152

 Excited State   4:      Singlet-A      6.5253 eV  190.01 nm  f=0.0020  <S**2>=0.000
      13 -> 16         0.66078
      13 -> 17         0.12375
      13 -> 18         0.14464

 Excited State   5:      Singlet-A      7.7034 eV  160.95 nm  f=0.0002  <S**2>=0.000
      13 -> 16        -0.13172
      13 -> 18         0.62051
      13 -> 21         0.26596

 Excited State   6:      Singlet-A      7.7573 eV  159.83 nm  f=0.0069  <S**2>=0.000
      11 -> 14         0.66883
      13 -> 17        -0.18382

 Excited State   7:      Singlet-A      8.0453 eV  154.11 nm  f=0.0076  <S**2>=0.000
      11 -> 14         0.19499
      13 -> 15        -0.12445
      13 -> 17         0.64297

 Excited State   8:      Singlet-A      8.7284 eV  142.05 nm  f=0.0843  <S**2>=0.000
      11 -> 17        -0.16439
      12 -> 15         0.47251
      12 -> 16        -0.28122
      12 -> 18        -0.30539

 Excited State   9:      Singlet-A      8.7690 eV  141.39 nm  f=0.0001  <S**2>=0.000
      13 -> 19         0.67605

 Excited State  10:      Singlet-A      8.9246 eV  138.92 nm  f=0.0339  <S**2>=0.000
      10 -> 14         0.54124
      11 -> 15         0.10022
      12 -> 15         0.30141
      12 -> 16         0.20972

 Excited State  11:      Singlet-A      9.3152 eV  133.10 nm  f=0.0489  <S**2>=0.000
       9 -> 15        -0.15694
      10 -> 14         0.33416
      11 -> 15        -0.25358
      11 -> 17        -0.16236
      12 -> 15        -0.32410
      12 -> 16        -0.21853
      12 -> 17        -0.16506
      12 -> 18        -0.24219

 Excited State  12:      Singlet-A      9.3762 eV  132.23 nm  f=0.0255  <S**2>=0.000
      13 -> 18        -0.25061
      13 -> 20        -0.44596
      13 -> 21         0.47183

 Excited State  13:      Singlet-A      9.5728 eV  129.52 nm  f=0.1505  <S**2>=0.000
      10 -> 14        -0.10513
      11 -> 16        -0.27046
      11 -> 17        -0.16590
      12 -> 16         0.49440
      12 -> 18        -0.24193
      12 -> 19         0.10461

 Excited State  14:      Singlet-A      9.7094 eV  127.69 nm  f=0.0697  <S**2>=0.000
      10 -> 15         0.11262
      13 -> 18        -0.11816
      13 -> 20         0.51791
      13 -> 21         0.42159

 Excited State  15:      Singlet-A      9.9736 eV  124.31 nm  f=0.0618  <S**2>=0.000
       8 -> 15        -0.16623
       9 -> 14        -0.12939
       9 -> 15         0.25847
      10 -> 14         0.17928
      10 -> 15        -0.10497
      11 -> 15         0.31649
      11 -> 16        -0.12692
      11 -> 19        -0.22753
      12 -> 15        -0.14878
      12 -> 17         0.24554
      12 -> 18        -0.17463

 The electronic state is 1-A.
 Alpha  occ. eigenvalues --   -1.97544  -1.21921  -1.01299  -0.82669  -0.80121
 Alpha  occ. eigenvalues --   -0.71230  -0.67465  -0.53850  -0.49267  -0.44058
 Alpha  occ. eigenvalues --   -0.42311  -0.37675  -0.27205
 Alpha virt. eigenvalues --    0.12645   0.17815   0.19763   0.26679   0.27790
 Alpha virt. eigenvalues --    0.29977   0.32042   0.33834   0.38390   0.46583
 Alpha virt. eigenvalues --    0.52022

 Mulliken charges:
               1
     1  C   -0.048737
     2  C   -1.907127
     3  O    3.142267
     4  C   -1.940033
     5  C   -0.199612
     6  H    0.167144
     7  H    0.327851
     8  H    0.306444
     9  H    0.151804
 Sum of Mulliken charges =   0.00000

 Dipole moment (field-independent basis, Debye):
    X=              1.8425    Y=             -9.5616    Z=             -0.8669  Tot=              9.7760
 N-N= 1.051440032786D+02 E-N=-1.712414964161D+02  KE=-1.574760728970D+01
 Orbital energies and kinetic energies (alpha):
                                 1                 2
   1         O                -1.975439         -1.463797
   2         O                -1.219211         -1.071404
   3         O                -1.012994         -0.920220
   4         O                -0.826691         -0.627001
   5         O                -0.801213         -0.703201
   6         O                -0.712300         -0.580335
   7         O                -0.674646         -0.562546

 Normal termination of Gaussian 09 at Tue Dec 15 17:10:04 2015.
