 Gaussian 09, Revision D.01,
 Gaussian 09:  ES64L-G09RevD.01 24-Apr-2013

 ------------------------------------------------------------
 #P AM1(Input,print) CIS(Singlets,NStates=15) pop(full) force
 ------------------------------------------------------------

 -----------------
 AM1-Reparam Input
 -----------------
 Symbolic Z-matrix:
 Charge =  0 Multiplicity = 1

                         Standard orientation:
 ---------------------------------------------------------------------
 Center     Atomic      Atomic             Coordinates (Angstroms)
 Number     Number       Type             X           Y           Z
 ---------------------------------------------------------------------
      1          6           0       -0.947164    0.716686   -0.010814
      2          6           0       -1.014519   -0.569908    0.008926
      3          8           0        0.305405   -1.133132   -0.007615
      4          6           0        1.159974   -0.111578   -0.002272
      5          6           0        0.462598    1.147134    0.014043
      6          1           0        0.936790    2.101913   -0.021668
      7          1           0        2.235390   -0.305277    0.012470
      8          1           0       -1.786927   -1.281373    0.020675
      9          1           0       -1.793824    1.455788   -0.009853
 ---------------------------------------------------------------------

 SCF Done:  E(RAM1) =   2.61006347999     A.U. after   13 cycles

 Excitation energies and oscillator strengths:

 Excited State   1:      Singlet-A      4.9132 eV  252.35 nm  f=0.3715  <S**2>=0.000
      13 -> 14         0.69983
 This state for optimization and/or second-order correction.
 Total Energy, E(CIS) =   2.79061941459
 Copying the excited state density for this state as the 1-particle RhoCI density.

 Excited State   2:      Singlet-A      5.8916 eV  210.44 nm  f=0.0012  <S**2>=0.000
      13 -> 15         0.66741
      13 -> 17        -0.14120
      13 -> 19        -0.11435

 Excited State   3:      Singlet-A      6.3119 eV  196.43 nm  f=0.0011  <S**2>=0.000
      12 -> 14         0.69268

 Excited State   4:      Singlet-A      6.5395 eV  189.59 nm  f=0.0024  <S**2>=0.000
      12 -> 14        -0.10580
      13 -> 16         0.66483

 Excited State   5:      Singlet-A      7.5368 eV  164.50 nm  f=0.0033  <S**2>=0.000
      10 -> 14         0.65170
      11 -> 14         0.12099
      13 -> 17        -0.20900

 Excited State   6:      Singlet-A      7.6579 eV  161.90 nm  f=0.0010  <S**2>=0.000
      10 -> 14         0.21519
      13 -> 16        -0.11182
      13 -> 17         0.61478
      13 -> 18        -0.15996
      13 -> 21         0.10907

 Excited State   7:      Singlet-A      8.4700 eV  146.38 nm  f=0.0916  <S**2>=0.000
      10 -> 14        -0.12557
      11 -> 14         0.66512
      12 -> 17        -0.11947

 Excited State   8:      Singlet-A      9.0190 eV  137.47 nm  f=0.0054  <S**2>=0.000
      11 -> 15        -0.28049
      13 -> 17         0.11572
      13 -> 18         0.61274

 Excited State   9:      Singlet-A      9.2397 eV  134.19 nm  f=0.1380  <S**2>=0.000
       9 -> 15         0.11836
      10 -> 16         0.16591
      10 -> 18        -0.12413
      11 -> 14        -0.15917
      12 -> 15         0.50380
      12 -> 16        -0.16823
      12 -> 17        -0.30728

 Excited State  10:      Singlet-A      9.3429 eV  132.70 nm  f=0.0005  <S**2>=0.000
      11 -> 16        -0.19574
      13 -> 17        -0.12759
      13 -> 19         0.64329

 Excited State  11:      Singlet-A      9.6873 eV  127.99 nm  f=0.2491  <S**2>=0.000
      10 -> 16         0.17944
      12 -> 16         0.56905
      12 -> 17        -0.25964
      12 -> 19         0.14514

 Excited State  12:      Singlet-A      9.9283 eV  124.88 nm  f=0.0930  <S**2>=0.000
      10 -> 15         0.49278
      10 -> 18        -0.14837
      11 -> 15         0.22949
      12 -> 15        -0.24743
      12 -> 16        -0.22036
      12 -> 17        -0.13219
      12 -> 18         0.10307

 Excited State  13:      Singlet-A      9.9534 eV  124.56 nm  f=0.0047  <S**2>=0.000
       7 -> 15         0.13093
      10 -> 15        -0.19741
      11 -> 15         0.55359
      13 -> 15         0.13858
      13 -> 18         0.23748

 Excited State  14:      Singlet-A     10.2020 eV  121.53 nm  f=0.0163  <S**2>=0.000
       8 -> 15         0.10417
       9 -> 15         0.26369
      10 -> 15         0.28494
      10 -> 17         0.10722
      10 -> 18        -0.11394
      10 -> 19        -0.11755
      12 -> 15         0.23847
      12 -> 16         0.20550
      12 -> 17         0.36178
      12 -> 19        -0.13313

 Excited State  15:      Singlet-A     10.2953 eV  120.43 nm  f=0.0000  <S**2>=0.000
       9 -> 14         0.68006

 The electronic state is 1-A.
 Alpha  occ. eigenvalues --   -1.83766  -1.10487  -0.87041  -0.78832  -0.74097
 Alpha  occ. eigenvalues --   -0.66627  -0.62192  -0.56085  -0.53938  -0.45169
 Alpha  occ. eigenvalues --   -0.44995  -0.41427  -0.28913
 Alpha virt. eigenvalues --    0.08718   0.16283   0.18607   0.25067   0.28150
 Alpha virt. eigenvalues --    0.29588   0.36040   0.39918   0.47154   0.54727
 Alpha virt. eigenvalues --    0.58795

 Mulliken charges:
               1
     1  C   -0.117620
     2  C   -1.938458
     3  O    3.438674
     4  C   -2.047408
     5  C   -0.252761
     6  H    0.182787
     7  H    0.287573
     8  H    0.255085
     9  H    0.192128
 Sum of Mulliken charges =   0.00000

 Dipole moment (field-independent basis, Debye):
    X=              2.8293    Y=            -11.3400    Z=             -0.1566  Tot=             11.6887
 N-N= 1.032747974871D+02 E-N=-1.683707379938D+02  KE=-1.428734253667D+01
 Orbital energies and kinetic energies (alpha):
                                 1                 2
   1         O                -1.837659         -1.223386
   2         O                -1.104867         -0.952332
   3         O                -0.870413         -0.790619
   4         O                -0.788317         -0.527579
   5         O                -0.740969         -0.623265
   6         O                -0.666274         -0.530785
   7         O                -0.621921         -0.487242

 Normal termination of Gaussian 09 at Tue Dec 15 17:07:34 2015.
