 Gaussian 09, Revision D.01,
 Gaussian 09:  ES64L-G09RevD.01 24-Apr-2013

 ------------------------------------------------------------
 #P AM1(Input,print) CIS(Singlets,NStates=15) pop(full) force
 ------------------------------------------------------------

 -----------------
 AM1-Reparam Input
 -----------------
 Symbolic Z-matrix:
 Charge =  0 Multiplicity = 1

                         Standard orientation:
 ---------------------------------------------------------------------
 Center     Atomic      Atomic             Coordinates (Angstroms)
 Number     Number       Type             X           Y           Z
 ---------------------------------------------------------------------
      1          6           0       -1.113238    0.442806   -0.004783
      2          6           0       -0.750595   -0.836111    0.021280
      3          8           0        0.627596   -1.017490   -0.014962
      4          6           0        1.104850    0.268298    0.003039
      5          6           0        0.107970    1.210609   -0.013149
      6          1           0        0.178041    2.208215    0.024157
      7          1           0        2.205136    0.340432    0.057520
      8          1           0       -1.369346   -1.803414   -0.005826
      9          1           0       -2.128520    0.881079    0.005513
 ---------------------------------------------------------------------

 SCF Done:  E(RAM1) =   2.05940768263     A.U. after   13 cycles

 Excitation energies and oscillator strengths:

 Excited State   1:      Singlet-A      5.3252 eV  232.83 nm  f=0.3542  <S**2>=0.000
      13 -> 14         0.69633
 This state for optimization and/or second-order correction.
 Total Energy, E(CIS) =   2.25510515949
 Copying the excited state density for this state as the 1-particle RhoCI density.

 Excited State   2:      Singlet-A      6.6164 eV  187.39 nm  f=0.0001  <S**2>=0.000
      12 -> 14         0.11187
      13 -> 15         0.50171
      13 -> 16        -0.37632
      13 -> 18         0.27045

 Excited State   3:      Singlet-A      6.6962 eV  185.16 nm  f=0.0067  <S**2>=0.000
      13 -> 15         0.41285
      13 -> 16         0.50756
      13 -> 17         0.22962

 Excited State   4:      Singlet-A      6.7234 eV  184.41 nm  f=0.0009  <S**2>=0.000
      12 -> 14         0.69009

 Excited State   5:      Singlet-A      7.8539 eV  157.86 nm  f=0.0061  <S**2>=0.000
      10 -> 14         0.64542
      13 -> 18        -0.15503
      13 -> 19        -0.12574
      13 -> 20        -0.10420

 Excited State   6:      Singlet-A      7.8751 eV  157.44 nm  f=0.0024  <S**2>=0.000
      10 -> 14         0.25280
      13 -> 15        -0.14294
      13 -> 16         0.14676
      13 -> 18         0.44656
      13 -> 19         0.23872
      13 -> 20         0.33273

 Excited State   7:      Singlet-A      8.4054 eV  147.50 nm  f=0.0285  <S**2>=0.000
      11 -> 16         0.11621
      13 -> 15        -0.13070
      13 -> 16        -0.14521
      13 -> 17         0.64028
      13 -> 18         0.14485

 Excited State   8:      Singlet-A      8.7004 eV  142.50 nm  f=0.1007  <S**2>=0.000
      11 -> 14         0.67905

 Excited State   9:      Singlet-A      8.8286 eV  140.44 nm  f=0.0001  <S**2>=0.000
      13 -> 16        -0.11391
      13 -> 18        -0.37253
      13 -> 19         0.50116
      13 -> 20         0.26504

 Excited State  10:      Singlet-A      9.3877 eV  132.07 nm  f=0.1035  <S**2>=0.000
       9 -> 15         0.10778
      10 -> 15         0.13012
      10 -> 17         0.17225
      12 -> 15        -0.32958
      12 -> 16         0.33394
      12 -> 17         0.11576
      12 -> 18        -0.31668
      12 -> 19        -0.15064
      12 -> 20        -0.13436

 Excited State  11:      Singlet-A      9.4968 eV  130.55 nm  f=0.0237  <S**2>=0.000
      13 -> 18        -0.17514
      13 -> 19        -0.40308
      13 -> 20         0.51871
      13 -> 21         0.14877

 Excited State  12:      Singlet-A      9.9806 eV  124.23 nm  f=0.0466  <S**2>=0.000
      10 -> 15         0.14914
      10 -> 18         0.12569
      12 -> 15         0.52996
      12 -> 16         0.28513
      12 -> 17         0.19223

 Excited State  13:      Singlet-A     10.0004 eV  123.98 nm  f=0.0472  <S**2>=0.000
      13 -> 20        -0.15457
      13 -> 21         0.66670

 Excited State  14:      Singlet-A     10.1713 eV  121.90 nm  f=0.0033  <S**2>=0.000
      11 -> 15         0.43571
      11 -> 16         0.45808
      11 -> 17         0.14769
      13 -> 16         0.11850

 Excited State  15:      Singlet-A     10.2211 eV  121.30 nm  f=0.2038  <S**2>=0.000
      10 -> 15        -0.20923
      10 -> 16        -0.26657
      10 -> 17        -0.23982
      12 -> 15        -0.12760
      12 -> 16         0.40676
      12 -> 19         0.27932

 The electronic state is 1-A.
 Alpha  occ. eigenvalues --   -1.92571  -1.19526  -0.93431  -0.81278  -0.78456
 Alpha  occ. eigenvalues --   -0.67845  -0.63771  -0.53528  -0.52558  -0.43491
 Alpha  occ. eigenvalues --   -0.42946  -0.39944  -0.28015
 Alpha virt. eigenvalues --    0.12070   0.18964   0.19579   0.26806   0.27932
 Alpha virt. eigenvalues --    0.30159   0.31362   0.33179   0.34818   0.44393
 Alpha virt. eigenvalues --    0.47663

 Mulliken charges:
               1
     1  C   -0.186606
     2  C   -1.980631
     3  O    3.168252
     4  C   -1.993321
     5  C   -0.225597
     6  H    0.243147
     7  H    0.360421
     8  H    0.367306
     9  H    0.247030
 Sum of Mulliken charges =   0.00000

 Dipole moment (field-independent basis, Debye):
    X=              5.4606    Y=             -9.6846    Z=             -0.2556  Tot=             11.1209
 N-N= 1.039560046925D+02 E-N=-1.691943561212D+02  KE=-1.545163618338D+01
 Orbital energies and kinetic energies (alpha):
                                 1                 2
   1         O                -1.925712         -1.364801
   2         O                -1.195261         -1.081010
   3         O                -0.934308         -0.870816
   4         O                -0.812778         -0.597037
   5         O                -0.784563         -0.659935
   6         O                -0.678446         -0.579117
   7         O                -0.637707         -0.520080

 Normal termination of Gaussian 09 at Tue Dec 15 17:07:21 2015.
