 Gaussian 09, Revision D.01,
 Gaussian 09:  ES64L-G09RevD.01 24-Apr-2013

 ------------------------------------------------------------
 #P AM1(Input,print) CIS(Singlets,NStates=15) pop(full) force
 ------------------------------------------------------------

 -----------------
 AM1-Reparam Input
 -----------------
 Symbolic Z-matrix:
 Charge =  0 Multiplicity = 1

                         Standard orientation:
 ---------------------------------------------------------------------
 Center     Atomic      Atomic             Coordinates (Angstroms)
 Number     Number       Type             X           Y           Z
 ---------------------------------------------------------------------
      1          6           0        0.189453    1.179624   -0.007322
      2          6           0        1.110218    0.098785   -0.010080
      3          8           0        0.524540   -1.018994    0.021351
      4          6           0       -0.864042   -0.752405   -0.027256
      5          6           0       -1.003499    0.533802    0.034799
      6          1           0       -2.008220    1.067352   -0.039839
      7          1           0       -1.475100   -1.599951   -0.033952
      8          1           0        2.209512    0.142955   -0.033423
      9          1           0        0.484703    2.182759   -0.004430
 ---------------------------------------------------------------------

 SCF Done:  E(RAM1) =   2.72581735415     A.U. after   14 cycles

 Excitation energies and oscillator strengths:

 Excited State   1:      Singlet-A      5.6253 eV  220.40 nm  f=0.3201  <S**2>=0.000
      13 -> 14         0.68928
 This state for optimization and/or second-order correction.
 Total Energy, E(CIS) =   2.93254300533
 Copying the excited state density for this state as the 1-particle RhoCI density.

 Excited State   2:      Singlet-A      5.9309 eV  209.05 nm  f=0.0037  <S**2>=0.000
      10 -> 15        -0.10896
      13 -> 15         0.65263
      13 -> 17        -0.21029

 Excited State   3:      Singlet-A      6.7791 eV  182.89 nm  f=0.0015  <S**2>=0.000
      10 -> 16         0.12054
      12 -> 14         0.19263
      13 -> 16         0.63136
      13 -> 19         0.14198

 Excited State   4:      Singlet-A      6.9341 eV  178.80 nm  f=0.0018  <S**2>=0.000
       9 -> 14        -0.11409
      12 -> 14         0.66578
      13 -> 16        -0.19005

 Excited State   5:      Singlet-A      7.5931 eV  163.29 nm  f=0.0091  <S**2>=0.000
      10 -> 15        -0.10524
      13 -> 15         0.18592
      13 -> 17         0.62920
      13 -> 21         0.14676

 Excited State   6:      Singlet-A      8.0834 eV  153.38 nm  f=0.0002  <S**2>=0.000
       9 -> 14         0.10724
      10 -> 14        -0.16244
      11 -> 14         0.60070
      13 -> 17         0.13700
      13 -> 18        -0.21777
      13 -> 21        -0.15465

 Excited State   7:      Singlet-A      8.1373 eV  152.37 nm  f=0.0075  <S**2>=0.000
      11 -> 14         0.26936
      13 -> 18         0.52811
      13 -> 19         0.19480
      13 -> 21         0.28364

 Excited State   8:      Singlet-A      8.6059 eV  144.07 nm  f=0.0010  <S**2>=0.000
      13 -> 16        -0.10875
      13 -> 17        -0.10071
      13 -> 18        -0.31463
      13 -> 19         0.55437
      13 -> 20         0.12645
      13 -> 21         0.16261

 Excited State   9:      Singlet-A      8.6778 eV  142.87 nm  f=0.0303  <S**2>=0.000
       8 -> 16         0.10299
      10 -> 14         0.36514
      11 -> 15         0.13038
      11 -> 16         0.16500
      11 -> 17        -0.15872
      12 -> 15         0.24351
      12 -> 17        -0.32247
      12 -> 18        -0.20802

 Excited State  10:      Singlet-A      9.0446 eV  137.08 nm  f=0.0221  <S**2>=0.000
       8 -> 15         0.14776
      10 -> 14        -0.26321
      11 -> 15        -0.26537
      12 -> 15         0.53996

 Excited State  11:      Singlet-A      9.2275 eV  134.36 nm  f=0.0227  <S**2>=0.000
       9 -> 15        -0.17228
      10 -> 14        -0.15891
      10 -> 15         0.20268
      11 -> 15         0.39536
      11 -> 17        -0.13449
      11 -> 18         0.12402
      13 -> 18         0.11895
      13 -> 19         0.20082
      13 -> 21        -0.29934

 Excited State  12:      Singlet-A      9.2848 eV  133.53 nm  f=0.0524  <S**2>=0.000
       9 -> 15        -0.16042
      10 -> 14        -0.21488
      10 -> 15        -0.22350
      11 -> 15         0.27055
      11 -> 17        -0.12042
      11 -> 18         0.10756
      12 -> 16         0.19526
      13 -> 18        -0.14763
      13 -> 19        -0.22212
      13 -> 21         0.35540

 Excited State  13:      Singlet-A      9.3534 eV  132.55 nm  f=0.2030  <S**2>=0.000
      10 -> 15        -0.13458
      11 -> 15        -0.12389
      12 -> 16         0.51757
      12 -> 17        -0.19050
      12 -> 18        -0.19498
      12 -> 19         0.10495
      13 -> 21        -0.15140

 Excited State  14:      Singlet-A      9.3896 eV  132.04 nm  f=0.0137  <S**2>=0.000
       7 -> 15         0.11499
      10 -> 15         0.55426
      12 -> 16         0.17364
      13 -> 15         0.11942
      13 -> 19        -0.10153
      13 -> 20         0.12759
      13 -> 21         0.23370

 Excited State  15:      Singlet-A      9.5555 eV  129.75 nm  f=0.2357  <S**2>=0.000
      10 -> 14         0.41139
      11 -> 14         0.12866
      12 -> 15         0.14523
      12 -> 16         0.32316
      12 -> 17         0.20674
      12 -> 18         0.29494
      12 -> 20         0.10769

 The electronic state is 1-A.
 Alpha  occ. eigenvalues --   -1.78602  -1.15857  -0.93723  -0.79853  -0.74829
 Alpha  occ. eigenvalues --   -0.66166  -0.64935  -0.54341  -0.48615  -0.43506
 Alpha  occ. eigenvalues --   -0.42919  -0.38934  -0.28778
 Alpha virt. eigenvalues --    0.13434   0.15490   0.19881   0.23335   0.27054
 Alpha virt. eigenvalues --    0.28121   0.31334   0.32697   0.49385   0.58070
 Alpha virt. eigenvalues --    0.62109

 Mulliken charges:
               1
     1  C   -0.142016
     2  C   -2.076034
     3  O    3.335157
     4  C   -1.951072
     5  C    0.032255
     6  H    0.115716
     7  H    0.252141
     8  H    0.303932
     9  H    0.129919
 Sum of Mulliken charges =   0.00000

 Dipole moment (field-independent basis, Debye):
    X=              5.1915    Y=             -9.2854    Z=              0.5106  Tot=             10.6504
 N-N= 1.045196980572D+02 E-N=-1.700185741258D+02  KE=-1.494802292901D+01
 Orbital energies and kinetic energies (alpha):
                                 1                 2
   1         O                -1.786025         -1.293891
   2         O                -1.158566         -1.017215
   3         O                -0.937230         -0.863048
   4         O                -0.798529         -0.586655
   5         O                -0.748291         -0.679023
   6         O                -0.661659         -0.565816
   7         O                -0.649346         -0.531808

 Normal termination of Gaussian 09 at Tue Dec 15 17:05:26 2015.
