 Gaussian 09, Revision D.01,
 Gaussian 09:  ES64L-G09RevD.01 24-Apr-2013

 ------------------------------------------------------------
 #P AM1(Input,print) CIS(Singlets,NStates=15) pop(full) force
 ------------------------------------------------------------

 -----------------
 AM1-Reparam Input
 -----------------
 Symbolic Z-matrix:
 Charge =  0 Multiplicity = 1

                         Standard orientation:
 ---------------------------------------------------------------------
 Center     Atomic      Atomic             Coordinates (Angstroms)
 Number     Number       Type             X           Y           Z
 ---------------------------------------------------------------------
      1          6           0        0.189453    1.179624   -0.007322
      2          6           0        1.110218    0.098785   -0.010080
      3          8           0        0.524540   -1.018994    0.021351
      4          6           0       -0.864042   -0.752405   -0.027256
      5          6           0       -1.003499    0.533802    0.034799
      6          1           0       -2.008220    1.067352   -0.039839
      7          1           0       -1.475100   -1.599951   -0.033952
      8          1           0        2.209512    0.142955   -0.033423
      9          1           0        0.484703    2.182759   -0.004430
 ---------------------------------------------------------------------

 SCF Done:  E(RAM1) =   1.76125673594     A.U. after   13 cycles

 Excitation energies and oscillator strengths:

 Excited State   1:      Singlet-A      5.8023 eV  213.68 nm  f=0.3311  <S**2>=0.000
      13 -> 14         0.68843
 This state for optimization and/or second-order correction.
 Total Energy, E(CIS) =   1.97448856131
 Copying the excited state density for this state as the 1-particle RhoCI density.

 Excited State   2:      Singlet-A      6.8746 eV  180.35 nm  f=0.0044  <S**2>=0.000
      10 -> 15        -0.10330
      13 -> 15         0.66099
      13 -> 17        -0.17422

 Excited State   3:      Singlet-A      7.0305 eV  176.35 nm  f=0.0021  <S**2>=0.000
      12 -> 14         0.69488

 Excited State   4:      Singlet-A      7.9492 eV  155.97 nm  f=0.0022  <S**2>=0.000
      10 -> 16         0.12189
      11 -> 14         0.10890
      13 -> 16         0.66223
      13 -> 19         0.14219

 Excited State   5:      Singlet-A      8.1820 eV  151.53 nm  f=0.0039  <S**2>=0.000
      11 -> 14         0.68983
      13 -> 16        -0.10881

 Excited State   6:      Singlet-A      8.9573 eV  138.42 nm  f=0.0045  <S**2>=0.000
      10 -> 15        -0.11597
      13 -> 15         0.14778
      13 -> 17         0.62774
      13 -> 18         0.11133
      13 -> 19         0.15354
      13 -> 22         0.14595

 Excited State   7:      Singlet-A      9.3732 eV  132.28 nm  f=0.0267  <S**2>=0.000
      10 -> 14         0.42273
      11 -> 15         0.10957
      11 -> 16         0.16098
      12 -> 15         0.33429
      12 -> 17        -0.29255
      12 -> 18        -0.12306

 Excited State   8:      Singlet-A      9.4679 eV  130.95 nm  f=0.0092  <S**2>=0.000
      13 -> 17        -0.18343
      13 -> 18         0.56981
      13 -> 19         0.27660
      13 -> 22         0.20307

 Excited State   9:      Singlet-A      9.7962 eV  126.56 nm  f=0.0793  <S**2>=0.000
       9 -> 15         0.14644
      10 -> 14        -0.43224
      12 -> 15         0.46161
      12 -> 18         0.11067

 Excited State  10:      Singlet-A      9.9044 eV  125.18 nm  f=0.0035  <S**2>=0.000
      13 -> 16        -0.10282
      13 -> 17        -0.12228
      13 -> 18        -0.35271
      13 -> 19         0.54336
      13 -> 22         0.10572

 Excited State  11:      Singlet-A     10.2082 eV  121.46 nm  f=0.1080  <S**2>=0.000
       9 -> 15         0.12700
      10 -> 14        -0.13580
      11 -> 15         0.61049
      11 -> 17        -0.18997
      11 -> 18         0.12844
      12 -> 15        -0.13473

 Excited State  12:      Singlet-A     10.3432 eV  119.87 nm  f=0.2201  <S**2>=0.000
      10 -> 14        -0.11200
      12 -> 16         0.56407
      12 -> 17        -0.19498
      12 -> 18        -0.23743
      12 -> 19         0.14634

 Excited State  13:      Singlet-A     10.4829 eV  118.27 nm  f=0.1464  <S**2>=0.000
      10 -> 14         0.27681
      11 -> 16        -0.11880
      12 -> 15         0.14753
      12 -> 16         0.35986
      12 -> 17         0.28059
      12 -> 18         0.34498
      12 -> 20        -0.12887

 Excited State  14:      Singlet-A     10.6981 eV  115.89 nm  f=0.0052  <S**2>=0.000
       7 -> 15         0.13297
      10 -> 15         0.65538
      13 -> 15         0.13660

 Excited State  15:      Singlet-A     10.9369 eV  113.36 nm  f=0.0408  <S**2>=0.000
       9 -> 14        -0.14732
      13 -> 19         0.22550
      13 -> 20         0.46295
      13 -> 22        -0.43242

 The electronic state is 1-A.
 Alpha  occ. eigenvalues --   -1.92846  -1.20182  -0.93091  -0.82407  -0.78664
 Alpha  occ. eigenvalues --   -0.70230  -0.69460  -0.57605  -0.54371  -0.47394
 Alpha  occ. eigenvalues --   -0.44797  -0.40750  -0.31454
 Alpha virt. eigenvalues --    0.11926   0.16567   0.21408   0.25579   0.28684
 Alpha virt. eigenvalues --    0.30023   0.33688   0.35769   0.36474   0.44138
 Alpha virt. eigenvalues --    0.48096

 Mulliken charges:
               1
     1  C   -0.266207
     2  C   -2.082781
     3  O    3.295075
     4  C   -1.990382
     5  C   -0.049912
     6  H    0.201157
     7  H    0.318291
     8  H    0.359935
     9  H    0.214824
 Sum of Mulliken charges =   0.00000

 Dipole moment (field-independent basis, Debye):
    X=              5.0636    Y=             -9.1054    Z=              0.4762  Tot=             10.4296
 N-N= 1.046912905272D+02 E-N=-1.706152308759D+02  KE=-1.557983422496D+01
 Orbital energies and kinetic energies (alpha):
                                 1                 2
   1         O                -1.928458         -1.403787
   2         O                -1.201824         -1.071602
   3         O                -0.930906         -0.893933
   4         O                -0.824066         -0.562136
   5         O                -0.786643         -0.695499
   6         O                -0.702303         -0.589193
   7         O                -0.694601         -0.548330

 Normal termination of Gaussian 09 at Tue Dec 15 17:09:48 2015.
