 Gaussian 09, Revision D.01,
 Gaussian 09:  ES64L-G09RevD.01 24-Apr-2013

 ------------------------------------------------------------
 #P AM1(Input,print) CIS(Singlets,NStates=15) pop(full) force
 ------------------------------------------------------------

 -----------------
 AM1-Reparam Input
 -----------------
 Symbolic Z-matrix:
 Charge =  0 Multiplicity = 1

                         Standard orientation:
 ---------------------------------------------------------------------
 Center     Atomic      Atomic             Coordinates (Angstroms)
 Number     Number       Type             X           Y           Z
 ---------------------------------------------------------------------
      1          6           0        0.804052    0.840071    0.001280
      2          6           0        1.027364   -0.520018   -0.011118
      3          8           0       -0.188200   -1.107461    0.028342
      4          6           0       -1.102251   -0.202701   -0.025629
      5          6           0       -0.527351    1.054121   -0.014606
      6          1           0       -1.063821    1.971322    0.073959
      7          1           0       -2.176746   -0.569906    0.004219
      8          1           0        1.924076   -1.135306   -0.049914
      9          1           0        1.611208    1.564739    0.045441
 ---------------------------------------------------------------------

 SCF Done:  E(RAM1) =   2.51899776621     A.U. after   14 cycles

 Excitation energies and oscillator strengths:

 Excited State   1:      Singlet-A      5.7773 eV  214.61 nm  f=0.3098  <S**2>=0.000
      13 -> 14         0.68845
 This state for optimization and/or second-order correction.
 Total Energy, E(CIS) =   2.73130944360
 Copying the excited state density for this state as the 1-particle RhoCI density.

 Excited State   2:      Singlet-A      6.5583 eV  189.05 nm  f=0.0031  <S**2>=0.000
      10 -> 15         0.10623
      13 -> 15         0.64917
      13 -> 16         0.11570
      13 -> 17         0.18722

 Excited State   3:      Singlet-A      7.1233 eV  174.05 nm  f=0.0035  <S**2>=0.000
      10 -> 16        -0.10781
      13 -> 15        -0.11810
      13 -> 16         0.64094
      13 -> 18        -0.10323
      13 -> 19         0.13786

 Excited State   4:      Singlet-A      7.2259 eV  171.58 nm  f=0.0009  <S**2>=0.000
       9 -> 14         0.17028
      12 -> 14         0.67926

 Excited State   5:      Singlet-A      7.7855 eV  159.25 nm  f=0.0051  <S**2>=0.000
      10 -> 14         0.39322
      11 -> 14         0.57577

 Excited State   6:      Singlet-A      8.3992 eV  147.61 nm  f=0.0067  <S**2>=0.000
      10 -> 15        -0.11414
      13 -> 15        -0.12185
      13 -> 17         0.48526
      13 -> 18         0.39000
      13 -> 21         0.25089

 Excited State   7:      Singlet-A      8.5731 eV  144.62 nm  f=0.0079  <S**2>=0.000
      10 -> 16        -0.12732
      13 -> 17        -0.42063
      13 -> 18         0.44016
      13 -> 19         0.14852
      13 -> 21         0.23525

 Excited State   8:      Singlet-A      8.8478 eV  140.13 nm  f=0.0794  <S**2>=0.000
      10 -> 14         0.56125
      11 -> 14        -0.37992

 Excited State   9:      Singlet-A      9.2255 eV  134.39 nm  f=0.0016  <S**2>=0.000
      10 -> 16         0.12032
      11 -> 15        -0.12890
      11 -> 16        -0.11595
      13 -> 19         0.63500

 Excited State  10:      Singlet-A      9.3644 eV  132.40 nm  f=0.0125  <S**2>=0.000
       8 -> 15         0.12258
      10 -> 16         0.10356
      11 -> 15        -0.21348
      11 -> 16         0.12608
      12 -> 15         0.56379
      12 -> 17         0.14046
      12 -> 18         0.12692

 Excited State  11:      Singlet-A      9.3848 eV  132.11 nm  f=0.0996  <S**2>=0.000
       9 -> 15         0.20659
      10 -> 14        -0.10667
      10 -> 15         0.16757
      10 -> 16         0.14420
      10 -> 17         0.14070
      11 -> 15         0.41543
      11 -> 16         0.17613
      11 -> 17         0.22779
      12 -> 18         0.17444
      13 -> 14        -0.10218

 Excited State  12:      Singlet-A      9.6277 eV  128.78 nm  f=0.0032  <S**2>=0.000
       7 -> 15        -0.10420
      10 -> 15         0.51607
      10 -> 17         0.10837
      11 -> 15        -0.27033
      12 -> 15        -0.16573
      13 -> 15        -0.17831
      13 -> 18         0.12694
      13 -> 19        -0.11864

 Excited State  13:      Singlet-A      9.7719 eV  126.88 nm  f=0.1016  <S**2>=0.000
       8 -> 15        -0.10243
       9 -> 16        -0.10524
      11 -> 16         0.15709
      12 -> 16         0.59860
      12 -> 17         0.10725
      12 -> 19         0.12222

 Excited State  14:      Singlet-A      9.8719 eV  125.59 nm  f=0.0041  <S**2>=0.000
       9 -> 14         0.53231
      10 -> 15         0.10932
      12 -> 14        -0.15191
      13 -> 18        -0.20085
      13 -> 21         0.33742

 Excited State  15:      Singlet-A     10.0353 eV  123.55 nm  f=0.0026  <S**2>=0.000
       9 -> 14        -0.39726
      13 -> 18        -0.27492
      13 -> 21         0.48860

 The electronic state is 1-A.
 Alpha  occ. eigenvalues --   -1.76860  -1.18004  -0.95370  -0.81677  -0.75942
 Alpha  occ. eigenvalues --   -0.67932  -0.66162  -0.56009  -0.49537  -0.44252
 Alpha  occ. eigenvalues --   -0.43757  -0.41849  -0.31514
 Alpha virt. eigenvalues --    0.11516   0.15255   0.18511   0.23827   0.26622
 Alpha virt. eigenvalues --    0.27695   0.30279   0.32143   0.42648   0.51309
 Alpha virt. eigenvalues --    0.56743

 Mulliken charges:
               1
     1  C   -0.021108
     2  C   -1.959042
     3  O    3.230114
     4  C   -1.971390
     5  C   -0.077195
     6  H    0.126071
     7  H    0.280707
     8  H    0.269750
     9  H    0.122092
 Sum of Mulliken charges =   0.00000

 Dipole moment (field-independent basis, Debye):
    X=             -1.9708    Y=             -9.3876    Z=              0.6926  Tot=              9.6173
 N-N= 1.045303728417D+02 E-N=-1.699439732498D+02  KE=-1.510150207670D+01
 Orbital energies and kinetic energies (alpha):
                                 1                 2
   1         O                -1.768598         -1.286872
   2         O                -1.180038         -1.026146
   3         O                -0.953703         -0.851121
   4         O                -0.816765         -0.620315
   5         O                -0.759419         -0.674299
   6         O                -0.679321         -0.590644
   7         O                -0.661619         -0.535960

 Normal termination of Gaussian 09 at Tue Dec 15 17:06:14 2015.
