 Gaussian 09, Revision D.01,
 Gaussian 09:  ES64L-G09RevD.01 24-Apr-2013

 ------------------------------------------------------------
 #P AM1(Input,print) CIS(Singlets,NStates=15) pop(full) force
 ------------------------------------------------------------

 -----------------
 AM1-Reparam Input
 -----------------
 Symbolic Z-matrix:
 Charge =  0 Multiplicity = 1

                         Standard orientation:
 ---------------------------------------------------------------------
 Center     Atomic      Atomic             Coordinates (Angstroms)
 Number     Number       Type             X           Y           Z
 ---------------------------------------------------------------------
      1          6           0        0.906798    0.776835   -0.013504
      2          6           0        1.034385   -0.574751    0.020855
      3          8           0       -0.305036   -1.109669   -0.002194
      4          6           0       -1.147473   -0.105361   -0.002074
      5          6           0       -0.458687    1.060529   -0.015200
      6          1           0       -0.909003    2.133576    0.071905
      7          1           0       -2.221451   -0.316488    0.014679
      8          1           0        1.834847   -1.276483   -0.028184
      9          1           0        1.725766    1.393239    0.018693
 ---------------------------------------------------------------------

 SCF Done:  E(RAM1) =  -5.91820437097     A.U. after   13 cycles

 Excitation energies and oscillator strengths:

 Excited State   1:      Singlet-A      7.1211 eV  174.11 nm  f=0.2706  <S**2>=0.000
      11 -> 17        -0.11990
      12 -> 14        -0.15568
      13 -> 14         0.66405
 This state for optimization and/or second-order correction.
 Total Energy, E(CIS) =  -5.65650758946
 Copying the excited state density for this state as the 1-particle RhoCI density.

 Excited State   2:      Singlet-A      7.5070 eV  165.16 nm  f=0.0046  <S**2>=0.000
      12 -> 14         0.12392
      13 -> 15         0.62425
      13 -> 16         0.11519
      13 -> 17        -0.24030

 Excited State   3:      Singlet-A      7.6187 eV  162.74 nm  f=0.0249  <S**2>=0.000
      12 -> 14         0.67140
      13 -> 14         0.14988
      13 -> 15        -0.11086

 Excited State   4:      Singlet-A      8.3096 eV  149.21 nm  f=0.0093  <S**2>=0.000
      13 -> 15        -0.20436
      13 -> 16         0.55883
      13 -> 17        -0.31649
      13 -> 21        -0.13090

 Excited State   5:      Singlet-A      8.4814 eV  146.18 nm  f=0.0055  <S**2>=0.000
      11 -> 14         0.68831
      13 -> 16         0.11818

 Excited State   6:      Singlet-A      8.7972 eV  140.94 nm  f=0.0174  <S**2>=0.000
      13 -> 15         0.16003
      13 -> 16         0.33934
      13 -> 17         0.57398

 Excited State   7:      Singlet-A      9.3991 eV  131.91 nm  f=0.0229  <S**2>=0.000
      13 -> 18         0.67457

 Excited State   8:      Singlet-A      9.5487 eV  129.84 nm  f=0.0639  <S**2>=0.000
      10 -> 14         0.24843
      12 -> 15         0.24649
      13 -> 19         0.57890

 Excited State   9:      Singlet-A      9.6847 eV  128.02 nm  f=0.0042  <S**2>=0.000
      11 -> 17        -0.10010
      12 -> 15         0.55224
      12 -> 18         0.23564
      12 -> 21         0.11134
      13 -> 19        -0.25738

 Excited State  10:      Singlet-A      9.9979 eV  124.01 nm  f=0.0479  <S**2>=0.000
       9 -> 15        -0.16566
      11 -> 15        -0.26226
      11 -> 17         0.33802
      12 -> 16         0.26603
      12 -> 17        -0.28879
      12 -> 21        -0.10662
      12 -> 22         0.14532
      13 -> 14         0.10094

 Excited State  11:      Singlet-A     10.1114 eV  122.62 nm  f=0.0109  <S**2>=0.000
      10 -> 15         0.15349
      13 -> 20         0.36537
      13 -> 21         0.42173
      13 -> 22        -0.34403

 Excited State  12:      Singlet-A     10.3333 eV  119.98 nm  f=0.0241  <S**2>=0.000
      13 -> 20         0.54664
      13 -> 21        -0.37594
      13 -> 23         0.11207

 Excited State  13:      Singlet-A     10.3827 eV  119.41 nm  f=0.3609  <S**2>=0.000
      11 -> 18        -0.15652
      12 -> 15        -0.11621
      12 -> 16         0.43455
      12 -> 17         0.29564
      12 -> 18         0.30283
      12 -> 21        -0.13851
      13 -> 21        -0.11243

 Excited State  14:      Singlet-A     10.5293 eV  117.75 nm  f=0.1058  <S**2>=0.000
       9 -> 15         0.13889
      10 -> 14         0.24331
      11 -> 16        -0.13847
      11 -> 17         0.24159
      11 -> 21         0.10266
      12 -> 15         0.16469
      12 -> 16        -0.12177
      12 -> 17         0.41197
      12 -> 18        -0.25979
      13 -> 19        -0.10580

 Excited State  15:      Singlet-A     10.6905 eV  115.98 nm  f=0.0023  <S**2>=0.000
      10 -> 15        -0.15810
      10 -> 17         0.11551
      11 -> 15        -0.12195
      11 -> 16        -0.11697
      13 -> 20         0.16799
      13 -> 21         0.32535
      13 -> 22         0.49823

 The electronic state is 1-A.
 Alpha  occ. eigenvalues --   -3.76913  -1.41317  -1.08155  -1.04228  -0.96918
 Alpha  occ. eigenvalues --   -0.92776  -0.80491  -0.62263  -0.59104  -0.53975
 Alpha  occ. eigenvalues --   -0.48796  -0.45845  -0.38360
 Alpha virt. eigenvalues --    0.10171   0.12051   0.16017   0.18253   0.19725
 Alpha virt. eigenvalues --    0.21585   0.23396   0.26778   0.29181   0.31572
 Alpha virt. eigenvalues --    0.38559

 Mulliken charges:
               1
     1  C   -0.202722
     2  C   -1.791787
     3  O    2.862700
     4  C   -1.801188
     5  C   -0.253340
     6  H    0.220933
     7  H    0.372945
     8  H    0.352262
     9  H    0.240196
 Sum of Mulliken charges =   0.00000

 Dipole moment (field-independent basis, Debye):
    X=             -3.2609    Y=             -9.6195    Z=             -0.0989  Tot=             10.1577
 N-N= 1.049274082733D+02 E-N=-1.705624170693D+02  KE=-2.494599234560D+01
 Orbital energies and kinetic energies (alpha):
                                 1                 2
   1         O                -3.769130         -3.069212
   2         O                -1.413168         -1.394114
   3         O                -1.081553         -1.125097
   4         O                -1.042278         -1.048742
   5         O                -0.969181         -0.969167
   6         O                -0.927758         -0.846371
   7         O                -0.804907         -0.813775

 Normal termination of Gaussian 09 at Fri Dec 11 13:41:23 2015.
