 Gaussian 09, Revision D.01,
 Gaussian 09:  ES64L-G09RevD.01 24-Apr-2013

 ------------------------------------------------------------
 #P AM1(Input,print) CIS(Singlets,NStates=15) pop(full) force
 ------------------------------------------------------------

 -----------------
 AM1-Reparam Input
 -----------------
 Symbolic Z-matrix:
 Charge =  0 Multiplicity = 1

                         Standard orientation:
 ---------------------------------------------------------------------
 Center     Atomic      Atomic             Coordinates (Angstroms)
 Number     Number       Type             X           Y           Z
 ---------------------------------------------------------------------
      1          6           0       -0.975310    0.715668   -0.009273
      2          6           0       -0.928919   -0.602198   -0.018064
      3          8           0        0.318882   -1.148367    0.018147
      4          6           0        1.166129   -0.012823   -0.013168
      5          6           0        0.405930    1.103118    0.015270
      6          1           0        0.802026    2.164230   -0.016746
      7          1           0        2.195371   -0.198491   -0.022500
      8          1           0       -1.727105   -1.367089   -0.003242
      9          1           0       -1.828327    1.365698    0.048715
 ---------------------------------------------------------------------

 SCF Done:  E(RAM1) =  -6.71487268946     A.U. after   14 cycles

 Excitation energies and oscillator strengths:

 Excited State   1:      Singlet-A      6.0497 eV  204.94 nm  f=0.0017  <S**2>=0.000
      13 -> 14         0.16191
      13 -> 16         0.67751
 This state for optimization and/or second-order correction.
 Total Energy, E(CIS) =  -6.49254931073
 Copying the excited state density for this state as the 1-particle RhoCI density.

 Excited State   2:      Singlet-A      6.8930 eV  179.87 nm  f=0.1732  <S**2>=0.000
      11 -> 15        -0.17802
      13 -> 14         0.64803
      13 -> 16        -0.16205

 Excited State   3:      Singlet-A      7.1466 eV  173.49 nm  f=0.1560  <S**2>=0.000
      11 -> 14         0.17615
      13 -> 15         0.66019

 Excited State   4:      Singlet-A      8.1475 eV  152.17 nm  f=0.0005  <S**2>=0.000
      12 -> 14        -0.36559
      12 -> 15         0.56149
      13 -> 17         0.15247

 Excited State   5:      Singlet-A      8.4099 eV  147.43 nm  f=0.0002  <S**2>=0.000
      13 -> 17         0.14957
      13 -> 18        -0.32317
      13 -> 19         0.59050

 Excited State   6:      Singlet-A      8.5838 eV  144.44 nm  f=0.0003  <S**2>=0.000
      12 -> 14         0.12205
      12 -> 15        -0.12137
      13 -> 17         0.53220
      13 -> 18         0.37111
      13 -> 23         0.12948

 Excited State   7:      Singlet-A      8.8587 eV  139.96 nm  f=0.0011  <S**2>=0.000
      10 -> 15         0.34523
      12 -> 14         0.48475
      12 -> 15         0.31478

 Excited State   8:      Singlet-A      8.9192 eV  139.01 nm  f=0.0010  <S**2>=0.000
      11 -> 14         0.21445
      11 -> 16         0.63037
      13 -> 17        -0.11195

 Excited State   9:      Singlet-A      9.1349 eV  135.73 nm  f=0.0445  <S**2>=0.000
      12 -> 16        -0.12091
      13 -> 17        -0.29349
      13 -> 18         0.44956
      13 -> 19         0.34148
      13 -> 20        -0.17104
      13 -> 22         0.11952

 Excited State  10:      Singlet-A      9.1995 eV  134.77 nm  f=0.0174  <S**2>=0.000
      10 -> 15        -0.14169
      11 -> 14         0.16512
      11 -> 15        -0.21510
      12 -> 14         0.11499
      12 -> 16         0.56609

 Excited State  11:      Singlet-A      9.3318 eV  132.86 nm  f=0.0405  <S**2>=0.000
       9 -> 16         0.18035
      10 -> 14        -0.19748
      10 -> 15         0.30905
      11 -> 14         0.34925
      11 -> 15         0.20889
      11 -> 16        -0.17908
      12 -> 14        -0.20936
      12 -> 15        -0.14249
      12 -> 17         0.11088

 Excited State  12:      Singlet-A      9.3718 eV  132.29 nm  f=0.0374  <S**2>=0.000
       9 -> 15        -0.12673
       9 -> 16        -0.14852
      10 -> 14        -0.15044
      10 -> 15         0.38291
      11 -> 14        -0.35489
      11 -> 15        -0.14082
      11 -> 16         0.13620
      12 -> 14        -0.18261
      12 -> 16         0.22735

 Excited State  13:      Singlet-A     10.0402 eV  123.49 nm  f=0.0333  <S**2>=0.000
       9 -> 16        -0.12950
      10 -> 16        -0.21915
      11 -> 14        -0.15486
      12 -> 17         0.44183
      12 -> 18         0.17969
      12 -> 19         0.21517
      12 -> 20         0.10133
      12 -> 21         0.15692

 Excited State  14:      Singlet-A     10.2023 eV  121.53 nm  f=0.2352  <S**2>=0.000
      10 -> 14         0.22230
      11 -> 14        -0.17292
      11 -> 15         0.47872
      12 -> 16         0.21996
      12 -> 18        -0.10188
      12 -> 19        -0.12442
      12 -> 20        -0.11386
      13 -> 14         0.15018
      13 -> 20         0.12105

 Excited State  15:      Singlet-A     10.2309 eV  121.19 nm  f=0.0250  <S**2>=0.000
      11 -> 15        -0.12513
      13 -> 17        -0.17585
      13 -> 18         0.11301
      13 -> 20         0.60881
      13 -> 22        -0.14834

 The electronic state is 1-A.
 Alpha  occ. eigenvalues --   -3.91060  -1.26552  -0.97426  -0.95932  -0.89653
 Alpha  occ. eigenvalues --   -0.89205  -0.78570  -0.61657  -0.58747  -0.52640
 Alpha  occ. eigenvalues --   -0.51124  -0.49279  -0.39621
 Alpha virt. eigenvalues --    0.08180   0.08993   0.09371   0.16910   0.17922
 Alpha virt. eigenvalues --    0.18780   0.23003   0.23623   0.26355   0.29274
 Alpha virt. eigenvalues --    0.29949

 Mulliken charges:
               1
     1  C   -0.199430
     2  C   -1.260272
     3  O    2.105160
     4  C   -1.285628
     5  C   -0.180555
     6  H    0.171284
     7  H    0.239393
     8  H    0.237521
     9  H    0.172527
 Sum of Mulliken charges =   0.00000

 Dipole moment (field-independent basis, Debye):
    X=              1.7100    Y=             -7.6982    Z=              0.3370  Tot=              7.8931
 N-N= 1.034834455790D+02 E-N=-1.692106392127D+02  KE=-2.555666193608D+01
 Orbital energies and kinetic energies (alpha):
                                 1                 2
   1         O                -3.910601         -3.296641
   2         O                -1.265524         -1.273839
   3         O                -0.974258         -1.056094
   4         O                -0.959317         -1.019308
   5         O                -0.896532         -0.867453
   6         O                -0.892053         -0.933218
   7         O                -0.785702         -0.839537

 Normal termination of Gaussian 09 at Fri Dec 11 13:41:28 2015.
