 Gaussian 09, Revision D.01,
 Gaussian 09:  ES64L-G09RevD.01 24-Apr-2013

 -------------------------------------------------------
 #P B3LYP/3-21G CIS(Singlets,NStates=15) pop(full) force
 -------------------------------------------------------

 --------
 FuranDFT
 --------
 Symbolic Z-matrix:
 Charge =  0 Multiplicity = 1

                         Standard orientation:
 ---------------------------------------------------------------------
 Center     Atomic      Atomic             Coordinates (Angstroms)
 Number     Number       Type             X           Y           Z
 ---------------------------------------------------------------------
      1          6           0        1.167013   -0.258812   -0.004737
      2          6           0        0.108758   -1.117973   -0.004070
      3          8           0       -1.113809   -0.441459    0.003735
      4          6           0       -0.706110    0.856629    0.002176
      5          6           0        0.623408    0.998950   -0.000937
      6          1           0        1.147896    1.909734    0.006692
      7          1           0       -1.591595    1.537298   -0.015170
      8          1           0       -0.026602   -2.201753    0.001494
      9          1           0        2.222362   -0.586368    0.022516
 ---------------------------------------------------------------------

 SCF Done:  E(RB3LYP) =  -228.739457029     A.U. after   14 cycles

 Excitation energies and oscillator strengths:

 Excited State   1:      Singlet-A      7.0439 eV  176.02 nm  f=0.2159  <S**2>=0.000
      18 -> 19         0.67894
 This state for optimization and/or second-order correction.
 Total Energy, E(CIS) =  -228.480600242
 Copying the excited state density for this state as the 1-particle RhoCI density.

 Excited State   2:      Singlet-A      7.4522 eV  166.37 nm  f=0.0048  <S**2>=0.000
      17 -> 19         0.50364
      18 -> 20         0.47755

 Excited State   3:      Singlet-A      8.1947 eV  151.30 nm  f=0.0002  <S**2>=0.000
      18 -> 21         0.69968

 Excited State   4:      Singlet-A      9.0875 eV  136.43 nm  f=0.0054  <S**2>=0.000
      16 -> 19         0.69837

 Excited State   5:      Singlet-A      9.2544 eV  133.97 nm  f=0.0016  <S**2>=0.000
      18 -> 22         0.64253
      18 -> 23        -0.23837

 Excited State   6:      Singlet-A      9.5423 eV  129.93 nm  f=0.0001  <S**2>=0.000
      17 -> 21        -0.13774
      18 -> 22         0.25381
      18 -> 23         0.62181
      18 -> 24        -0.10400

 Excited State   7:      Singlet-A      9.8652 eV  125.68 nm  f=0.2835  <S**2>=0.000
      17 -> 19        -0.32059
      17 -> 20        -0.13449
      17 -> 21         0.43916
      18 -> 20         0.34655
      18 -> 23         0.12206

 Excited State   8:      Singlet-A      9.9253 eV  124.92 nm  f=0.2453  <S**2>=0.000
      17 -> 19         0.29140
      17 -> 21         0.50735
      18 -> 20        -0.31412

 Excited State   9:      Singlet-A     10.0703 eV  123.12 nm  f=0.0012  <S**2>=0.000
      14 -> 19         0.15247
      15 -> 19         0.66763

 Excited State  10:      Singlet-A     10.1880 eV  121.70 nm  f=0.1707  <S**2>=0.000
      14 -> 19         0.20365
      17 -> 20         0.63406
      18 -> 24         0.10601

 Excited State  11:      Singlet-A     10.2109 eV  121.42 nm  f=0.0300  <S**2>=0.000
      14 -> 19         0.62633
      15 -> 19        -0.13993
      17 -> 20        -0.20194
      18 -> 24         0.16228

 Excited State  12:      Singlet-A     10.3432 eV  119.87 nm  f=0.0039  <S**2>=0.000
      14 -> 19        -0.17315
      18 -> 23         0.10971
      18 -> 24         0.66015

 Excited State  13:      Singlet-A     10.6418 eV  116.51 nm  f=0.0009  <S**2>=0.000
      13 -> 19         0.67123
      16 -> 20        -0.14937

 Excited State  14:      Singlet-A     10.8063 eV  114.73 nm  f=0.0088  <S**2>=0.000
      17 -> 22         0.18304
      18 -> 25         0.65499
      18 -> 26         0.11208

 Excited State  15:      Singlet-A     10.9063 eV  113.68 nm  f=0.0004  <S**2>=0.000
      17 -> 22         0.66435
      18 -> 25        -0.16676
      18 -> 26        -0.11684

 The electronic state is 1-A.
 Alpha  occ. eigenvalues --  -19.11636 -10.17508 -10.17456 -10.12823 -10.11881
 Alpha  occ. eigenvalues --   -1.12476  -0.82612  -0.73925  -0.60126  -0.57062
 Alpha  occ. eigenvalues --   -0.54540  -0.44770  -0.42738  -0.41365  -0.41188
 Alpha  occ. eigenvalues --   -0.37616  -0.29028  -0.22863
 Alpha virt. eigenvalues --    0.01605   0.09094   0.11969   0.15528   0.16791
 Alpha virt. eigenvalues --    0.19099   0.21611   0.23016   0.33999   0.44237
 Alpha virt. eigenvalues --    0.47900   0.67422   0.69974   0.72310   0.75623

 Mulliken charges:
               1
     1  C   -0.227912
     2  C    0.048461
     3  O   -0.464344
     4  C    0.099820
     5  C   -0.261799
     6  H    0.193612
     7  H    0.208436
     8  H    0.210584
     9  H    0.193142
 Sum of Mulliken charges =   0.00000

 Dipole moment (field-independent basis, Debye):
    X=              0.8013    Y=              0.2853    Z=              0.0152  Tot=              0.8507
 Quadrupole moment (field-independent basis, Debye-Ang):
   XX=            -27.3023   YY=            -24.7701   ZZ=            -31.7462
   XY=             -1.4633   XZ=              0.1049   YZ=             -0.0366

 Normal termination of Gaussian 09 at Tue Dec 15 16:12:59 2015.
