 Gaussian 09, Revision D.01,
 Gaussian 09:  ES64L-G09RevD.01 24-Apr-2013

 ------------------------------------------------------------
 #P AM1(Input,print) CIS(Singlets,NStates=15) pop(full) force
 ------------------------------------------------------------

 -----------------
 AM1-Reparam Input
 -----------------
 Symbolic Z-matrix:
 Charge =  0 Multiplicity = 1

                         Standard orientation:
 ---------------------------------------------------------------------
 Center     Atomic      Atomic             Coordinates (Angstroms)
 Number     Number       Type             X           Y           Z
 ---------------------------------------------------------------------
      1          6           0       -0.635852    0.987878    0.013521
      2          6           0       -1.130008   -0.288040    0.007647
      3          8           0       -0.073227   -1.147976    0.000258
      4          6           0        1.100177   -0.403273   -0.007055
      5          6           0        0.726460    0.910716   -0.029787
      6          1           0        1.488692    1.726728    0.064265
      7          1           0        2.010116   -0.945801    0.059112
      8          1           0       -2.049912   -0.717208   -0.032770
      9          1           0       -1.227742    1.876404    0.001369
 ---------------------------------------------------------------------

 SCF Done:  E(RAM1) =   1.70833735901     A.U. after   13 cycles

 Excitation energies and oscillator strengths:

 Excited State   1:      Singlet-A      5.6308 eV  220.19 nm  f=0.3052  <S**2>=0.000
      10 -> 17         0.10252
      13 -> 14         0.68778
 This state for optimization and/or second-order correction.
 Total Energy, E(CIS) =   1.91526399490
 Copying the excited state density for this state as the 1-particle RhoCI density.

 Excited State   2:      Singlet-A      6.6695 eV  185.90 nm  f=0.0112  <S**2>=0.000
      11 -> 16        -0.10370
      13 -> 15         0.63297
      13 -> 17        -0.27351

 Excited State   3:      Singlet-A      7.0317 eV  176.32 nm  f=0.0000  <S**2>=0.000
      11 -> 15        -0.14550
      13 -> 16         0.63110
      13 -> 18        -0.10626
      13 -> 19        -0.12165
      13 -> 21        -0.20294

 Excited State   4:      Singlet-A      7.3881 eV  167.82 nm  f=0.0013  <S**2>=0.000
      10 -> 14         0.10196
      12 -> 14         0.64850
      13 -> 21         0.16867

 Excited State   5:      Singlet-A      7.8520 eV  157.90 nm  f=0.0006  <S**2>=0.000
      10 -> 14         0.10732
      12 -> 14        -0.23512
      13 -> 18        -0.12730
      13 -> 19        -0.14899
      13 -> 20         0.29161
      13 -> 21         0.53436

 Excited State   6:      Singlet-A      7.8864 eV  157.21 nm  f=0.0163  <S**2>=0.000
      10 -> 14         0.45959
      11 -> 14         0.22042
      13 -> 15        -0.18228
      13 -> 17        -0.41627
      13 -> 20        -0.10582

 Excited State   7:      Singlet-A      8.0275 eV  154.45 nm  f=0.0042  <S**2>=0.000
      10 -> 14         0.40613
      11 -> 14         0.20997
      11 -> 16        -0.11333
      13 -> 15         0.16088
      13 -> 17         0.48182

 Excited State   8:      Singlet-A      8.6630 eV  143.12 nm  f=0.0008  <S**2>=0.000
      11 -> 15        -0.11927
      13 -> 16         0.17331
      13 -> 18         0.56734
      13 -> 19         0.27622
      13 -> 21         0.19455

 Excited State   9:      Singlet-A      8.7893 eV  141.06 nm  f=0.0279  <S**2>=0.000
      10 -> 14         0.16621
      11 -> 14        -0.33894
      13 -> 18        -0.27990
      13 -> 19         0.44232
      13 -> 20        -0.19855
      13 -> 21         0.12677

 Excited State  10:      Singlet-A      8.8185 eV  140.60 nm  f=0.0634  <S**2>=0.000
      10 -> 14        -0.25081
      11 -> 14         0.50644
      13 -> 18        -0.23150
      13 -> 19         0.28155
      13 -> 20        -0.12240

 Excited State  11:      Singlet-A      9.2657 eV  133.81 nm  f=0.0930  <S**2>=0.000
      13 -> 19         0.30192
      13 -> 20         0.56208
      13 -> 21        -0.23905

 Excited State  12:      Singlet-A      9.4646 eV  131.00 nm  f=0.0830  <S**2>=0.000
       8 -> 15         0.11780
       9 -> 16        -0.11306
      10 -> 15        -0.27638
      10 -> 17         0.31455
      11 -> 15        -0.15662
      11 -> 17         0.16297
      12 -> 16        -0.18100
      12 -> 17        -0.13071
      12 -> 18         0.13428
      12 -> 19        -0.11982
      12 -> 20         0.14765
      12 -> 21         0.21411
      13 -> 14        -0.11728

 Excited State  13:      Singlet-A      9.8928 eV  125.33 nm  f=0.0036  <S**2>=0.000
      10 -> 15        -0.16240
      11 -> 15         0.56618
      11 -> 17        -0.15212
      12 -> 15         0.17534
      13 -> 16         0.18701

 Excited State  14:      Singlet-A     10.0673 eV  123.16 nm  f=0.0765  <S**2>=0.000
      10 -> 16        -0.14529
      10 -> 18         0.13190
      11 -> 15        -0.12031
      11 -> 16        -0.16854
      12 -> 15         0.50963
      12 -> 16         0.17643
      12 -> 17        -0.10213
      12 -> 18        -0.14831
      12 -> 19         0.13086
      12 -> 20         0.11414

 Excited State  15:      Singlet-A     10.1860 eV  121.72 nm  f=0.2530  <S**2>=0.000
       8 -> 16        -0.11900
       9 -> 15         0.13093
      10 -> 16         0.11342
      10 -> 19        -0.20619
      10 -> 20         0.12785
      11 -> 19        -0.13139
      12 -> 16        -0.30941
      12 -> 17         0.34050
      12 -> 19         0.22520
      12 -> 20         0.13015
      12 -> 21         0.12752

 The electronic state is 1-A.
 Alpha  occ. eigenvalues --   -1.91213  -1.23561  -1.00032  -0.82443  -0.81232
 Alpha  occ. eigenvalues --   -0.68869  -0.63569  -0.55181  -0.52495  -0.42946
 Alpha  occ. eigenvalues --   -0.42238  -0.41444  -0.29153
 Alpha virt. eigenvalues --    0.13066   0.19139   0.19990   0.23934   0.26746
 Alpha virt. eigenvalues --    0.28080   0.28812   0.29460   0.35648   0.44433
 Alpha virt. eigenvalues --    0.49507

 Mulliken charges:
               1
     1  C   -0.133957
     2  C   -1.955068
     3  O    3.194255
     4  C   -1.954108
     5  C   -0.107075
     6  H    0.178931
     7  H    0.298066
     8  H    0.297042
     9  H    0.181913
 Sum of Mulliken charges =   0.00000

 Dipole moment (field-independent basis, Debye):
    X=             -0.5914    Y=            -10.1189    Z=              0.1041  Tot=             10.1367
 N-N= 1.041339402267D+02 E-N=-1.695957231343D+02  KE=-1.576793730998D+01
 Orbital energies and kinetic energies (alpha):
                                 1                 2
   1         O                -1.912133         -1.375163
   2         O                -1.235607         -1.105925
   3         O                -1.000324         -0.917404
   4         O                -0.824433         -0.681268
   5         O                -0.812317         -0.665491
   6         O                -0.688690         -0.590664
   7         O                -0.635686         -0.516594

 Normal termination of Gaussian 09 at Tue Dec 15 17:07:00 2015.
