 Gaussian 09, Revision D.01,
 Gaussian 09:  ES64L-G09RevD.01 24-Apr-2013

 ------------------------------------------------------------
 #P AM1(Input,print) CIS(Singlets,NStates=15) pop(full) force
 ------------------------------------------------------------

 -----------------
 AM1-Reparam Input
 -----------------
 Symbolic Z-matrix:
 Charge =  0 Multiplicity = 1

                         Standard orientation:
 ---------------------------------------------------------------------
 Center     Atomic      Atomic             Coordinates (Angstroms)
 Number     Number       Type             X           Y           Z
 ---------------------------------------------------------------------
      1          6           0       -0.885270    0.787392    0.015701
      2          6           0       -1.065905   -0.472591   -0.015346
      3          8           0        0.213108   -1.146504    0.022311
      4          6           0        1.169657   -0.156108   -0.021829
      5          6           0        0.536669    1.068398   -0.009674
      6          1           0        1.077165    1.969415    0.057703
      7          1           0        2.133243   -0.528447   -0.004625
      8          1           0       -1.874166   -1.175156   -0.029939
      9          1           0       -1.572016    1.543671   -0.014736
 ---------------------------------------------------------------------

 SCF Done:  E(RAM1) =  -5.69623912952     A.U. after   13 cycles

 Excitation energies and oscillator strengths:

 Excited State   1:      Singlet-A      6.0911 eV  203.55 nm  f=0.3447  <S**2>=0.000
      13 -> 14         0.69547
 This state for optimization and/or second-order correction.
 Total Energy, E(CIS) =  -5.47239354067
 Copying the excited state density for this state as the 1-particle RhoCI density.

 Excited State   2:      Singlet-A      7.3117 eV  169.57 nm  f=0.0011  <S**2>=0.000
      10 -> 14         0.21980
      11 -> 14        -0.45805
      12 -> 14         0.48576

 Excited State   3:      Singlet-A      7.9652 eV  155.66 nm  f=0.0028  <S**2>=0.000
      10 -> 14         0.41664
      11 -> 14         0.48443
      12 -> 14         0.27668

 Excited State   4:      Singlet-A      8.4563 eV  146.62 nm  f=0.0004  <S**2>=0.000
      12 -> 14        -0.11279
      13 -> 16         0.66134
      13 -> 17         0.11175

 Excited State   5:      Singlet-A      8.6995 eV  142.52 nm  f=0.0295  <S**2>=0.000
      10 -> 14         0.32906
      11 -> 14        -0.13669
      12 -> 14        -0.27927
      13 -> 15         0.52502

 Excited State   6:      Singlet-A      8.7581 eV  141.56 nm  f=0.0284  <S**2>=0.000
      10 -> 14        -0.37972
      11 -> 14         0.13747
      12 -> 14         0.30468
      13 -> 15         0.44122
      13 -> 16         0.15598

 Excited State   7:      Singlet-A      9.0480 eV  137.03 nm  f=0.0033  <S**2>=0.000
      13 -> 16        -0.12454
      13 -> 17         0.67836

 Excited State   8:      Singlet-A     10.4573 eV  118.56 nm  f=0.0013  <S**2>=0.000
      13 -> 18         0.68406

 Excited State   9:      Singlet-A     10.5826 eV  117.16 nm  f=0.0411  <S**2>=0.000
       8 -> 14         0.36958
       9 -> 14         0.56416

 Excited State  10:      Singlet-A     11.0345 eV  112.36 nm  f=0.0342  <S**2>=0.000
       8 -> 14         0.56456
       9 -> 14        -0.35033
      12 -> 17         0.10261

 Excited State  11:      Singlet-A     11.0875 eV  111.82 nm  f=0.0001  <S**2>=0.000
      13 -> 19         0.67781
      13 -> 20         0.13239

 Excited State  12:      Singlet-A     11.5956 eV  106.92 nm  f=0.0002  <S**2>=0.000
      13 -> 19        -0.14124
      13 -> 20         0.68441

 Excited State  13:      Singlet-A     11.6483 eV  106.44 nm  f=0.0058  <S**2>=0.000
       8 -> 14        -0.12630
      10 -> 15         0.17078
      11 -> 15        -0.19162
      12 -> 15         0.62737

 Excited State  14:      Singlet-A     11.7790 eV  105.26 nm  f=0.0469  <S**2>=0.000
      10 -> 16         0.27692
      11 -> 16        -0.33781
      12 -> 16         0.46330
      12 -> 17        -0.11525
      12 -> 19         0.12759

 Excited State  15:      Singlet-A     12.0223 eV  103.13 nm  f=0.1237  <S**2>=0.000
      10 -> 16         0.10092
      10 -> 17         0.17005
      11 -> 16         0.42809
      12 -> 16         0.38530
      12 -> 17         0.23731

 The electronic state is 1-A.
 Alpha  occ. eigenvalues --   -3.83782  -1.24035  -0.98725  -0.93086  -0.92667
 Alpha  occ. eigenvalues --   -0.84807  -0.80229  -0.69489  -0.66052  -0.61222
 Alpha  occ. eigenvalues --   -0.58970  -0.56432  -0.46336
 Alpha virt. eigenvalues --   -0.02659   0.08602   0.08857   0.11247   0.16270
 Alpha virt. eigenvalues --    0.20512   0.21540   0.30675   0.39068   0.50492
 Alpha virt. eigenvalues --    0.55955

 Mulliken charges:
               1
     1  C   -0.215127
     2  C   -1.442656
     3  O    3.009868
     4  C   -1.486036
     5  C   -0.349583
     6  H    0.140763
     7  H    0.103826
     8  H    0.102229
     9  H    0.136716
 Sum of Mulliken charges =   0.00000

 Dipole moment (field-independent basis, Debye):
    X=              1.7739    Y=            -11.7225    Z=              0.5432  Tot=             11.8684
 N-N= 1.047536164564D+02 E-N=-1.712484264850D+02  KE=-2.333465071158D+01
 Orbital energies and kinetic energies (alpha):
                                 1                 2
   1         O                -3.837819         -3.050759
   2         O                -1.240353         -1.095494
   3         O                -0.987249         -0.799435
   4         O                -0.930855         -0.840529
   5         O                -0.926667         -0.797924
   6         O                -0.848074         -0.796015
   7         O                -0.802290         -0.812538

 Normal termination of Gaussian 09 at Fri Dec 11 13:41:39 2015.
