 Gaussian 09, Revision D.01,
 Gaussian 09:  ES64L-G09RevD.01 24-Apr-2013

 ------------------------------------------------------------
 #P AM1(Input,print) CIS(Singlets,NStates=15) pop(full) force
 ------------------------------------------------------------

 -----------------
 AM1-Reparam Input
 -----------------
 Symbolic Z-matrix:
 Charge =  0 Multiplicity = 1

                         Standard orientation:
 ---------------------------------------------------------------------
 Center     Atomic      Atomic             Coordinates (Angstroms)
 Number     Number       Type             X           Y           Z
 ---------------------------------------------------------------------
      1          6           0       -0.520978    1.102256   -0.031309
      2          6           0       -1.158001   -0.172240   -0.009191
      3          8           0       -0.207656   -1.147392    0.007263
      4          6           0        1.042012   -0.528583   -0.022241
      5          6           0        0.868888    0.809823    0.035096
      6          1           0        1.608042    1.564539    0.007360
      7          1           0        1.895582   -1.141840   -0.003126
      8          1           0       -2.203763   -0.517997    0.079096
      9          1           0       -1.030141    2.006900    0.024441
 ---------------------------------------------------------------------

 SCF Done:  E(RAM1) =   1.38381945848     A.U. after   13 cycles

 Excitation energies and oscillator strengths:

 Excited State   1:      Singlet-A      6.0607 eV  204.57 nm  f=0.3144  <S**2>=0.000
      13 -> 14         0.69096
 This state for optimization and/or second-order correction.
 Total Energy, E(CIS) =   1.60654582262
 Copying the excited state density for this state as the 1-particle RhoCI density.

 Excited State   2:      Singlet-A      6.4703 eV  191.62 nm  f=0.0040  <S**2>=0.000
      12 -> 15        -0.10406
      13 -> 15         0.63805
      13 -> 16         0.10595
      13 -> 17        -0.21759

 Excited State   3:      Singlet-A      6.8871 eV  180.02 nm  f=0.0002  <S**2>=0.000
      12 -> 15         0.14273
      12 -> 16         0.10562
      13 -> 16         0.64155
      13 -> 21         0.11941
      13 -> 22         0.11331

 Excited State   4:      Singlet-A      7.4848 eV  165.65 nm  f=0.0020  <S**2>=0.000
      11 -> 14         0.64784
      12 -> 14         0.23790

 Excited State   5:      Singlet-A      7.7863 eV  159.23 nm  f=0.0124  <S**2>=0.000
      10 -> 14        -0.10446
      12 -> 15        -0.12120
      13 -> 15         0.18788
      13 -> 17         0.63795
      13 -> 22         0.13198

 Excited State   6:      Singlet-A      8.1853 eV  151.47 nm  f=0.0027  <S**2>=0.000
      12 -> 15        -0.14502
      12 -> 16        -0.10270
      13 -> 17        -0.12576
      13 -> 19        -0.37680
      13 -> 22         0.52519

 Excited State   7:      Singlet-A      8.3367 eV  148.72 nm  f=0.0176  <S**2>=0.000
      10 -> 14        -0.27598
      11 -> 14        -0.18567
      12 -> 14         0.50942
      13 -> 18         0.33388

 Excited State   8:      Singlet-A      8.3624 eV  148.26 nm  f=0.0041  <S**2>=0.000
      10 -> 14         0.62936
      11 -> 14        -0.10627
      12 -> 14         0.21185
      13 -> 18         0.15377

 Excited State   9:      Singlet-A      8.8136 eV  140.67 nm  f=0.0042  <S**2>=0.000
      12 -> 15        -0.32270
      13 -> 19         0.11925
      13 -> 20         0.48398
      13 -> 21         0.34273

 Excited State  10:      Singlet-A      8.9194 eV  139.01 nm  f=0.0002  <S**2>=0.000
      12 -> 15        -0.18407
      13 -> 16         0.11358
      13 -> 19         0.53427
      13 -> 20        -0.23075
      13 -> 21        -0.11121
      13 -> 22         0.26836

 Excited State  11:      Singlet-A      9.1225 eV  135.91 nm  f=0.0061  <S**2>=0.000
      12 -> 15         0.47200
      12 -> 17        -0.10651
      13 -> 15         0.14556
      13 -> 16        -0.14983
      13 -> 19         0.17432
      13 -> 21         0.28729
      13 -> 22         0.26694

 Excited State  12:      Singlet-A      9.1970 eV  134.81 nm  f=0.1878  <S**2>=0.000
      12 -> 14        -0.32705
      13 -> 18         0.54789
      13 -> 20        -0.13038
      13 -> 21         0.15101

 Excited State  13:      Singlet-A      9.3241 eV  132.97 nm  f=0.0751  <S**2>=0.000
      12 -> 14         0.11389
      12 -> 15        -0.14026
      12 -> 16        -0.28701
      13 -> 18        -0.16963
      13 -> 20        -0.34053
      13 -> 21         0.41735
      13 -> 22        -0.16053

 Excited State  14:      Singlet-A      9.7586 eV  127.05 nm  f=0.0119  <S**2>=0.000
      12 -> 16         0.53984
      12 -> 21         0.10650
      13 -> 15        -0.10903
      13 -> 16        -0.13632
      13 -> 20        -0.20707
      13 -> 21         0.24446

 Excited State  15:      Singlet-A      9.9249 eV  124.92 nm  f=0.0372  <S**2>=0.000
       8 -> 15        -0.18943
      10 -> 15         0.15131
      10 -> 16         0.15249
      10 -> 17        -0.26391
      11 -> 15        -0.23598
      11 -> 16         0.31405
      11 -> 17         0.15951
      11 -> 19        -0.21636
      11 -> 22         0.12132
      12 -> 16        -0.11081

 The electronic state is 1-A.
 Alpha  occ. eigenvalues --   -1.87998  -1.18097  -0.94725  -0.78527  -0.77781
 Alpha  occ. eigenvalues --   -0.67385  -0.60781  -0.50345  -0.48256  -0.40771
 Alpha  occ. eigenvalues --   -0.38481  -0.36603  -0.25386
 Alpha virt. eigenvalues --    0.17218   0.21304   0.23324   0.28441   0.29501
 Alpha virt. eigenvalues --    0.31205   0.32782   0.33989   0.35143   0.39935
 Alpha virt. eigenvalues --    0.45357

 Mulliken charges:
               1
     1  C   -0.087104
     2  C   -1.576298
     3  O    2.789794
     4  C   -1.552443
     5  C   -0.025540
     6  H    0.062093
     7  H    0.160066
     8  H    0.159894
     9  H    0.069538
 Sum of Mulliken charges =   0.00000

 Dipole moment (field-independent basis, Debye):
    X=             -1.5709    Y=             -9.3837    Z=              0.4511  Tot=              9.5250
 N-N= 1.031426664623D+02 E-N=-1.691881810806D+02  KE=-1.582679186187D+01
 Orbital energies and kinetic energies (alpha):
                                 1                 2
   1         O                -1.879977         -1.363811
   2         O                -1.180969         -1.073938
   3         O                -0.947251         -0.871273
   4         O                -0.785274         -0.635430
   5         O                -0.777811         -0.699391
   6         O                -0.673849         -0.632500
   7         O                -0.607813         -0.535524

 Normal termination of Gaussian 09 at Tue Dec 15 17:07:53 2015.
