 Gaussian 09, Revision D.01,
 Gaussian 09:  ES64L-G09RevD.01 24-Apr-2013

 ------------------------------------------------------------
 #P AM1(Input,print) CIS(Singlets,NStates=15) pop(full) force
 ------------------------------------------------------------

 -----------------
 AM1-Reparam Input
 -----------------
 Symbolic Z-matrix:
 Charge =  0 Multiplicity = 1

                         Standard orientation:
 ---------------------------------------------------------------------
 Center     Atomic      Atomic             Coordinates (Angstroms)
 Number     Number       Type             X           Y           Z
 ---------------------------------------------------------------------
      1          6           0       -0.604638    1.068931   -0.015413
      2          6           0       -1.152340   -0.264023    0.032375
      3          8           0       -0.149541   -1.118586   -0.035039
      4          6           0        1.069541   -0.492961    0.036707
      5          6           0        0.853211    0.849429   -0.018215
      6          1           0        1.528250    1.653489    0.034645
      7          1           0        1.939498   -1.071980    0.000474
      8          1           0       -2.163899   -0.586992    0.032373
      9          1           0       -1.102162    1.985913    0.000107
 ---------------------------------------------------------------------

 SCF Done:  E(RAM1) =   2.78199064384     A.U. after   13 cycles

 Excitation energies and oscillator strengths:

 Excited State   1:      Singlet-A      5.1951 eV  238.66 nm  f=0.3649  <S**2>=0.000
      13 -> 14         0.69699
 This state for optimization and/or second-order correction.
 Total Energy, E(CIS) =   2.97290709738
 Copying the excited state density for this state as the 1-particle RhoCI density.

 Excited State   2:      Singlet-A      6.4977 eV  190.81 nm  f=0.0010  <S**2>=0.000
       9 -> 14         0.14432
      12 -> 14         0.68679

 Excited State   3:      Singlet-A      6.5594 eV  189.02 nm  f=0.0092  <S**2>=0.000
      13 -> 15         0.63621
      13 -> 17         0.25442

 Excited State   4:      Singlet-A      6.8882 eV  180.00 nm  f=0.0039  <S**2>=0.000
      13 -> 15         0.10598
      13 -> 16         0.60361
      13 -> 18        -0.31003

 Excited State   5:      Singlet-A      7.6912 eV  161.20 nm  f=0.0001  <S**2>=0.000
      10 -> 14         0.11914
      11 -> 15         0.10922
      13 -> 16         0.23117
      13 -> 17         0.11695
      13 -> 18         0.33656
      13 -> 19         0.45917
      13 -> 20        -0.24881

 Excited State   6:      Singlet-A      7.8429 eV  158.09 nm  f=0.0052  <S**2>=0.000
      10 -> 14         0.68140

 Excited State   7:      Singlet-A      8.3330 eV  148.79 nm  f=0.0890  <S**2>=0.000
      11 -> 14         0.59875
      13 -> 15        -0.10221
      13 -> 17         0.30793

 Excited State   8:      Singlet-A      8.3572 eV  148.36 nm  f=0.0439  <S**2>=0.000
      11 -> 14        -0.34105
      11 -> 16        -0.10316
      13 -> 15        -0.17070
      13 -> 17         0.53777
      13 -> 18        -0.11640

 Excited State   9:      Singlet-A      8.7735 eV  141.32 nm  f=0.0004  <S**2>=0.000
      11 -> 15        -0.11628
      13 -> 16        -0.18067
      13 -> 18        -0.41748
      13 -> 19         0.48887

 Excited State  10:      Singlet-A      9.1688 eV  135.22 nm  f=0.0004  <S**2>=0.000
      13 -> 18         0.21860
      13 -> 19         0.12555
      13 -> 20         0.56919
      13 -> 21         0.30621

 Excited State  11:      Singlet-A      9.4081 eV  131.78 nm  f=0.0255  <S**2>=0.000
       9 -> 14         0.55609
      12 -> 14        -0.12091
      12 -> 15         0.13312
      12 -> 16        -0.15180
      12 -> 18         0.14582
      12 -> 19         0.11544
      13 -> 21         0.18136

 Excited State  12:      Singlet-A      9.4323 eV  131.45 nm  f=0.0639  <S**2>=0.000
       9 -> 14         0.10042
      10 -> 17         0.11369
      12 -> 15        -0.19837
      12 -> 16         0.19301
      12 -> 17        -0.10365
      12 -> 18        -0.19736
      12 -> 19        -0.14746
      13 -> 19        -0.11923
      13 -> 20        -0.16848
      13 -> 21         0.46348

 Excited State  13:      Singlet-A      9.4688 eV  130.94 nm  f=0.0483  <S**2>=0.000
       9 -> 14         0.36386
      12 -> 15        -0.18405
      12 -> 16         0.17048
      12 -> 18        -0.16687
      12 -> 19        -0.12064
      13 -> 20         0.22824
      13 -> 21        -0.35682

 Excited State  14:      Singlet-A      9.7058 eV  127.74 nm  f=0.0206  <S**2>=0.000
      10 -> 15         0.20432
      10 -> 16        -0.10248
      10 -> 17         0.10470
      12 -> 15         0.53022
      12 -> 16         0.26137
      12 -> 17         0.15523
      12 -> 18        -0.12030
      12 -> 19        -0.11477

 Excited State  15:      Singlet-A      9.9262 eV  124.91 nm  f=0.0346  <S**2>=0.000
      10 -> 15        -0.13903
      11 -> 15         0.55214
      11 -> 17         0.11840
      12 -> 16         0.26229
      13 -> 15         0.10476
      13 -> 16        -0.10499

 The electronic state is 1-A.
 Alpha  occ. eigenvalues --   -1.72038  -1.10002  -0.92639  -0.79585  -0.75636
 Alpha  occ. eigenvalues --   -0.67177  -0.63327  -0.56147  -0.49591  -0.45870
 Alpha  occ. eigenvalues --   -0.43806  -0.41076  -0.29848
 Alpha virt. eigenvalues --    0.09217   0.18076   0.19448   0.23880   0.25787
 Alpha virt. eigenvalues --    0.26977   0.28430   0.28625   0.38460   0.46504
 Alpha virt. eigenvalues --    0.52069

 Mulliken charges:
               1
     1  C   -0.176090
     2  C   -2.008550
     3  O    3.231786
     4  C   -1.957301
     5  C   -0.088843
     6  H    0.182082
     7  H    0.307532
     8  H    0.321975
     9  H    0.187409
 Sum of Mulliken charges =   0.00000

 Dipole moment (field-independent basis, Debye):
    X=             -1.1253    Y=             -9.2386    Z=             -0.9566  Tot=              9.3559
 N-N= 1.036177901194D+02 E-N=-1.683878457110D+02  KE=-1.474886362499D+01
 Orbital energies and kinetic energies (alpha):
                                 1                 2
   1         O                -1.720383         -1.216195
   2         O                -1.100023         -0.968725
   3         O                -0.926391         -0.829386
   4         O                -0.795851         -0.608274
   5         O                -0.756363         -0.687612
   6         O                -0.671770         -0.579331
   7         O                -0.633274         -0.510380

 Normal termination of Gaussian 09 at Tue Dec 15 17:05:56 2015.
