 Gaussian 09, Revision D.01,
 Gaussian 09:  ES64L-G09RevD.01 24-Apr-2013

 ------------------------------------------------------------
 #P AM1(Input,print) CIS(Singlets,NStates=15) pop(full) force
 ------------------------------------------------------------

 -----------------
 AM1-Reparam Input
 -----------------
 Symbolic Z-matrix:
 Charge =  0 Multiplicity = 1

                         Standard orientation:
 ---------------------------------------------------------------------
 Center     Atomic      Atomic             Coordinates (Angstroms)
 Number     Number       Type             X           Y           Z
 ---------------------------------------------------------------------
      1          6           0       -0.885270    0.787392    0.015701
      2          6           0       -1.065905   -0.472591   -0.015346
      3          8           0        0.213108   -1.146504    0.022311
      4          6           0        1.169657   -0.156108   -0.021829
      5          6           0        0.536669    1.068398   -0.009674
      6          1           0        1.077165    1.969415    0.057703
      7          1           0        2.133243   -0.528447   -0.004625
      8          1           0       -1.874166   -1.175156   -0.029939
      9          1           0       -1.572016    1.543671   -0.014736
 ---------------------------------------------------------------------

 SCF Done:  E(RAM1) =  -4.09119189849     A.U. after   13 cycles

 Excitation energies and oscillator strengths:

 Excited State   1:      Singlet-A      6.3816 eV  194.28 nm  f=0.2953  <S**2>=0.000
      13 -> 14         0.69070
 This state for optimization and/or second-order correction.
 Total Energy, E(CIS) =  -3.85667166778
 Copying the excited state density for this state as the 1-particle RhoCI density.

 Excited State   2:      Singlet-A      7.3936 eV  167.69 nm  f=0.0028  <S**2>=0.000
      13 -> 16         0.65441
      13 -> 17         0.23306

 Excited State   3:      Singlet-A      7.7379 eV  160.23 nm  f=0.0244  <S**2>=0.000
      12 -> 14         0.36414
      13 -> 15         0.35268
      13 -> 16        -0.17559
      13 -> 17         0.43192

 Excited State   4:      Singlet-A      7.7590 eV  159.79 nm  f=0.0369  <S**2>=0.000
      10 -> 14         0.12439
      12 -> 14         0.51287
      13 -> 15        -0.44352

 Excited State   5:      Singlet-A      7.8567 eV  157.81 nm  f=0.0382  <S**2>=0.000
      12 -> 14        -0.25925
      13 -> 15        -0.39228
      13 -> 16        -0.13790
      13 -> 17         0.49307

 Excited State   6:      Singlet-A      8.7055 eV  142.42 nm  f=0.0015  <S**2>=0.000
      10 -> 14        -0.27549
      11 -> 14         0.63711

 Excited State   7:      Singlet-A      9.5255 eV  130.16 nm  f=0.0006  <S**2>=0.000
      13 -> 18         0.68755

 Excited State   8:      Singlet-A     10.1344 eV  122.34 nm  f=0.0021  <S**2>=0.000
      10 -> 14         0.58984
      11 -> 14         0.25565
      12 -> 14        -0.16695
      13 -> 19        -0.18961

 Excited State   9:      Singlet-A     10.3340 eV  119.98 nm  f=0.0002  <S**2>=0.000
      10 -> 14         0.18852
      13 -> 19         0.63264
      13 -> 20         0.19961

 Excited State  10:      Singlet-A     10.6805 eV  116.08 nm  f=0.0086  <S**2>=0.000
       9 -> 14         0.41318
      10 -> 17        -0.16329
      12 -> 15        -0.15771
      12 -> 16         0.42585
      12 -> 19         0.15379

 Excited State  11:      Singlet-A     10.8368 eV  114.41 nm  f=0.0015  <S**2>=0.000
      13 -> 19        -0.20763
      13 -> 20         0.64960

 Excited State  12:      Singlet-A     10.8467 eV  114.31 nm  f=0.0060  <S**2>=0.000
       8 -> 14        -0.15786
      10 -> 15         0.10282
      12 -> 15         0.63099
      12 -> 16         0.16472

 Excited State  13:      Singlet-A     11.0169 eV  112.54 nm  f=0.0392  <S**2>=0.000
       9 -> 14         0.47274
       9 -> 15        -0.11109
      10 -> 16        -0.16347
      11 -> 16        -0.14620
      11 -> 17        -0.10617
      12 -> 16        -0.23022
      12 -> 17         0.28036

 Excited State  14:      Singlet-A     11.2949 eV  109.77 nm  f=0.1539  <S**2>=0.000
       9 -> 14        -0.17805
      10 -> 16         0.17024
      10 -> 17         0.10687
      11 -> 16        -0.29889
      12 -> 16         0.26519
      12 -> 17         0.47717

 Excited State  15:      Singlet-A     11.4818 eV  107.98 nm  f=0.1204  <S**2>=0.000
       8 -> 16         0.10670
      11 -> 16         0.37870
      11 -> 17         0.31637
      11 -> 18        -0.14335
      12 -> 16        -0.15793
      12 -> 17         0.35574
      12 -> 19         0.13383

 The electronic state is 1-A.
 Alpha  occ. eigenvalues --   -3.77016  -1.16558  -0.90346  -0.87322  -0.87253
 Alpha  occ. eigenvalues --   -0.75825  -0.73970  -0.59814  -0.55075  -0.52734
 Alpha  occ. eigenvalues --   -0.51069  -0.48257  -0.35813
 Alpha virt. eigenvalues --    0.09175   0.15195   0.16267   0.17503   0.24022
 Alpha virt. eigenvalues --    0.28683   0.30048   0.36047   0.42602   0.50350
 Alpha virt. eigenvalues --    0.52488

 Mulliken charges:
               1
     1  C   -0.019147
     2  C   -1.259753
     3  O    2.884506
     4  C   -1.309233
     5  C   -0.143771
     6  H   -0.028940
     7  H   -0.038268
     8  H   -0.048638
     9  H   -0.036756
 Sum of Mulliken charges =   0.00000

 Dipole moment (field-independent basis, Debye):
    X=              1.7444    Y=            -11.4559    Z=              0.5039  Tot=             11.5989
 N-N= 1.042714384435D+02 E-N=-1.708383988034D+02  KE=-2.166582321063D+01
 Orbital energies and kinetic energies (alpha):
                                 1                 2
   1         O                -3.770158         -2.945193
   2         O                -1.165578         -1.036919
   3         O                -0.903465         -0.788669
   4         O                -0.873217         -0.810707
   5         O                -0.872530         -0.808495
   6         O                -0.758248         -0.779242
   7         O                -0.739701         -0.683522

 Normal termination of Gaussian 09 at Fri Dec 11 13:41:22 2015.
