 Gaussian 09, Revision D.01,
 Gaussian 09:  ES64L-G09RevD.01 24-Apr-2013

 ------------------------------------------------------------
 #P AM1(Input,print) CIS(Singlets,NStates=15) pop(full) force
 ------------------------------------------------------------

 -----------------
 AM1-Reparam Input
 -----------------
 Symbolic Z-matrix:
 Charge =  0 Multiplicity = 1

                         Standard orientation:
 ---------------------------------------------------------------------
 Center     Atomic      Atomic             Coordinates (Angstroms)
 Number     Number       Type             X           Y           Z
 ---------------------------------------------------------------------
      1          6           0       -0.649419    0.961871   -0.002631
      2          6           0       -1.095568   -0.246318    0.001723
      3          8           0       -0.104229   -1.154401    0.000617
      4          6           0        1.085947   -0.418762   -0.000511
      5          6           0        0.768999    0.916622    0.000003
      6          1           0        1.440928    1.691179    0.031100
      7          1           0        2.021488   -0.928274   -0.019471
      8          1           0       -2.054341   -0.701881    0.012815
      9          1           0       -1.233998    1.893702   -0.020884
 ---------------------------------------------------------------------

 SCF Done:  E(RAM1) =   1.77047518865     A.U. after   13 cycles

 Excitation energies and oscillator strengths:

 Excited State   1:      Singlet-A      5.4282 eV  228.41 nm  f=0.3573  <S**2>=0.000
      13 -> 14         0.69382
 This state for optimization and/or second-order correction.
 Total Energy, E(CIS) =   1.96995639053
 Copying the excited state density for this state as the 1-particle RhoCI density.

 Excited State   2:      Singlet-A      6.8576 eV  180.80 nm  f=0.0008  <S**2>=0.000
      10 -> 15         0.10704
      13 -> 15         0.68066
      13 -> 18         0.11466

 Excited State   3:      Singlet-A      7.0161 eV  176.71 nm  f=0.0002  <S**2>=0.000
      12 -> 14         0.70172

 Excited State   4:      Singlet-A      7.3720 eV  168.18 nm  f=0.0033  <S**2>=0.000
      10 -> 16        -0.10144
      13 -> 16         0.66501
      13 -> 17        -0.14782
      13 -> 19         0.12266

 Excited State   5:      Singlet-A      7.9830 eV  155.31 nm  f=0.0063  <S**2>=0.000
      11 -> 14         0.69939

 Excited State   6:      Singlet-A      8.7882 eV  141.08 nm  f=0.0003  <S**2>=0.000
      13 -> 16         0.11429
      13 -> 17         0.31480
      13 -> 18         0.55923
      13 -> 22        -0.23985

 Excited State   7:      Singlet-A      9.1422 eV  135.62 nm  f=0.0098  <S**2>=0.000
      13 -> 15         0.10225
      13 -> 17         0.59143
      13 -> 18        -0.32130
      13 -> 19         0.11781

 Excited State   8:      Singlet-A      9.4437 eV  131.29 nm  f=0.0559  <S**2>=0.000
      10 -> 14         0.63149
      12 -> 15         0.22400
      13 -> 20        -0.12321

 Excited State   9:      Singlet-A      9.7524 eV  127.13 nm  f=0.0899  <S**2>=0.000
       8 -> 15        -0.10434
      10 -> 14        -0.21192
      11 -> 17         0.13825
      11 -> 18        -0.10410
      12 -> 15         0.47782
      12 -> 16        -0.23951
      12 -> 17         0.11553
      12 -> 18         0.24258

 Excited State  10:      Singlet-A      9.8298 eV  126.13 nm  f=0.0038  <S**2>=0.000
      10 -> 16         0.10759
      13 -> 16        -0.10722
      13 -> 18         0.10330
      13 -> 19         0.67037

 Excited State  11:      Singlet-A     10.1260 eV  122.44 nm  f=0.0822  <S**2>=0.000
       9 -> 15         0.11446
      11 -> 15         0.28344
      11 -> 17        -0.15761
      11 -> 18         0.14507
      12 -> 15         0.41048
      12 -> 16         0.23557
      12 -> 17        -0.24884
      12 -> 18        -0.15333

 Excited State  12:      Singlet-A     10.6792 eV  116.10 nm  f=0.0647  <S**2>=0.000
      13 -> 18         0.15925
      13 -> 21         0.55619
      13 -> 22         0.36966

 Excited State  13:      Singlet-A     10.7579 eV  115.25 nm  f=0.1873  <S**2>=0.000
       8 -> 16         0.10396
      10 -> 14        -0.12050
      11 -> 15        -0.11832
      11 -> 16        -0.29806
      11 -> 17         0.14888
      12 -> 16         0.48302
      12 -> 18         0.12758
      12 -> 19         0.14005
      13 -> 20        -0.21849

 Excited State  14:      Singlet-A     10.8599 eV  114.17 nm  f=0.0370  <S**2>=0.000
      10 -> 15         0.10522
      13 -> 18         0.15862
      13 -> 20        -0.12439
      13 -> 21        -0.37909
      13 -> 22         0.50974

 Excited State  15:      Singlet-A     10.8739 eV  114.02 nm  f=0.0802  <S**2>=0.000
      10 -> 14         0.12501
      11 -> 15         0.19843
      11 -> 16        -0.28968
      11 -> 19        -0.12830
      12 -> 18         0.11353
      13 -> 20         0.49643
      13 -> 21        -0.10354
      13 -> 22         0.15098

 The electronic state is 1-A.
 Alpha  occ. eigenvalues --   -1.91189  -1.18946  -0.93608  -0.82201  -0.78554
 Alpha  occ. eigenvalues --   -0.70458  -0.68338  -0.56242  -0.55238  -0.46887
 Alpha  occ. eigenvalues --   -0.44282  -0.41190  -0.29674
 Alpha virt. eigenvalues --    0.11415   0.18013   0.20894   0.27800   0.29306
 Alpha virt. eigenvalues --    0.31141   0.33259   0.33722   0.36415   0.42199
 Alpha virt. eigenvalues --    0.45457

 Mulliken charges:
               1
     1  C   -0.187846
     2  C   -1.984399
     3  O    3.294573
     4  C   -2.027913
     5  C   -0.165885
     6  H    0.204622
     7  H    0.332438
     8  H    0.325213
     9  H    0.209197
 Sum of Mulliken charges =   0.00000

 Dipole moment (field-independent basis, Debye):
    X=             -1.5358    Y=            -10.9854    Z=             -0.0049  Tot=             11.0922
 N-N= 1.042507249299D+02 E-N=-1.698746903097D+02  KE=-1.554967152956D+01
 Orbital energies and kinetic energies (alpha):
                                 1                 2
   1         O                -1.911886         -1.370010
   2         O                -1.189464         -1.064649
   3         O                -0.936082         -0.900366
   4         O                -0.822012         -0.579036
   5         O                -0.785539         -0.688440
   6         O                -0.704577         -0.591458
   7         O                -0.683384         -0.544109

 Normal termination of Gaussian 09 at Tue Dec 15 17:09:34 2015.
