 Gaussian 09, Revision D.01,
 Gaussian 09:  ES64L-G09RevD.01 24-Apr-2013

 ------------------------------------------------------------
 #P AM1(Input,print) CIS(Singlets,NStates=15) pop(full) force
 ------------------------------------------------------------

 -----------------
 AM1-Reparam Input
 -----------------
 Symbolic Z-matrix:
 Charge =  0 Multiplicity = 1

                         Standard orientation:
 ---------------------------------------------------------------------
 Center     Atomic      Atomic             Coordinates (Angstroms)
 Number     Number       Type             X           Y           Z
 ---------------------------------------------------------------------
      1          6           0       -0.885270    0.787392    0.015701
      2          6           0       -1.065905   -0.472591   -0.015346
      3          8           0        0.213108   -1.146504    0.022311
      4          6           0        1.169657   -0.156108   -0.021829
      5          6           0        0.536669    1.068398   -0.009674
      6          1           0        1.077165    1.969415    0.057703
      7          1           0        2.133243   -0.528447   -0.004625
      8          1           0       -1.874166   -1.175156   -0.029939
      9          1           0       -1.572016    1.543671   -0.014736
 ---------------------------------------------------------------------

 SCF Done:  E(RAM1) =  -5.44538490804     A.U. after   14 cycles

 Excitation energies and oscillator strengths:

 Excited State   1:      Singlet-A      6.4186 eV  193.17 nm  f=0.3988  <S**2>=0.000
      13 -> 14         0.69519
 This state for optimization and/or second-order correction.
 Total Energy, E(CIS) =  -5.20950716238
 Copying the excited state density for this state as the 1-particle RhoCI density.

 Excited State   2:      Singlet-A      6.8949 eV  179.82 nm  f=0.0002  <S**2>=0.000
      13 -> 15         0.68237

 Excited State   3:      Singlet-A      7.3270 eV  169.22 nm  f=0.0072  <S**2>=0.000
      13 -> 16         0.68097
      13 -> 17        -0.10275

 Excited State   4:      Singlet-A      8.4574 eV  146.60 nm  f=0.0004  <S**2>=0.000
      12 -> 14         0.69770

 Excited State   5:      Singlet-A      9.3391 eV  132.76 nm  f=0.0002  <S**2>=0.000
      13 -> 17        -0.19107
      13 -> 18         0.62800
      13 -> 21        -0.15033
      13 -> 22        -0.15070

 Excited State   6:      Singlet-A      9.7266 eV  127.47 nm  f=0.0041  <S**2>=0.000
      10 -> 14         0.22550
      11 -> 14         0.63822
      13 -> 17        -0.14728

 Excited State   7:      Singlet-A      9.9712 eV  124.34 nm  f=0.0051  <S**2>=0.000
      10 -> 14         0.11950
      10 -> 15         0.13828
      11 -> 14         0.13863
      13 -> 17         0.62769
      13 -> 18         0.19037

 Excited State   8:      Singlet-A     10.2510 eV  120.95 nm  f=0.0152  <S**2>=0.000
      10 -> 14         0.35336
      11 -> 14        -0.13921
      13 -> 19         0.57547

 Excited State   9:      Singlet-A     10.7914 eV  114.89 nm  f=0.0858  <S**2>=0.000
       9 -> 16        -0.11302
      10 -> 14        -0.19283
      12 -> 15         0.51727
      12 -> 17         0.13114
      12 -> 18        -0.13254
      13 -> 19         0.22816
      13 -> 20         0.19957

 Excited State  10:      Singlet-A     10.9185 eV  113.55 nm  f=0.0362  <S**2>=0.000
      10 -> 15        -0.13125
      12 -> 15        -0.18855
      13 -> 20         0.64475

 Excited State  11:      Singlet-A     11.1733 eV  110.96 nm  f=0.0057  <S**2>=0.000
      13 -> 18         0.16666
      13 -> 21         0.65661

 Excited State  12:      Singlet-A     11.2608 eV  110.10 nm  f=0.2300  <S**2>=0.000
      10 -> 14         0.46747
      11 -> 14        -0.16993
      12 -> 15         0.31112
      13 -> 19        -0.31477

 Excited State  13:      Singlet-A     11.6405 eV  106.51 nm  f=0.0639  <S**2>=0.000
      11 -> 15         0.21302
      11 -> 16         0.15515
      12 -> 16         0.56154
      12 -> 17        -0.17099
      12 -> 18         0.16698

 Excited State  14:      Singlet-A     11.8743 eV  104.41 nm  f=0.0735  <S**2>=0.000
      10 -> 15         0.24326
      10 -> 16        -0.16366
      11 -> 15        -0.36516
      11 -> 16         0.39836
      11 -> 17        -0.13077
      12 -> 18         0.15545

 Excited State  15:      Singlet-A     11.9840 eV  103.46 nm  f=0.0702  <S**2>=0.000
      10 -> 15         0.44280
      10 -> 16        -0.31608
      11 -> 16        -0.19904
      11 -> 17         0.13181
      12 -> 16         0.11856
      12 -> 18        -0.16785
      13 -> 22         0.12928

 The electronic state is 1-A.
 Alpha  occ. eigenvalues --   -3.90329  -1.32605  -0.99320  -0.97441  -0.91291
 Alpha  occ. eigenvalues --   -0.88653  -0.80700  -0.66374  -0.65438  -0.55749
 Alpha  occ. eigenvalues --   -0.55126  -0.51519  -0.36231
 Alpha virt. eigenvalues --    0.08342   0.13408   0.15151   0.24851   0.25573
 Alpha virt. eigenvalues --    0.26048   0.29281   0.31793   0.34631   0.38531
 Alpha virt. eigenvalues --    0.41733

 Mulliken charges:
               1
     1  C   -0.024859
     2  C   -1.434392
     3  O    3.100194
     4  C   -1.493895
     5  C   -0.159207
     6  H   -0.007980
     7  H    0.025076
     8  H    0.016786
     9  H   -0.021724
 Sum of Mulliken charges =   0.00000

 Dipole moment (field-independent basis, Debye):
    X=              1.8991    Y=            -12.5887    Z=              0.5664  Tot=             12.7437
 N-N= 1.047377124301D+02 E-N=-1.707767455329D+02  KE=-2.337393646170D+01
 Orbital energies and kinetic energies (alpha):
                                 1                 2
   1         O                -3.903286         -3.066968
   2         O                -1.326049         -1.222083
   3         O                -0.993202         -0.971681
   4         O                -0.974405         -0.949296
   5         O                -0.912908         -0.838463
   6         O                -0.886529         -0.808088
   7         O                -0.807002         -0.778374

 Normal termination of Gaussian 09 at Fri Dec 11 13:41:32 2015.
