 Gaussian 09, Revision D.01,
 Gaussian 09:  ES64L-G09RevD.01 24-Apr-2013

 ------------------------------------------------------------
 #P AM1(Input,print) CIS(Singlets,NStates=15) pop(full) force
 ------------------------------------------------------------

 -----------------
 AM1-Reparam Input
 -----------------
 Symbolic Z-matrix:
 Charge =  0 Multiplicity = 1

                         Standard orientation:
 ---------------------------------------------------------------------
 Center     Atomic      Atomic             Coordinates (Angstroms)
 Number     Number       Type             X           Y           Z
 ---------------------------------------------------------------------
      1          6           0        0.742803    0.936896   -0.010631
      2          6           0        1.121547   -0.390514   -0.001570
      3          8           0       -0.036720   -1.126727   -0.003046
      4          6           0       -1.137069   -0.293390   -0.004775
      5          6           0       -0.695913    0.939560    0.009100
      6          1           0       -1.292563    1.819857   -0.003905
      7          1           0       -2.080019   -0.819037    0.021126
      8          1           0        2.038956   -0.905150    0.038451
      9          1           0        1.439177    1.762834    0.015956
 ---------------------------------------------------------------------

 SCF Done:  E(RAM1) =   1.70875704822     A.U. after   14 cycles

 Excitation energies and oscillator strengths:

 Excited State   1:      Singlet-A      5.2636 eV  235.55 nm  f=0.3429  <S**2>=0.000
      13 -> 14         0.69421
 This state for optimization and/or second-order correction.
 Total Energy, E(CIS) =   1.90218927155
 Copying the excited state density for this state as the 1-particle RhoCI density.

 Excited State   2:      Singlet-A      6.3254 eV  196.01 nm  f=0.0043  <S**2>=0.000
      13 -> 15         0.62930
      13 -> 16         0.16122
      13 -> 17         0.22352

 Excited State   3:      Singlet-A      6.5199 eV  190.16 nm  f=0.0025  <S**2>=0.000
      13 -> 15        -0.16756
      13 -> 16         0.59251
      13 -> 17         0.16908
      13 -> 19        -0.22026
      13 -> 20        -0.15020

 Excited State   4:      Singlet-A      7.0154 eV  176.73 nm  f=0.0006  <S**2>=0.000
      12 -> 14         0.64521
      13 -> 18        -0.16017
      13 -> 19         0.17276

 Excited State   5:      Singlet-A      7.2865 eV  170.16 nm  f=0.0001  <S**2>=0.000
      12 -> 14        -0.26557
      13 -> 16         0.15942
      13 -> 18        -0.32728
      13 -> 19         0.50689
      13 -> 21         0.13981

 Excited State   6:      Singlet-A      7.6658 eV  161.74 nm  f=0.0213  <S**2>=0.000
      10 -> 14         0.11923
      11 -> 16         0.10149
      13 -> 15        -0.18053
      13 -> 16        -0.15969
      13 -> 17         0.62262
      13 -> 19         0.10098

 Excited State   7:      Singlet-A      8.0754 eV  153.53 nm  f=0.0008  <S**2>=0.000
      10 -> 14         0.68607
      13 -> 17        -0.12312

 Excited State   8:      Singlet-A      8.3455 eV  148.56 nm  f=0.0000  <S**2>=0.000
      13 -> 16         0.17586
      13 -> 18         0.45679
      13 -> 19         0.20286
      13 -> 20         0.43498

 Excited State   9:      Singlet-A      8.5862 eV  144.40 nm  f=0.0006  <S**2>=0.000
      13 -> 18        -0.38452
      13 -> 19        -0.26806
      13 -> 20         0.52053

 Excited State  10:      Singlet-A      8.7194 eV  142.19 nm  f=0.0801  <S**2>=0.000
      11 -> 14         0.66699
      12 -> 15        -0.13597

 Excited State  11:      Singlet-A      8.9843 eV  138.00 nm  f=0.0901  <S**2>=0.000
      13 -> 19        -0.16316
      13 -> 21         0.66861

 Excited State  12:      Singlet-A      9.4185 eV  131.64 nm  f=0.0472  <S**2>=0.000
       8 -> 15        -0.11940
      10 -> 15        -0.12832
      10 -> 17        -0.26265
      11 -> 14         0.12304
      12 -> 15         0.24278
      12 -> 16        -0.28833
      12 -> 19         0.40099

 Excited State  13:      Singlet-A      9.8102 eV  126.38 nm  f=0.1489  <S**2>=0.000
      10 -> 15         0.19266
      10 -> 17         0.15347
      10 -> 19         0.10099
      11 -> 14         0.11258
      12 -> 15         0.57320
      12 -> 17         0.13034
      12 -> 21        -0.11466

 Excited State  14:      Singlet-A      9.9724 eV  124.33 nm  f=0.0019  <S**2>=0.000
      11 -> 15         0.53096
      11 -> 16         0.34708
      11 -> 17         0.16844
      13 -> 16         0.13013

 Excited State  15:      Singlet-A     10.1629 eV  122.00 nm  f=0.1914  <S**2>=0.000
       8 -> 16         0.10587
      10 -> 15        -0.11968
      10 -> 16        -0.27805
      10 -> 17        -0.16108
      12 -> 16         0.50618
      12 -> 18        -0.10180
      12 -> 19         0.15677
      12 -> 20        -0.14547

 The electronic state is 1-A.
 Alpha  occ. eigenvalues --   -1.91414  -1.22114  -1.00776  -0.82434  -0.81006
 Alpha  occ. eigenvalues --   -0.68838  -0.63477  -0.55902  -0.52346  -0.44008
 Alpha  occ. eigenvalues --   -0.43133  -0.40927  -0.27870
 Alpha virt. eigenvalues --    0.11997   0.17987   0.19426   0.24382   0.27052
 Alpha virt. eigenvalues --    0.27994   0.28384   0.28839   0.35454   0.43969
 Alpha virt. eigenvalues --    0.49576

 Mulliken charges:
               1
     1  C   -0.166099
     2  C   -1.958585
     3  O    3.197921
     4  C   -1.912180
     5  C   -0.129784
     6  H    0.181818
     7  H    0.294686
     8  H    0.304873
     9  H    0.187350
 Sum of Mulliken charges =   0.00000

 Dipole moment (field-independent basis, Debye):
    X=             -0.5578    Y=            -10.1970    Z=              0.1472  Tot=             10.2134
 N-N= 1.039519867262D+02 E-N=-1.692624376915D+02  KE=-1.573915106664D+01
 Orbital energies and kinetic energies (alpha):
                                 1                 2
   1         O                -1.914135         -1.374574
   2         O                -1.221144         -1.088693
   3         O                -1.007761         -0.921277
   4         O                -0.824344         -0.635725
   5         O                -0.810060         -0.711751
   6         O                -0.688375         -0.582910
   7         O                -0.634767         -0.511958

 Normal termination of Gaussian 09 at Tue Dec 15 17:06:58 2015.
