 Gaussian 09, Revision D.01,
 Gaussian 09:  ES64L-G09RevD.01 24-Apr-2013

 ------------------------------------------------------------
 #P AM1(Input,print) CIS(Singlets,NStates=15) pop(full) force
 ------------------------------------------------------------

 -----------------
 AM1-Reparam Input
 -----------------
 Symbolic Z-matrix:
 Charge =  0 Multiplicity = 1

                         Standard orientation:
 ---------------------------------------------------------------------
 Center     Atomic      Atomic             Coordinates (Angstroms)
 Number     Number       Type             X           Y           Z
 ---------------------------------------------------------------------
      1          6           0        0.070270    1.220215    0.033094
      2          6           0        1.095662    0.248151    0.007007
      3          8           0        0.629743   -0.973439   -0.014514
      4          6           0       -0.702132   -0.852046    0.007143
      5          6           0       -1.140103    0.409482   -0.025611
      6          1           0       -2.147956    0.807186   -0.000010
      7          1           0       -1.313116   -1.781554    0.064889
      8          1           0        2.230622    0.359411   -0.013713
      9          1           0        0.250327    2.247660   -0.064854
 ---------------------------------------------------------------------

 SCF Done:  E(RAM1) =   2.51619571864     A.U. after   13 cycles

 Excitation energies and oscillator strengths:

 Excited State   1:      Singlet-A      5.3532 eV  231.61 nm  f=0.3553  <S**2>=0.000
      13 -> 14         0.69570
 This state for optimization and/or second-order correction.
 Total Energy, E(CIS) =   2.71292310560
 Copying the excited state density for this state as the 1-particle RhoCI density.

 Excited State   2:      Singlet-A      6.2351 eV  198.85 nm  f=0.0023  <S**2>=0.000
      11 -> 15        -0.10995
      13 -> 15         0.66002
      13 -> 17         0.19595

 Excited State   3:      Singlet-A      6.3894 eV  194.05 nm  f=0.0028  <S**2>=0.000
      11 -> 16         0.11527
      13 -> 16         0.67003
      13 -> 18         0.13630

 Excited State   4:      Singlet-A      6.8408 eV  181.24 nm  f=0.0006  <S**2>=0.000
       9 -> 14        -0.12197
      12 -> 14         0.69330

 Excited State   5:      Singlet-A      7.8747 eV  157.45 nm  f=0.0041  <S**2>=0.000
      10 -> 14         0.37763
      13 -> 15        -0.14046
      13 -> 17         0.38165
      13 -> 18        -0.34117
      13 -> 21        -0.23310

 Excited State   6:      Singlet-A      7.9488 eV  155.98 nm  f=0.0040  <S**2>=0.000
      10 -> 14         0.54890
      11 -> 14         0.10183
      13 -> 18         0.35005
      13 -> 21         0.20497

 Excited State   7:      Singlet-A      8.1971 eV  151.25 nm  f=0.0109  <S**2>=0.000
      10 -> 14        -0.18240
      13 -> 15        -0.10663
      13 -> 17         0.53263
      13 -> 18         0.34218
      13 -> 21         0.14647

 Excited State   8:      Singlet-A      8.6766 eV  142.90 nm  f=0.0915  <S**2>=0.000
      10 -> 14        -0.11724
      11 -> 14         0.66696
      12 -> 16        -0.11656

 Excited State   9:      Singlet-A      8.8065 eV  140.79 nm  f=0.0013  <S**2>=0.000
      13 -> 19         0.67729

 Excited State  10:      Singlet-A      9.2728 eV  133.71 nm  f=0.1246  <S**2>=0.000
       8 -> 15         0.14359
       8 -> 16         0.13337
      10 -> 16         0.10708
      10 -> 17         0.14894
      12 -> 15         0.39937
      12 -> 16        -0.39618
      12 -> 17         0.10149
      12 -> 18        -0.19947

 Excited State  11:      Singlet-A      9.4529 eV  131.16 nm  f=0.0020  <S**2>=0.000
       9 -> 14        -0.10383
      11 -> 15        -0.23393
      13 -> 18        -0.31922
      13 -> 20         0.14029
      13 -> 21         0.53282

 Excited State  12:      Singlet-A      9.5403 eV  129.96 nm  f=0.0195  <S**2>=0.000
       7 -> 15         0.10123
      10 -> 15         0.15433
      11 -> 15         0.56111
      12 -> 15        -0.14709
      13 -> 15         0.11278
      13 -> 20         0.15411
      13 -> 21         0.19180

 Excited State  13:      Singlet-A      9.6056 eV  129.08 nm  f=0.0399  <S**2>=0.000
       9 -> 15         0.11159
      10 -> 15        -0.25089
      11 -> 14         0.11645
      11 -> 15         0.15689
      11 -> 16         0.10312
      12 -> 15         0.44646
      12 -> 16         0.34365
      12 -> 17         0.11698

 Excited State  14:      Singlet-A      9.7495 eV  127.17 nm  f=0.0461  <S**2>=0.000
       9 -> 14        -0.20146
       9 -> 15        -0.16504
       9 -> 16         0.12824
      10 -> 15         0.31154
      10 -> 16         0.20882
      10 -> 17         0.20298
      11 -> 15        -0.15470
      12 -> 16         0.34368
      12 -> 18        -0.12947
      13 -> 21        -0.10427

 Excited State  15:      Singlet-A      9.7746 eV  126.84 nm  f=0.0147  <S**2>=0.000
       9 -> 14         0.62386
      12 -> 14         0.10901
      12 -> 16         0.14873
      13 -> 20         0.19457

 The electronic state is 1-A.
 Alpha  occ. eigenvalues --   -1.75232  -1.15205  -0.94243  -0.81511  -0.74641
 Alpha  occ. eigenvalues --   -0.67181  -0.64995  -0.54074  -0.48907  -0.44623
 Alpha  occ. eigenvalues --   -0.43645  -0.40929  -0.28949
 Alpha virt. eigenvalues --    0.11120   0.16176   0.17092   0.25269   0.27525
 Alpha virt. eigenvalues --    0.28645   0.31179   0.32020   0.42326   0.51662
 Alpha virt. eigenvalues --    0.55941

 Mulliken charges:
               1
     1  C   -0.085864
     2  C   -1.953442
     3  O    3.212553
     4  C   -1.927254
     5  C   -0.018724
     6  H    0.111386
     7  H    0.273076
     8  H    0.271010
     9  H    0.117259
 Sum of Mulliken charges =   0.00000

 Dipole moment (field-independent basis, Debye):
    X=              5.3991    Y=             -8.8225    Z=             -0.2839  Tot=             10.3474
 N-N= 1.038240426698D+02 E-N=-1.689104841050D+02  KE=-1.502249140766D+01
 Orbital energies and kinetic energies (alpha):
                                 1                 2
   1         O                -1.752323         -1.262595
   2         O                -1.152053         -1.017706
   3         O                -0.942431         -0.850984
   4         O                -0.815110         -0.618174
   5         O                -0.746409         -0.676855
   6         O                -0.671812         -0.574798
   7         O                -0.649947         -0.522523

 Normal termination of Gaussian 09 at Tue Dec 15 17:06:25 2015.
