 Gaussian 09, Revision D.01,
 Gaussian 09:  ES64L-G09RevD.01 24-Apr-2013

 ------------------------------------------------------------
 #P AM1(Input,print) CIS(Singlets,NStates=15) pop(full) force
 ------------------------------------------------------------

 -----------------
 AM1-Reparam Input
 -----------------
 Symbolic Z-matrix:
 Charge =  0 Multiplicity = 1

                         Standard orientation:
 ---------------------------------------------------------------------
 Center     Atomic      Atomic             Coordinates (Angstroms)
 Number     Number       Type             X           Y           Z
 ---------------------------------------------------------------------
      1          6           0       -0.942754    0.721818   -0.008713
      2          6           0       -1.013396   -0.617276   -0.014587
      3          8           0        0.338747   -1.090956    0.005008
      4          6           0        1.173161   -0.066625    0.004058
      5          6           0        0.431732    1.096270   -0.017886
      6          1           0        0.818183    2.137040    0.053337
      7          1           0        2.240727   -0.294566    0.014654
      8          1           0       -1.820827   -1.306558    0.045322
      9          1           0       -1.840517    1.386614    0.069402
 ---------------------------------------------------------------------

 SCF Done:  E(RAM1) =   2.80192096955     A.U. after   13 cycles

 Excitation energies and oscillator strengths:

 Excited State   1:      Singlet-A      5.2646 eV  235.50 nm  f=0.3358  <S**2>=0.000
      13 -> 14         0.69468
 This state for optimization and/or second-order correction.
 Total Energy, E(CIS) =   2.99539240286
 Copying the excited state density for this state as the 1-particle RhoCI density.

 Excited State   2:      Singlet-A      6.3555 eV  195.08 nm  f=0.0042  <S**2>=0.000
      13 -> 15         0.64143
      13 -> 17         0.22477

 Excited State   3:      Singlet-A      6.7790 eV  182.90 nm  f=0.0018  <S**2>=0.000
       9 -> 14        -0.12332
      12 -> 14         0.68138

 Excited State   4:      Singlet-A      6.9020 eV  179.64 nm  f=0.0041  <S**2>=0.000
      12 -> 14        -0.11238
      13 -> 16         0.62148
      13 -> 17         0.10252
      13 -> 18        -0.19955
      13 -> 20        -0.12660

 Excited State   5:      Singlet-A      7.6025 eV  163.08 nm  f=0.0076  <S**2>=0.000
      10 -> 14        -0.28667
      11 -> 14         0.60594
      13 -> 17         0.15167

 Excited State   6:      Singlet-A      7.7750 eV  159.46 nm  f=0.0009  <S**2>=0.000
      11 -> 14         0.14275
      13 -> 15         0.13812
      13 -> 16        -0.13625
      13 -> 17        -0.22009
      13 -> 18        -0.39805
      13 -> 20        -0.15910
      13 -> 21         0.42200

 Excited State   7:      Singlet-A      7.8796 eV  157.35 nm  f=0.0079  <S**2>=0.000
      11 -> 14        -0.11665
      13 -> 15        -0.16256
      13 -> 16        -0.13204
      13 -> 17         0.58158
      13 -> 18        -0.14920
      13 -> 19         0.16274
      13 -> 21         0.17786

 Excited State   8:      Singlet-A      8.6084 eV  144.03 nm  f=0.0049  <S**2>=0.000
      10 -> 14         0.10539
      13 -> 16         0.14114
      13 -> 17        -0.11539
      13 -> 18         0.15672
      13 -> 19         0.62014

 Excited State   9:      Singlet-A      8.6594 eV  143.18 nm  f=0.0911  <S**2>=0.000
      10 -> 14         0.60574
      11 -> 14         0.27124
      13 -> 19        -0.12771

 Excited State  10:      Singlet-A      8.8833 eV  139.57 nm  f=0.0052  <S**2>=0.000
      13 -> 18         0.48393
      13 -> 19        -0.11428
      13 -> 20        -0.29549
      13 -> 21         0.39071

 Excited State  11:      Singlet-A      9.3487 eV  132.62 nm  f=0.0769  <S**2>=0.000
      12 -> 15         0.13260
      13 -> 19        -0.14952
      13 -> 20         0.54490
      13 -> 21         0.31438

 Excited State  12:      Singlet-A      9.3789 eV  132.19 nm  f=0.0130  <S**2>=0.000
       8 -> 15         0.10541
      11 -> 16         0.15895
      11 -> 17         0.15240
      12 -> 15         0.44373
      12 -> 16        -0.13103
      12 -> 17         0.13000
      12 -> 18         0.25515
      12 -> 21        -0.14017
      13 -> 20        -0.19679

 Excited State  13:      Singlet-A      9.5479 eV  129.86 nm  f=0.0964  <S**2>=0.000
       9 -> 15         0.15703
      10 -> 14        -0.11540
      10 -> 17         0.11504
      11 -> 15        -0.33503
      11 -> 16        -0.11277
      11 -> 17        -0.24021
      12 -> 15         0.36992
      12 -> 16         0.12918
      12 -> 18        -0.14480
      12 -> 19         0.17085

 Excited State  14:      Singlet-A      9.9006 eV  125.23 nm  f=0.0099  <S**2>=0.000
       7 -> 15        -0.11633
       9 -> 14        -0.33879
      10 -> 15         0.42794
      11 -> 15         0.26003
      11 -> 16         0.11147
      12 -> 16         0.20639
      13 -> 15        -0.11666

 Excited State  15:      Singlet-A      9.9458 eV  124.66 nm  f=0.0020  <S**2>=0.000
       9 -> 14         0.59214
      10 -> 15         0.26750
      11 -> 15         0.16599
      12 -> 14         0.10475

 The electronic state is 1-A.
 Alpha  occ. eigenvalues --   -1.71306  -1.10975  -0.92054  -0.78781  -0.74974
 Alpha  occ. eigenvalues --   -0.65960  -0.63213  -0.55115  -0.49895  -0.43607
 Alpha  occ. eigenvalues --   -0.42806  -0.40105  -0.28623
 Alpha virt. eigenvalues --    0.11286   0.17342   0.20774   0.23994   0.26861
 Alpha virt. eigenvalues --    0.27494   0.29320   0.29825   0.36562   0.45011
 Alpha virt. eigenvalues --    0.49895

 Mulliken charges:
               1
     1  C   -0.072378
     2  C   -1.949323
     3  O    3.228457
     4  C   -1.973305
     5  C   -0.215180
     6  H    0.189564
     7  H    0.313034
     8  H    0.300862
     9  H    0.178267
 Sum of Mulliken charges =   0.00000

 Dipole moment (field-independent basis, Debye):
    X=              3.0908    Y=             -9.6112    Z=              0.4006  Tot=             10.1039
 N-N= 1.035587250815D+02 E-N=-1.684387523434D+02  KE=-1.472663306371D+01
 Orbital energies and kinetic energies (alpha):
                                 1                 2
   1         O                -1.713059         -1.201428
   2         O                -1.109749         -0.972125
   3         O                -0.920536         -0.841262
   4         O                -0.787810         -0.596140
   5         O                -0.749740         -0.679313
   6         O                -0.659597         -0.561910
   7         O                -0.632127         -0.516148

 Normal termination of Gaussian 09 at Tue Dec 15 17:05:56 2015.
