 Gaussian 09, Revision D.01,
 Gaussian 09:  ES64L-G09RevD.01 24-Apr-2013

 ------------------------------------------------------------
 #P AM1(Input,print) CIS(Singlets,NStates=15) pop(full) force
 ------------------------------------------------------------

 -----------------
 AM1-Reparam Input
 -----------------
 Symbolic Z-matrix:
 Charge =  0 Multiplicity = 1

                         Standard orientation:
 ---------------------------------------------------------------------
 Center     Atomic      Atomic             Coordinates (Angstroms)
 Number     Number       Type             X           Y           Z
 ---------------------------------------------------------------------
      1          6           0        0.962296    0.749562    0.007155
      2          6           0        0.974707   -0.643081   -0.023719
      3          8           0       -0.345927   -1.140192    0.028641
      4          6           0       -1.173187   -0.023624   -0.018379
      5          6           0       -0.399275    1.114596   -0.003523
      6          1           0       -0.804527    2.105082    0.016803
      7          1           0       -2.203463   -0.163177   -0.018833
      8          1           0        1.747143   -1.331401   -0.043330
      9          1           0        1.841019    1.326315    0.047029
 ---------------------------------------------------------------------

 SCF Done:  E(RAM1) =   1.39946044876     A.U. after   13 cycles

 Excitation energies and oscillator strengths:

 Excited State   1:      Singlet-A      6.0826 eV  203.83 nm  f=0.2944  <S**2>=0.000
      13 -> 14         0.69169
 This state for optimization and/or second-order correction.
 Total Energy, E(CIS) =   1.62299310540
 Copying the excited state density for this state as the 1-particle RhoCI density.

 Excited State   2:      Singlet-A      6.5567 eV  189.10 nm  f=0.0008  <S**2>=0.000
      12 -> 16        -0.12266
      13 -> 15         0.64356
      13 -> 16         0.10103
      13 -> 18         0.21431

 Excited State   3:      Singlet-A      7.0090 eV  176.89 nm  f=0.0004  <S**2>=0.000
      12 -> 15        -0.18845
      13 -> 15        -0.10526
      13 -> 16         0.63148
      13 -> 21         0.16396
      13 -> 22         0.11092

 Excited State   4:      Singlet-A      7.6410 eV  162.26 nm  f=0.0006  <S**2>=0.000
      11 -> 14         0.68375

 Excited State   5:      Singlet-A      7.8575 eV  157.79 nm  f=0.0106  <S**2>=0.000
      10 -> 14        -0.12859
      12 -> 16         0.12830
      13 -> 15        -0.17595
      13 -> 17        -0.12257
      13 -> 18         0.62524
      13 -> 22         0.10064

 Excited State   6:      Singlet-A      8.1770 eV  151.62 nm  f=0.0029  <S**2>=0.000
      10 -> 14        -0.10125
      12 -> 14         0.49693
      13 -> 17        -0.45344
      13 -> 18        -0.14110

 Excited State   7:      Singlet-A      8.2921 eV  149.52 nm  f=0.0009  <S**2>=0.000
      12 -> 15         0.19742
      13 -> 18        -0.11423
      13 -> 19        -0.36090
      13 -> 22         0.54200

 Excited State   8:      Singlet-A      8.3440 eV  148.59 nm  f=0.0021  <S**2>=0.000
      10 -> 14         0.67278
      13 -> 17        -0.14743

 Excited State   9:      Singlet-A      8.8331 eV  140.36 nm  f=0.0004  <S**2>=0.000
      12 -> 15         0.25180
      13 -> 19         0.44125
      13 -> 21         0.42594
      13 -> 22         0.20299

 Excited State  10:      Singlet-A      8.9592 eV  138.39 nm  f=0.0020  <S**2>=0.000
      13 -> 19        -0.39040
      13 -> 21         0.48817
      13 -> 22        -0.27285

 Excited State  11:      Singlet-A      9.0117 eV  137.58 nm  f=0.2539  <S**2>=0.000
      12 -> 14         0.47279
      13 -> 17         0.47515
      13 -> 20        -0.10245

 Excited State  12:      Singlet-A      9.2529 eV  134.00 nm  f=0.0393  <S**2>=0.000
      12 -> 15         0.39844
      12 -> 16        -0.20497
      12 -> 18         0.10362
      13 -> 16         0.15770
      13 -> 20         0.41096
      13 -> 21        -0.16708
      13 -> 22        -0.12058
      13 -> 23        -0.12483

 Excited State  13:      Singlet-A      9.3291 eV  132.90 nm  f=0.0261  <S**2>=0.000
      12 -> 15        -0.37213
      12 -> 16        -0.25254
      12 -> 18        -0.10671
      13 -> 16        -0.18271
      13 -> 20         0.40957
      13 -> 21         0.11167
      13 -> 22         0.18462

 Excited State  14:      Singlet-A      9.8344 eV  126.07 nm  f=0.0124  <S**2>=0.000
      12 -> 16         0.51819
      12 -> 21         0.10794
      13 -> 15         0.16421
      13 -> 20         0.35630
      13 -> 23         0.15585

 Excited State  15:      Singlet-A      9.9127 eV  125.08 nm  f=0.0218  <S**2>=0.000
       8 -> 15         0.18365
       9 -> 16        -0.11714
      10 -> 15         0.29163
      10 -> 18         0.32229
      11 -> 15        -0.11953
      11 -> 16        -0.26373
      11 -> 18        -0.21688
      11 -> 19         0.23449
      11 -> 22        -0.10467

 The electronic state is 1-A.
 Alpha  occ. eigenvalues --   -1.86768  -1.18112  -0.94850  -0.78026  -0.77711
 Alpha  occ. eigenvalues --   -0.67628  -0.60063  -0.49737  -0.48037  -0.40106
 Alpha  occ. eigenvalues --   -0.38183  -0.36035  -0.24956
 Alpha virt. eigenvalues --    0.17899   0.22791   0.24431   0.28375   0.28842
 Alpha virt. eigenvalues --    0.31350   0.33852   0.33990   0.35866   0.39370
 Alpha virt. eigenvalues --    0.44070

 Mulliken charges:
               1
     1  C   -0.044226
     2  C   -1.558420
     3  O    2.775747
     4  C   -1.555202
     5  C   -0.058288
     6  H    0.060423
     7  H    0.161897
     8  H    0.154251
     9  H    0.063817
 Sum of Mulliken charges =   0.00000

 Dipole moment (field-independent basis, Debye):
    X=             -2.9124    Y=             -9.3869    Z=              0.5834  Tot=              9.8457
 N-N= 1.029890139072D+02 E-N=-1.689595215379D+02  KE=-1.581531804723D+01
 Orbital energies and kinetic energies (alpha):
                                 1                 2
   1         O                -1.867681         -1.344162
   2         O                -1.181123         -1.078268
   3         O                -0.948505         -0.889683
   4         O                -0.780261         -0.710617
   5         O                -0.777113         -0.621666
   6         O                -0.676283         -0.628396
   7         O                -0.600631         -0.534532

 Normal termination of Gaussian 09 at Tue Dec 15 17:08:08 2015.
