 Gaussian 09, Revision D.01,
 Gaussian 09:  ES64L-G09RevD.01 24-Apr-2013

 -------------------------------------------------------
 #P B3LYP/3-21G CIS(Singlets,NStates=15) pop(full) force
 -------------------------------------------------------

 --------
 FuranDFT
 --------
 Symbolic Z-matrix:
 Charge =  0 Multiplicity = 1

                         Standard orientation:
 ---------------------------------------------------------------------
 Center     Atomic      Atomic             Coordinates (Angstroms)
 Number     Number       Type             X           Y           Z
 ---------------------------------------------------------------------
      1          6           0       -0.019172    1.188053   -0.031530
      2          6           0        1.098895    0.359700    0.031743
      3          8           0        0.727362   -0.947149    0.002160
      4          6           0       -0.659023   -0.891027   -0.032035
      5          6           0       -1.176731    0.335006    0.033046
      6          1           0       -2.218232    0.574251    0.032953
      7          1           0       -1.151457   -1.871327   -0.002203
      8          1           0        2.139430    0.634543   -0.023351
      9          1           0       -0.052447    2.289335   -0.032020
 ---------------------------------------------------------------------

 SCF Done:  E(RB3LYP) =  -228.743502193     A.U. after   15 cycles

 Excitation energies and oscillator strengths:

 Excited State   1:      Singlet-A      7.0398 eV  176.12 nm  f=0.1359  <S**2>=0.000
      17 -> 19        -0.25058
      18 -> 19         0.56281
      18 -> 20        -0.31217
 This state for optimization and/or second-order correction.
 Total Energy, E(CIS) =  -228.484792989
 Copying the excited state density for this state as the 1-particle RhoCI density.

 Excited State   2:      Singlet-A      7.2377 eV  171.30 nm  f=0.0817  <S**2>=0.000
      17 -> 19         0.43114
      18 -> 19         0.38603
      18 -> 20         0.38399

 Excited State   3:      Singlet-A      8.4626 eV  146.51 nm  f=0.0004  <S**2>=0.000
      18 -> 21         0.69350
      18 -> 22        -0.10885

 Excited State   4:      Singlet-A      8.9067 eV  139.20 nm  f=0.0054  <S**2>=0.000
      16 -> 19         0.69510

 Excited State   5:      Singlet-A      9.0531 eV  136.95 nm  f=0.0456  <S**2>=0.000
      17 -> 19         0.15905
      17 -> 20         0.10071
      18 -> 20        -0.17237
      18 -> 21         0.11396
      18 -> 22         0.63164

 Excited State   6:      Singlet-A      9.3820 eV  132.15 nm  f=0.2043  <S**2>=0.000
      17 -> 19         0.23830
      17 -> 20         0.52921
      18 -> 20        -0.25706
      18 -> 22        -0.22962

 Excited State   7:      Singlet-A      9.6262 eV  128.80 nm  f=0.0139  <S**2>=0.000
      15 -> 19         0.48464
      17 -> 21         0.19240
      18 -> 23         0.43608

 Excited State   8:      Singlet-A      9.7336 eV  127.38 nm  f=0.0114  <S**2>=0.000
      15 -> 19         0.46826
      17 -> 21        -0.29562
      18 -> 23        -0.38891
      18 -> 24         0.14564

 Excited State   9:      Singlet-A      9.8195 eV  126.26 nm  f=0.3709  <S**2>=0.000
      15 -> 19        -0.12485
      17 -> 19        -0.32681
      17 -> 20         0.36316
      17 -> 21         0.19401
      18 -> 20         0.32416
      18 -> 22         0.12851
      18 -> 23        -0.12581

 Excited State  10:      Singlet-A      9.9611 eV  124.47 nm  f=0.0441  <S**2>=0.000
      15 -> 19         0.12238
      17 -> 20        -0.17287
      17 -> 21         0.56330
      18 -> 23        -0.32071

 Excited State  11:      Singlet-A     10.1881 eV  121.70 nm  f=0.0018  <S**2>=0.000
      14 -> 19        -0.11785
      18 -> 23         0.12475
      18 -> 24         0.67266

 Excited State  12:      Singlet-A     10.2989 eV  120.39 nm  f=0.0015  <S**2>=0.000
      14 -> 19         0.57383
      16 -> 20         0.34973
      17 -> 22         0.11944
      18 -> 24         0.10749

 Excited State  13:      Singlet-A     10.4933 eV  118.16 nm  f=0.0095  <S**2>=0.000
      14 -> 19        -0.11515
      17 -> 22         0.66702
      18 -> 25         0.12586

 Excited State  14:      Singlet-A     10.6865 eV  116.02 nm  f=0.0019  <S**2>=0.000
      13 -> 19         0.17510
      14 -> 19        -0.33534
      15 -> 20        -0.11395
      16 -> 20         0.55579
      18 -> 25        -0.14438

 Excited State  15:      Singlet-A     10.7340 eV  115.51 nm  f=0.0098  <S**2>=0.000
      16 -> 20         0.10441
      17 -> 22        -0.12139
      18 -> 23         0.11079
      18 -> 25         0.65726

 The electronic state is 1-A.
 Alpha  occ. eigenvalues --  -19.11910 -10.17875 -10.17523 -10.13074 -10.12621
 Alpha  occ. eigenvalues --   -1.12580  -0.81131  -0.74115  -0.60049  -0.56990
 Alpha  occ. eigenvalues --   -0.54176  -0.44839  -0.44157  -0.42170  -0.39382
 Alpha  occ. eigenvalues --   -0.36835  -0.28219  -0.23002
 Alpha virt. eigenvalues --    0.01712   0.07608   0.12807   0.14558   0.17623
 Alpha virt. eigenvalues --    0.18258   0.20993   0.23162   0.34714   0.41515
 Alpha virt. eigenvalues --    0.45094   0.68199   0.70072   0.70903   0.74508

 Mulliken charges:
               1
     1  C   -0.261400
     2  C    0.093618
     3  O   -0.475734
     4  C    0.070351
     5  C   -0.234966
     6  H    0.196874
     7  H    0.209506
     8  H    0.216843
     9  H    0.184910
 Sum of Mulliken charges =   0.00000

 Dipole moment (field-independent basis, Debye):
    X=             -0.5655    Y=              0.6562    Z=             -0.0230  Tot=              0.8666
 Quadrupole moment (field-independent basis, Debye-Ang):
   XX=            -24.9430   YY=            -26.9574   ZZ=            -31.8852
   XY=              2.0570   XZ=             -0.1561   YZ=             -0.0837

 Normal termination of Gaussian 09 at Tue Dec 15 16:17:11 2015.
