 Gaussian 09, Revision D.01,
 Gaussian 09:  ES64L-G09RevD.01 24-Apr-2013

 ------------------------------------------------------------
 #P AM1(Input,print) CIS(Singlets,NStates=15) pop(full) force
 ------------------------------------------------------------

 -----------------
 AM1-Reparam Input
 -----------------
 Symbolic Z-matrix:
 Charge =  0 Multiplicity = 1

                         Standard orientation:
 ---------------------------------------------------------------------
 Center     Atomic      Atomic             Coordinates (Angstroms)
 Number     Number       Type             X           Y           Z
 ---------------------------------------------------------------------
      1          6           0        0.811789    0.906537    0.025962
      2          6           0        1.075719   -0.432537   -0.019495
      3          8           0       -0.075229   -1.151355    0.012376
      4          6           0       -1.172783   -0.259584   -0.018905
      5          6           0       -0.628214    1.018835    0.000406
      6          1           0       -1.201693    1.945600   -0.018772
      7          1           0       -2.175478   -0.712502    0.035409
      8          1           0        1.920125   -1.066049   -0.008658
      9          1           0        1.539818    1.644287   -0.034797
 ---------------------------------------------------------------------

 SCF Done:  E(RAM1) =   2.80539772914     A.U. after   13 cycles

 Excitation energies and oscillator strengths:

 Excited State   1:      Singlet-A      5.2537 eV  235.99 nm  f=0.3471  <S**2>=0.000
      13 -> 14         0.69516
 This state for optimization and/or second-order correction.
 Total Energy, E(CIS) =   2.99846830318
 Copying the excited state density for this state as the 1-particle RhoCI density.

 Excited State   2:      Singlet-A      6.4321 eV  192.76 nm  f=0.0029  <S**2>=0.000
      11 -> 15         0.11989
      13 -> 15         0.64417
      13 -> 17         0.21637
      13 -> 18        -0.12173

 Excited State   3:      Singlet-A      6.7878 eV  182.66 nm  f=0.0016  <S**2>=0.000
       9 -> 14        -0.11311
      12 -> 14         0.63986
      13 -> 16         0.23123

 Excited State   4:      Singlet-A      6.8503 eV  180.99 nm  f=0.0021  <S**2>=0.000
      11 -> 16        -0.11481
      12 -> 14        -0.26403
      13 -> 16         0.58284
      13 -> 17         0.13741
      13 -> 18         0.21548

 Excited State   5:      Singlet-A      7.6885 eV  161.26 nm  f=0.0121  <S**2>=0.000
      10 -> 14         0.44654
      13 -> 15        -0.16401
      13 -> 17         0.33708
      13 -> 18        -0.20314
      13 -> 19        -0.18008
      13 -> 20        -0.21738
      13 -> 21         0.15019

 Excited State   6:      Singlet-A      7.7774 eV  159.42 nm  f=0.0005  <S**2>=0.000
      10 -> 14         0.51369
      13 -> 17        -0.16381
      13 -> 18         0.22885
      13 -> 19         0.18735
      13 -> 20         0.28090

 Excited State   7:      Singlet-A      7.9708 eV  155.55 nm  f=0.0141  <S**2>=0.000
      10 -> 14        -0.13964
      11 -> 16         0.13079
      13 -> 15        -0.11511
      13 -> 16        -0.18300
      13 -> 17         0.52463
      13 -> 18         0.14294
      13 -> 19         0.21687
      13 -> 20         0.24403

 Excited State   8:      Singlet-A      8.5111 eV  145.67 nm  f=0.0977  <S**2>=0.000
      11 -> 14         0.66821

 Excited State   9:      Singlet-A      8.5470 eV  145.06 nm  f=0.0055  <S**2>=0.000
      11 -> 14        -0.13522
      13 -> 16        -0.14816
      13 -> 18         0.47369
      13 -> 19        -0.43489
      13 -> 20        -0.12701

 Excited State  10:      Singlet-A      9.1018 eV  136.22 nm  f=0.0066  <S**2>=0.000
      13 -> 18        -0.25955
      13 -> 19        -0.42093
      13 -> 20         0.42271
      13 -> 21        -0.25733

 Excited State  11:      Singlet-A      9.4484 eV  131.22 nm  f=0.0307  <S**2>=0.000
       8 -> 15         0.11365
       9 -> 18         0.11325
      10 -> 16         0.10884
      10 -> 17         0.19685
      12 -> 15         0.36010
      12 -> 16        -0.18102
      12 -> 17         0.10991
      12 -> 18        -0.18300
      12 -> 19        -0.15621
      12 -> 20        -0.12753
      13 -> 20        -0.17911
      13 -> 21        -0.31153

 Excited State  12:      Singlet-A      9.5008 eV  130.50 nm  f=0.0657  <S**2>=0.000
      10 -> 17         0.11418
      12 -> 15         0.23542
      12 -> 16        -0.10291
      12 -> 18        -0.10814
      13 -> 20         0.25989
      13 -> 21         0.53072

 Excited State  13:      Singlet-A      9.7850 eV  126.71 nm  f=0.1002  <S**2>=0.000
       9 -> 15         0.12983
      10 -> 15        -0.35262
      10 -> 17        -0.22723
      11 -> 15         0.17405
      12 -> 15         0.40469
      12 -> 16         0.12556
      12 -> 19         0.20169

 Excited State  14:      Singlet-A      9.9325 eV  124.83 nm  f=0.0699  <S**2>=0.000
       9 -> 14         0.10373
      10 -> 16         0.12390
      11 -> 15        -0.38198
      11 -> 16        -0.14505
      11 -> 17        -0.10543
      12 -> 16         0.44892
      12 -> 17         0.12532

 Excited State  15:      Singlet-A      9.9694 eV  124.36 nm  f=0.0523  <S**2>=0.000
       9 -> 14         0.52977
      10 -> 15        -0.10663
      10 -> 16        -0.12810
      10 -> 17        -0.10276
      11 -> 15        -0.21812
      12 -> 16        -0.26287

 The electronic state is 1-A.
 Alpha  occ. eigenvalues --   -1.70488  -1.10455  -0.91837  -0.79273  -0.74789
 Alpha  occ. eigenvalues --   -0.66275  -0.62539  -0.54429  -0.50358  -0.43811
 Alpha  occ. eigenvalues --   -0.42922  -0.40485  -0.28635
 Alpha virt. eigenvalues --    0.10980   0.17837   0.19592   0.24315   0.27136
 Alpha virt. eigenvalues --    0.28195   0.29473   0.30176   0.35542   0.44245
 Alpha virt. eigenvalues --    0.48749

 Mulliken charges:
               1
     1  C   -0.163806
     2  C   -1.940510
     3  O    3.219266
     4  C   -1.945885
     5  C   -0.113623
     6  H    0.179703
     7  H    0.294164
     8  H    0.286442
     9  H    0.184248
 Sum of Mulliken charges =   0.00000

 Dipole moment (field-independent basis, Debye):
    X=             -0.4643    Y=            -10.5615    Z=              0.4851  Tot=             10.5828
 N-N= 1.033061826420D+02 E-N=-1.679586365324D+02  KE=-1.471697817762D+01
 Orbital energies and kinetic energies (alpha):
                                 1                 2
   1         O                -1.704883         -1.183675
   2         O                -1.104553         -0.975707
   3         O                -0.918374         -0.831950
   4         O                -0.792729         -0.614505
   5         O                -0.747887         -0.669411
   6         O                -0.662754         -0.574013
   7         O                -0.625389         -0.512131

 Normal termination of Gaussian 09 at Tue Dec 15 17:06:03 2015.
