 Gaussian 09, Revision D.01,
 Gaussian 09:  ES64L-G09RevD.01 24-Apr-2013

 ------------------------------------------------------------
 #P AM1(Input,print) CIS(Singlets,NStates=15) pop(full) force
 ------------------------------------------------------------

 -----------------
 AM1-Reparam Input
 -----------------
 Symbolic Z-matrix:
 Charge =  0 Multiplicity = 1

                         Standard orientation:
 ---------------------------------------------------------------------
 Center     Atomic      Atomic             Coordinates (Angstroms)
 Number     Number       Type             X           Y           Z
 ---------------------------------------------------------------------
      1          6           0       -0.854886    0.855175    0.007371
      2          6           0       -1.039381   -0.523795   -0.018260
      3          8           0        0.161980   -1.110345    0.011342
      4          6           0        1.149741   -0.200510   -0.033841
      5          6           0        0.565601    1.020617    0.019370
      6          1           0        1.073919    1.971679   -0.025861
      7          1           0        2.154652   -0.508292    0.067459
      8          1           0       -1.846721   -1.133546    0.036402
      9          1           0       -1.604135    1.643992   -0.016579
 ---------------------------------------------------------------------

 SCF Done:  E(RAM1) =   1.78970946435     A.U. after   14 cycles

 Excitation energies and oscillator strengths:

 Excited State   1:      Singlet-A      5.5229 eV  224.49 nm  f=0.3569  <S**2>=0.000
      13 -> 14         0.69175
 This state for optimization and/or second-order correction.
 Total Energy, E(CIS) =   1.99267186074
 Copying the excited state density for this state as the 1-particle RhoCI density.

 Excited State   2:      Singlet-A      6.9129 eV  179.35 nm  f=0.0109  <S**2>=0.000
      13 -> 15         0.67524
      13 -> 18        -0.10431

 Excited State   3:      Singlet-A      7.1470 eV  173.48 nm  f=0.0001  <S**2>=0.000
      13 -> 15        -0.10028
      13 -> 16         0.65211
      13 -> 17        -0.12257
      13 -> 18         0.10075
      13 -> 19         0.15120

 Excited State   4:      Singlet-A      7.4443 eV  166.55 nm  f=0.0002  <S**2>=0.000
      12 -> 14         0.69873

 Excited State   5:      Singlet-A      8.2320 eV  150.61 nm  f=0.0018  <S**2>=0.000
      10 -> 14        -0.36475
      11 -> 14        -0.19556
      13 -> 16         0.11762
      13 -> 17         0.45480
      13 -> 18        -0.24182
      13 -> 21         0.18162

 Excited State   6:      Singlet-A      8.2574 eV  150.15 nm  f=0.0038  <S**2>=0.000
      10 -> 14         0.49791
      11 -> 14         0.26949
      13 -> 17         0.30958
      13 -> 18        -0.22802
      13 -> 21         0.12867

 Excited State   7:      Singlet-A      9.0433 eV  137.10 nm  f=0.1168  <S**2>=0.000
      10 -> 14        -0.32589
      11 -> 14         0.60686

 Excited State   8:      Singlet-A      9.3406 eV  132.74 nm  f=0.0053  <S**2>=0.000
      11 -> 16        -0.16801
      13 -> 15         0.10443
      13 -> 17         0.34413
      13 -> 18         0.56496

 Excited State   9:      Singlet-A      9.8200 eV  126.26 nm  f=0.0321  <S**2>=0.000
       9 -> 16        -0.13196
      10 -> 15         0.21820
      10 -> 18        -0.19242
      11 -> 15         0.22988
      12 -> 15        -0.14175
      12 -> 16        -0.20929
      12 -> 17         0.32724
      12 -> 18        -0.13241
      13 -> 19         0.29979

 Excited State  10:      Singlet-A      9.8318 eV  126.11 nm  f=0.0061  <S**2>=0.000
      10 -> 15        -0.20133
      12 -> 16         0.14886
      12 -> 17        -0.17292
      13 -> 19         0.56418
      13 -> 21        -0.12023

 Excited State  11:      Singlet-A     10.2661 eV  120.77 nm  f=0.0813  <S**2>=0.000
      10 -> 16         0.14496
      12 -> 15         0.53244
      12 -> 16        -0.35359
      12 -> 18        -0.12723

 Excited State  12:      Singlet-A     10.4499 eV  118.65 nm  f=0.0078  <S**2>=0.000
      13 -> 17        -0.18039
      13 -> 18         0.13356
      13 -> 19         0.12111
      13 -> 20        -0.24289
      13 -> 21         0.59483

 Excited State  13:      Singlet-A     10.5137 eV  117.93 nm  f=0.1401  <S**2>=0.000
      10 -> 15         0.17059
      10 -> 16         0.18546
      11 -> 15         0.35545
      11 -> 16         0.16840
      12 -> 15         0.23854
      12 -> 16         0.39041
      13 -> 19        -0.11202

 Excited State  14:      Singlet-A     10.6216 eV  116.73 nm  f=0.0804  <S**2>=0.000
      10 -> 15         0.17368
      10 -> 16         0.15029
      11 -> 15        -0.16706
      11 -> 16        -0.17588
      12 -> 16         0.12810
      13 -> 20         0.54402
      13 -> 21         0.18442

 Excited State  15:      Singlet-A     10.6467 eV  116.45 nm  f=0.0471  <S**2>=0.000
      10 -> 15        -0.35387
      11 -> 15         0.42388
      12 -> 16        -0.15632
      13 -> 16         0.12172
      13 -> 19        -0.12688
      13 -> 20         0.27307
      13 -> 21         0.17046

 The electronic state is 1-A.
 Alpha  occ. eigenvalues --   -2.01177  -1.26969  -1.02208  -0.90546  -0.85976
 Alpha  occ. eigenvalues --   -0.77436  -0.75215  -0.65789  -0.62322  -0.53490
 Alpha  occ. eigenvalues --   -0.53107  -0.50867  -0.38407
 Alpha virt. eigenvalues --    0.02942   0.10991   0.11802   0.18860   0.19315
 Alpha virt. eigenvalues --    0.21912   0.24127   0.25404   0.30195   0.37528
 Alpha virt. eigenvalues --    0.43968

 Mulliken charges:
               1
     1  C   -0.118773
     2  C   -1.908884
     3  O    3.182832
     4  C   -1.907361
     5  C   -0.132809
     6  H    0.161682
     7  H    0.290995
     8  H    0.272694
     9  H    0.159623
 Sum of Mulliken charges =   0.00000

 Dipole moment (field-independent basis, Debye):
    X=              1.5504    Y=             -9.4493    Z=              0.7307  Tot=              9.6035
 N-N= 1.059396650538D+02 E-N=-1.709328866098D+02  KE=-1.569687652754D+01
 Orbital energies and kinetic energies (alpha):
                                 1                 2
   1         O                -2.011774         -1.399948
   2         O                -1.269694         -1.035376
   3         O                -1.022081         -0.871126
   4         O                -0.905457         -0.606883
   5         O                -0.859757         -0.711032
   6         O                -0.774356         -0.604095
   7         O                -0.752151         -0.551353

 Normal termination of Gaussian 09 at Tue Dec 15 17:09:03 2015.
