 Gaussian 09, Revision D.01,
 Gaussian 09:  ES64L-G09RevD.01 24-Apr-2013

 ------------------------------------------------------------
 #P AM1(Input,print) CIS(Singlets,NStates=15) pop(full) force
 ------------------------------------------------------------

 -----------------
 AM1-Reparam Input
 -----------------
 Symbolic Z-matrix:
 Charge =  0 Multiplicity = 1

                         Standard orientation:
 ---------------------------------------------------------------------
 Center     Atomic      Atomic             Coordinates (Angstroms)
 Number     Number       Type             X           Y           Z
 ---------------------------------------------------------------------
      1          6           0       -0.885270    0.787392    0.015701
      2          6           0       -1.065905   -0.472591   -0.015346
      3          8           0        0.213108   -1.146504    0.022311
      4          6           0        1.169657   -0.156108   -0.021829
      5          6           0        0.536669    1.068398   -0.009674
      6          1           0        1.077165    1.969415    0.057703
      7          1           0        2.133243   -0.528447   -0.004625
      8          1           0       -1.874166   -1.175156   -0.029939
      9          1           0       -1.572016    1.543671   -0.014736
 ---------------------------------------------------------------------

 SCF Done:  E(RAM1) =  -4.51563268262     A.U. after   14 cycles

 Excitation energies and oscillator strengths:

 Excited State   1:      Singlet-A      6.0408 eV  205.24 nm  f=0.3683  <S**2>=0.000
      13 -> 14         0.69446
 This state for optimization and/or second-order correction.
 Total Energy, E(CIS) =  -4.29363720048
 Copying the excited state density for this state as the 1-particle RhoCI density.

 Excited State   2:      Singlet-A      6.9948 eV  177.25 nm  f=0.0005  <S**2>=0.000
      13 -> 15         0.61164
      13 -> 16        -0.21999
      13 -> 18        -0.21731

 Excited State   3:      Singlet-A      7.4039 eV  167.46 nm  f=0.0158  <S**2>=0.000
      13 -> 15         0.20766
      13 -> 16         0.62697
      13 -> 17         0.21378

 Excited State   4:      Singlet-A      8.4434 eV  146.84 nm  f=0.0012  <S**2>=0.000
      11 -> 14         0.34673
      12 -> 14         0.54099
      13 -> 15        -0.11762
      13 -> 18        -0.23242

 Excited State   5:      Singlet-A      8.7237 eV  142.12 nm  f=0.0022  <S**2>=0.000
      11 -> 14         0.14595
      12 -> 14         0.23366
      13 -> 15         0.16412
      13 -> 17        -0.13261
      13 -> 18         0.58227
      13 -> 19         0.11406

 Excited State   6:      Singlet-A      9.0331 eV  137.25 nm  f=0.0217  <S**2>=0.000
      13 -> 16        -0.19874
      13 -> 17         0.63994
      13 -> 18         0.14155

 Excited State   7:      Singlet-A      9.5386 eV  129.98 nm  f=0.0502  <S**2>=0.000
      11 -> 14         0.54065
      12 -> 14        -0.33713
      13 -> 20         0.16569
      13 -> 21         0.12570
      13 -> 22         0.12613

 Excited State   8:      Singlet-A      9.8220 eV  126.23 nm  f=0.0032  <S**2>=0.000
      10 -> 14         0.65122
      13 -> 19         0.17187

 Excited State   9:      Singlet-A      9.9156 eV  125.04 nm  f=0.0002  <S**2>=0.000
      10 -> 14        -0.18750
      13 -> 15        -0.14831
      13 -> 19         0.60777
      13 -> 20        -0.11591
      13 -> 21         0.19797

 Excited State  10:      Singlet-A     10.3613 eV  119.66 nm  f=0.0039  <S**2>=0.000
      13 -> 19        -0.24531
      13 -> 20        -0.21869
      13 -> 21         0.56056
      13 -> 22        -0.25115

 Excited State  11:      Singlet-A     10.5360 eV  117.68 nm  f=0.0676  <S**2>=0.000
      12 -> 15         0.10674
      13 -> 20         0.54482
      13 -> 22        -0.38973

 Excited State  12:      Singlet-A     10.8741 eV  114.02 nm  f=0.0898  <S**2>=0.000
      11 -> 14        -0.13331
      11 -> 15         0.15744
      12 -> 15         0.22961
      12 -> 18        -0.10677
      13 -> 20         0.25015
      13 -> 21         0.28392
      13 -> 22         0.45037

 Excited State  13:      Singlet-A     11.1536 eV  111.16 nm  f=0.2072  <S**2>=0.000
      10 -> 17        -0.10817
      11 -> 14         0.14467
      11 -> 15         0.27145
      11 -> 18        -0.15223
      12 -> 15         0.43768
      12 -> 18        -0.19622
      13 -> 20        -0.17052
      13 -> 21        -0.14432
      13 -> 22        -0.17269

 Excited State  14:      Singlet-A     11.3072 eV  109.65 nm  f=0.0119  <S**2>=0.000
      11 -> 15        -0.15466
      11 -> 16         0.50213
      11 -> 17         0.13858
      12 -> 16        -0.36598
      12 -> 17        -0.11513

 Excited State  15:      Singlet-A     11.7273 eV  105.72 nm  f=0.0337  <S**2>=0.000
      10 -> 15        -0.13726
      11 -> 15         0.36687
      11 -> 16        -0.13609
      12 -> 15        -0.33229
      12 -> 16        -0.35926
      12 -> 17        -0.12204
      12 -> 18        -0.10318

 The electronic state is 1-A.
 Alpha  occ. eigenvalues --   -3.87018  -1.24014  -0.95733  -0.92440  -0.89139
 Alpha  occ. eigenvalues --   -0.85467  -0.80358  -0.66374  -0.66234  -0.58793
 Alpha  occ. eigenvalues --   -0.55182  -0.54960  -0.38848
 Alpha virt. eigenvalues --    0.04210   0.12865   0.13453   0.18155   0.21550
 Alpha virt. eigenvalues --    0.22471   0.24076   0.24327   0.24728   0.33383
 Alpha virt. eigenvalues --    0.41521

 Mulliken charges:
               1
     1  C   -0.061771
     2  C   -1.343493
     3  O    2.888374
     4  C   -1.379466
     5  C   -0.197870
     6  H    0.016842
     7  H    0.037550
     8  H    0.038841
     9  H    0.000992
 Sum of Mulliken charges =   0.00000

 Dipole moment (field-independent basis, Debye):
    X=              1.8092    Y=            -12.0383    Z=              0.5346  Tot=             12.1852
 N-N= 1.060088328893D+02 E-N=-1.723279565009D+02  KE=-2.282974904493D+01
 Orbital energies and kinetic energies (alpha):
                                 1                 2
   1         O                -3.870183         -3.040659
   2         O                -1.240139         -1.115855
   3         O                -0.957332         -0.890664
   4         O                -0.924398         -0.904454
   5         O                -0.891395         -0.851228
   6         O                -0.854667         -0.772236
   7         O                -0.803580         -0.734559

 Normal termination of Gaussian 09 at Fri Dec 11 13:41:31 2015.
