 Gaussian 09, Revision D.01,
 Gaussian 09:  ES64L-G09RevD.01 24-Apr-2013

 ------------------------------------------------------------
 #P AM1(Input,print) CIS(Singlets,NStates=15) pop(full) force
 ------------------------------------------------------------

 -----------------
 AM1-Reparam Input
 -----------------
 Symbolic Z-matrix:
 Charge =  0 Multiplicity = 1

                         Standard orientation:
 ---------------------------------------------------------------------
 Center     Atomic      Atomic             Coordinates (Angstroms)
 Number     Number       Type             X           Y           Z
 ---------------------------------------------------------------------
      1          6           0       -0.743460    0.905586    0.007329
      2          6           0       -1.067291   -0.314285    0.004573
      3          8           0        0.009564   -1.178529    0.003626
      4          6           0        1.093313   -0.336497   -0.019341
      5          6           0        0.704809    0.997165   -0.017738
      6          1           0        1.398201    1.779010    0.077998
      7          1           0        2.038640   -0.796708    0.062001
      8          1           0       -2.043865   -0.840370   -0.004796
      9          1           0       -1.393711    1.774489   -0.013147
 ---------------------------------------------------------------------

 SCF Done:  E(RAM1) =   2.16255759997     A.U. after   14 cycles

 Excitation energies and oscillator strengths:

 Excited State   1:      Singlet-A      5.3409 eV  232.14 nm  f=0.3451  <S**2>=0.000
      13 -> 14         0.69481
 This state for optimization and/or second-order correction.
 Total Energy, E(CIS) =   2.35883190705
 Copying the excited state density for this state as the 1-particle RhoCI density.

 Excited State   2:      Singlet-A      6.0013 eV  206.60 nm  f=0.0014  <S**2>=0.000
      13 -> 15         0.68435

 Excited State   3:      Singlet-A      6.3798 eV  194.34 nm  f=0.0031  <S**2>=0.000
      13 -> 16         0.66620
      13 -> 17        -0.16264
      13 -> 19        -0.11356

 Excited State   4:      Singlet-A      7.1287 eV  173.92 nm  f=0.0008  <S**2>=0.000
      12 -> 14         0.70148

 Excited State   5:      Singlet-A      7.9420 eV  156.11 nm  f=0.0008  <S**2>=0.000
      13 -> 16         0.13292
      13 -> 17         0.45721
      13 -> 18        -0.35718
      13 -> 19         0.19616
      13 -> 22         0.26686

 Excited State   6:      Singlet-A      8.1869 eV  151.44 nm  f=0.0130  <S**2>=0.000
      10 -> 14        -0.28628
      11 -> 14         0.41746
      13 -> 17         0.27415
      13 -> 18         0.33408
      13 -> 19        -0.16370
      13 -> 22        -0.12315

 Excited State   7:      Singlet-A      8.3326 eV  148.79 nm  f=0.0040  <S**2>=0.000
      10 -> 14         0.25839
      11 -> 14        -0.39433
      13 -> 17         0.40891
      13 -> 18         0.25363
      13 -> 19        -0.12564

 Excited State   8:      Singlet-A      8.8738 eV  139.72 nm  f=0.0010  <S**2>=0.000
      13 -> 18         0.33993
      13 -> 19         0.59583

 Excited State   9:      Singlet-A      8.9399 eV  138.69 nm  f=0.0294  <S**2>=0.000
       8 -> 15         0.11955
      10 -> 14         0.46698
      11 -> 14         0.31202
      12 -> 15        -0.29902
      12 -> 17        -0.10408
      13 -> 20         0.21827

 Excited State  10:      Singlet-A      9.3737 eV  132.27 nm  f=0.1571  <S**2>=0.000
       8 -> 15        -0.11028
      10 -> 14         0.22157
      11 -> 14         0.13772
      12 -> 15         0.53608
      12 -> 16        -0.18723
      13 -> 20         0.21928

 Excited State  11:      Singlet-A      9.5579 eV  129.72 nm  f=0.0045  <S**2>=0.000
      13 -> 18         0.25962
      13 -> 19        -0.16910
      13 -> 21        -0.32375
      13 -> 22         0.52926

 Excited State  12:      Singlet-A      9.8043 eV  126.46 nm  f=0.0619  <S**2>=0.000
      10 -> 14         0.10763
      10 -> 15         0.13152
      11 -> 16        -0.10632
      12 -> 15         0.23958
      12 -> 16         0.26513
      12 -> 17        -0.20325
      12 -> 18         0.12060
      13 -> 20        -0.27089
      13 -> 21         0.28426
      13 -> 22         0.20273

 Excited State  13:      Singlet-A      9.8486 eV  125.89 nm  f=0.0741  <S**2>=0.000
      11 -> 15         0.12312
      12 -> 15        -0.13001
      12 -> 16        -0.18459
      12 -> 17         0.12827
      13 -> 20         0.14450
      13 -> 21         0.51523
      13 -> 22         0.27353

 Excited State  14:      Singlet-A      9.9449 eV  124.67 nm  f=0.1307  <S**2>=0.000
      10 -> 14        -0.19628
      11 -> 14        -0.13252
      11 -> 15        -0.16521
      12 -> 16         0.22166
      13 -> 20         0.53438

 Excited State  15:      Singlet-A     10.2024 eV  121.52 nm  f=0.0026  <S**2>=0.000
       7 -> 15        -0.12204
      10 -> 15         0.48226
      10 -> 16         0.20406
      11 -> 15         0.30609
      11 -> 16         0.26838
      13 -> 15        -0.11095

 The electronic state is 1-A.
 Alpha  occ. eigenvalues --   -1.93464  -1.19895  -0.93824  -0.80490  -0.78184
 Alpha  occ. eigenvalues --   -0.69666  -0.65978  -0.53647  -0.53322  -0.44299
 Alpha  occ. eigenvalues --   -0.43911  -0.40446  -0.27415
 Alpha virt. eigenvalues --    0.12665   0.16968   0.19203   0.26800   0.29041
 Alpha virt. eigenvalues --    0.30535   0.31059   0.32499   0.33783   0.39921
 Alpha virt. eigenvalues --    0.43144

 Mulliken charges:
               1
     1  C   -0.117336
     2  C   -1.824152
     3  O    3.194524
     4  C   -1.883865
     5  C   -0.190468
     6  H    0.156781
     7  H    0.258170
     8  H    0.257028
     9  H    0.149318
 Sum of Mulliken charges =   0.00000

 Dipole moment (field-independent basis, Debye):
    X=             -0.5174    Y=            -11.5988    Z=              0.3430  Tot=             11.6154
 N-N= 1.042416400605D+02 E-N=-1.695214775412D+02  KE=-1.534585037656D+01
 Orbital energies and kinetic energies (alpha):
                                 1                 2
   1         O                -1.934644         -1.352384
   2         O                -1.198950         -1.062898
   3         O                -0.938244         -0.898317
   4         O                -0.804896         -0.564221
   5         O                -0.781840         -0.682341
   6         O                -0.696663         -0.583644
   7         O                -0.659782         -0.532968

 Normal termination of Gaussian 09 at Tue Dec 15 17:09:12 2015.
