 Gaussian 09, Revision D.01,
 Gaussian 09:  ES64L-G09RevD.01 24-Apr-2013

 ----------------------------
 #P AM1(Input,print) Opt Freq
 ----------------------------

 -----------------
 AM1-Reparam Input
 -----------------
 Symbolic Z-matrix:
 Charge =  0 Multiplicity = 1

 SCF Done:  E(RAM1) =  -2.31459995622     A.U. after   12 cycles
 SCF Done:  E(RAM1) =  -2.32831511434     A.U. after   11 cycles
 SCF Done:  E(RAM1) =  -2.33026226754     A.U. after   10 cycles
 SCF Done:  E(RAM1) =  -2.33040732955     A.U. after   11 cycles
 SCF Done:  E(RAM1) =  -2.33080201560     A.U. after   11 cycles
 SCF Done:  E(RAM1) =  -2.33080113615     A.U. after    9 cycles
 SCF Done:  E(RAM1) =  -2.33080795730     A.U. after    9 cycles
 SCF Done:  E(RAM1) =  -2.33081122466     A.U. after    9 cycles
 Optimization completed.
    -- Stationary point found.
 Normal termination of Gaussian 09 at Tue Dec 15 16:10:01 2015.

 -------------------------------------------------------------
 #P Geom=AllCheck Guess=TCheck SCRF=Check GenChk RAM1/ZDO Freq
 -------------------------------------------------------------

 Structure from the checkpoint file:  "/home/Applications/g09/scratch/Gau-5250.chk"
 -----------------
 AM1-Reparam Input
 -----------------
 Charge =  0 Multiplicity = 1

                         Standard orientation:
 ---------------------------------------------------------------------
 Center     Atomic      Atomic             Coordinates (Angstroms)
 Number     Number       Type             X           Y           Z
 ---------------------------------------------------------------------
      1          6           0       -0.972978    0.697161    0.000058
      2          6           0        0.351797    1.065907   -0.000050
      3          8           0        1.196857   -0.000111    0.000038
      4          6           0        0.351562   -1.065990   -0.000057
      5          6           0       -0.973138   -0.696939    0.000015
      6          1           0       -1.864494   -1.354203   -0.000020
      7          1           0        0.805060   -2.077193    0.000040
      8          1           0        0.805432    2.076981   -0.000001
      9          1           0       -1.864311    1.354467   -0.000121
 ---------------------------------------------------------------------

 SCF Done:  E(RAM1) =  -2.33081122466     A.U. after    2 cycles

 The electronic state is 1-A.
 Alpha  occ. eigenvalues --   -1.84405  -1.31866  -1.09744  -0.92438  -0.84384
 Alpha  occ. eigenvalues --   -0.79740  -0.79724  -0.58512  -0.58470  -0.56912
 Alpha  occ. eigenvalues --   -0.54905  -0.48574  -0.43939
 Alpha virt. eigenvalues --    0.01313   0.03404   0.11265   0.13463   0.18224
 Alpha virt. eigenvalues --    0.18807   0.21461   0.22484   0.30148   0.33077
 Alpha virt. eigenvalues --    0.39046

 Mulliken charges:
               1
     1  C   -0.340091
     2  C   -0.285292
     3  O    0.259159
     4  C   -0.285323
     5  C   -0.340062
     6  H    0.243949
     7  H    0.251857
     8  H    0.251852
     9  H    0.243953
 Sum of Mulliken charges =   0.00000

 Dipole moment (field-independent basis, Debye):
    X=              0.8425    Y=             -0.0002    Z=              0.0000  Tot=              0.8425
 N-N= 1.034369423830D+02 E-N=-1.713844720776D+02  KE=-1.847873690896D+01
  Exact polarizability:  36.585   0.000  39.313  -0.001   0.000   7.136
 Approx polarizability:  32.038   0.000  32.770  -0.001   0.000   5.461
 Leave Link  601 at Tue Dec 15 16:10:01 2015, MaxMem=    33554432 cpu:         0.0
 (Enter /home/Applications/g09/g09/l701.exe)
 Compute integral second derivatives.
 ... and contract with generalized density number  0.
 Leave Link  701 at Tue Dec 15 16:10:01 2015, MaxMem=    33554432 cpu:         0.0
 (Enter /home/Applications/g09/g09/l702.exe)
 L702 exits ... SP integral derivatives will be done elsewhere.

                      1                      2                      3
                      A                      A                      A
 Frequencies --    623.6753               675.2406               826.6160
 Red. masses --      1.6805                 2.0368                 6.8540
 Frc consts  --      0.3851                 0.5472                 2.7593
 IR Inten    --      0.0000                 8.4637                 0.0522

                      4                      5                      6
                      A                      A                      A
 Frequencies --    909.9514               910.9487              1027.1473
 Red. masses --      1.1790                 4.9022                 1.2937
 Frc consts  --      0.5752                 2.3968                 0.8042
 IR Inten    --    218.4660                 0.7430                 0.0000

                      7                      8                      9
                      A                      A                      A
 Frequencies --   1113.9335              1114.0524              1122.5316
 Red. masses --      1.0525                 1.8804                 1.0810
 Frc consts  --      0.7695                 1.3750                 0.8026
 IR Inten    --     56.9925                 3.3881                89.3325

                     10                     11                     12
                      A                      A                      A
 Frequencies --   1200.5600              1201.5560              1268.2558
 Red. masses --      1.1459                 2.0821                 1.2045
 Frc consts  --      0.9731                 1.7711                 1.1414
 IR Inten    --     65.7299                 0.0003                 1.8601

                     13                     14                     15
                      A                      A                      A
 Frequencies --   1555.0815              1585.0523              1777.8150
 Red. masses --      7.5316                 8.8851                 9.6802
 Frc consts  --     10.7310                13.1523                18.0264
 IR Inten    --      6.7100                51.7780                 0.0002

                     16                     17                     18
                      A                      A                      A
 Frequencies --   1784.5714              1865.1202              3328.4573
 Red. masses --      7.0950                 8.4867                 1.0803
 Frc consts  --     13.3128                17.3942                 7.0516
 IR Inten    --      5.5377                 5.3885                10.0275

                     19                     20                     21
                      A                      A                      A
 Frequencies --   3335.5023              3342.4509              3362.8050
 Red. masses --      1.0830                 1.0858                 1.1046
 Frc consts  --      7.0991                 7.1469                 7.3599
 IR Inten    --    340.9599               554.6096                18.7540

 - Thermochemistry -
 -------------------
 Temperature   298.150 Kelvin.  Pressure   1.00000 Atm.
 Atom     1 has atomic number  6 and mass  12.00000

 Molecular mass:    68.02621 amu.
 Principal axes and moments of inertia in atomic units:
                           1         2         3
     Eigenvalues --   183.28224 203.02756 386.30980
           X            1.00000   0.00006   0.00001
           Y           -0.00006   1.00000   0.00000
           Z           -0.00001   0.00000   1.00000
 This molecule is an asymmetric top.
 Rotational symmetry number  1.
 Rotational temperatures (Kelvin)      0.47257     0.42661     0.22421
 Rotational constants (GHZ):           9.84679     8.88914     4.67175
 Zero-point vibrational energy     202954.4 (Joules/Mol)
                                   48.50726 (Kcal/Mol)
 Vibrational temperatures:    897.33   971.52  1189.31  1309.22  1310.65
          (Kelvin)           1477.83  1602.70  1602.87  1615.07  1727.34
                             1728.77  1824.73  2237.41  2280.53  2557.88
                             2567.60  2683.49  4788.90  4799.04  4809.04
                             4838.32

 Zero-point correction=                           0.077301 (Hartree/Particle)
 Thermal correction to Energy=                    0.080740
 Thermal correction to Enthalpy=                  0.081684
 Thermal correction to Gibbs Free Energy=         0.051110
 Sum of electronic and zero-point Energies=             -2.253510
 Sum of electronic and thermal Energies=                -2.250071
 Sum of electronic and thermal Enthalpies=              -2.249127
 Sum of electronic and thermal Free Energies=           -2.279702

                     E (Thermal)             CV                S
                      KCal/Mol        Cal/Mol-Kelvin    Cal/Mol-Kelvin
 Total                   50.665             11.311             64.349
 Electronic               0.000              0.000              0.000
 Translational            0.889              2.981             38.570
 Rotational               0.889              2.981             24.178
 Vibrational             48.887              5.349              1.601

 Optimization completed.
    -- Stationary point found.
 Normal termination of Gaussian 09 at Tue Dec 15 16:10:01 2015.
