 Gaussian 09, Revision D.01,
 Gaussian 09:  ES64L-G09RevD.01 24-Apr-2013

 ------------------------------------------------------------
 #P AM1(Input,print) CIS(Singlets,NStates=15) pop(full) force
 ------------------------------------------------------------

 -----------------
 AM1-Reparam Input
 -----------------
 Symbolic Z-matrix:
 Charge =  0 Multiplicity = 1

                         Standard orientation:
 ---------------------------------------------------------------------
 Center     Atomic      Atomic             Coordinates (Angstroms)
 Number     Number       Type             X           Y           Z
 ---------------------------------------------------------------------
      1          6           0       -0.716696    0.974194   -0.001533
      2          6           0       -1.107298   -0.366008   -0.010851
      3          8           0       -0.014993   -1.126145    0.021393
      4          6           0        1.125713   -0.343801   -0.025532
      5          6           0        0.713331    0.902906    0.003358
      6          1           0        1.455381    1.817331    0.048706
      7          1           0        2.036707   -0.850826   -0.004192
      8          1           0       -2.092884   -0.817018   -0.011359
      9          1           0       -1.369558    1.855927    0.003043
 ---------------------------------------------------------------------

 SCF Done:  E(RAM1) =   1.82146454110     A.U. after   13 cycles

 Excitation energies and oscillator strengths:

 Excited State   1:      Singlet-A      5.6222 eV  220.53 nm  f=0.3259  <S**2>=0.000
      13 -> 14         0.68976
 This state for optimization and/or second-order correction.
 Total Energy, E(CIS) =   2.02807533270
 Copying the excited state density for this state as the 1-particle RhoCI density.

 Excited State   2:      Singlet-A      6.5073 eV  190.53 nm  f=0.0049  <S**2>=0.000
      10 -> 15        -0.10609
      13 -> 15         0.64528
      13 -> 17        -0.18393
      13 -> 19         0.12258

 Excited State   3:      Singlet-A      6.6610 eV  186.14 nm  f=0.0008  <S**2>=0.000
      12 -> 14         0.69058

 Excited State   4:      Singlet-A      6.8825 eV  180.14 nm  f=0.0011  <S**2>=0.000
      10 -> 16         0.11262
      13 -> 16         0.65377
      13 -> 18        -0.10235
      13 -> 19        -0.12811

 Excited State   5:      Singlet-A      7.6950 eV  161.12 nm  f=0.0051  <S**2>=0.000
      11 -> 14         0.67752
      13 -> 17        -0.15029

 Excited State   6:      Singlet-A      7.9433 eV  156.09 nm  f=0.0015  <S**2>=0.000
      11 -> 14         0.15943
      13 -> 15         0.14114
      13 -> 17         0.57571
      13 -> 18        -0.24439
      13 -> 21         0.20968

 Excited State   7:      Singlet-A      8.2900 eV  149.56 nm  f=0.0037  <S**2>=0.000
      10 -> 16         0.10783
      13 -> 16         0.13731
      13 -> 17         0.29036
      13 -> 18         0.54982
      13 -> 21        -0.25214

 Excited State   8:      Singlet-A      8.8631 eV  139.89 nm  f=0.0049  <S**2>=0.000
      10 -> 15         0.10272
      13 -> 15        -0.10567
      13 -> 18        -0.21272
      13 -> 19         0.60153
      13 -> 20         0.13795
      13 -> 21        -0.13230

 Excited State   9:      Singlet-A      8.8976 eV  139.35 nm  f=0.0154  <S**2>=0.000
       8 -> 16        -0.10485
      10 -> 14         0.41649
      11 -> 16         0.16479
      11 -> 17        -0.15288
      12 -> 15        -0.17930
      12 -> 16         0.16177
      12 -> 17         0.31412
      12 -> 18        -0.17694
      12 -> 21         0.10396

 Excited State  10:      Singlet-A      9.1400 eV  135.65 nm  f=0.0766  <S**2>=0.000
       8 -> 15         0.10013
      10 -> 14         0.47136
      11 -> 16        -0.12992
      11 -> 17         0.10085
      11 -> 18         0.17030
      12 -> 15         0.36025
      12 -> 17        -0.11229
      12 -> 18         0.11468

 Excited State  11:      Singlet-A      9.4109 eV  131.74 nm  f=0.1622  <S**2>=0.000
       9 -> 16        -0.10563
      11 -> 16        -0.13541
      12 -> 16         0.61968
      12 -> 17        -0.15206
      12 -> 19        -0.11537

 Excited State  12:      Singlet-A      9.4656 eV  130.98 nm  f=0.0117  <S**2>=0.000
      12 -> 16         0.10048
      13 -> 18         0.26449
      13 -> 19         0.24179
      13 -> 20        -0.10506
      13 -> 21         0.57225

 Excited State  13:      Singlet-A      9.6524 eV  128.45 nm  f=0.2058  <S**2>=0.000
      10 -> 14        -0.22725
      11 -> 15         0.33852
      11 -> 17        -0.16950
      12 -> 15         0.43043
      12 -> 17         0.13634
      12 -> 18        -0.21398
      12 -> 19         0.13556

 Excited State  14:      Singlet-A      9.7705 eV  126.90 nm  f=0.0891  <S**2>=0.000
      10 -> 15        -0.10532
      13 -> 19        -0.10263
      13 -> 20         0.65937
      13 -> 21         0.13409

 Excited State  15:      Singlet-A      9.8420 eV  125.97 nm  f=0.0696  <S**2>=0.000
       9 -> 15        -0.24174
      10 -> 14         0.12908
      11 -> 15         0.42674
      11 -> 18        -0.15541
      11 -> 19         0.20652
      12 -> 17        -0.31726
      12 -> 19        -0.10602

 The electronic state is 1-A.
 Alpha  occ. eigenvalues --   -1.95052  -1.20765  -0.99009  -0.81120  -0.80108
 Alpha  occ. eigenvalues --   -0.69417  -0.66476  -0.54078  -0.49538  -0.43219
 Alpha  occ. eigenvalues --   -0.41402  -0.37921  -0.28164
 Alpha virt. eigenvalues --    0.13304   0.18910   0.20344   0.24887   0.27626
 Alpha virt. eigenvalues --    0.29480   0.31773   0.33586   0.36445   0.44745
 Alpha virt. eigenvalues --    0.50378

 Mulliken charges:
               1
     1  C   -0.155816
     2  C   -1.967769
     3  O    3.149332
     4  C   -1.912766
     5  C   -0.055101
     6  H    0.150707
     7  H    0.302197
     8  H    0.324533
     9  H    0.164683
 Sum of Mulliken charges =   0.00000

 Dipole moment (field-independent basis, Debye):
    X=             -0.1240    Y=             -9.7696    Z=              0.5976  Tot=              9.7886
 N-N= 1.041101228486D+02 E-N=-1.696062892880D+02  KE=-1.564566711334D+01
 Orbital energies and kinetic energies (alpha):
                                 1                 2
   1         O                -1.950519         -1.425674
   2         O                -1.207648         -1.060792
   3         O                -0.990093         -0.906452
   4         O                -0.811205         -0.618992
   5         O                -0.801083         -0.698916
   6         O                -0.694171         -0.573761
   7         O                -0.664761         -0.571492

 Normal termination of Gaussian 09 at Tue Dec 15 17:09:56 2015.
