 Gaussian 09, Revision D.01,
 Gaussian 09:  ES64L-G09RevD.01 24-Apr-2013

 ------------------------------------------------------------
 #P AM1(Input,print) CIS(Singlets,NStates=15) pop(full) force
 ------------------------------------------------------------

 -----------------
 AM1-Reparam Input
 -----------------
 Symbolic Z-matrix:
 Charge =  0 Multiplicity = 1

                         Standard orientation:
 ---------------------------------------------------------------------
 Center     Atomic      Atomic             Coordinates (Angstroms)
 Number     Number       Type             X           Y           Z
 ---------------------------------------------------------------------
      1          6           0       -1.158379    0.268987    0.024399
      2          6           0       -0.594766   -0.916088    0.019218
      3          8           0        0.769663   -0.928633   -0.014536
      4          6           0        1.047387    0.466421   -0.002715
      5          6           0       -0.099143    1.174056   -0.022885
      6          1           0       -0.130116    2.278516    0.031869
      7          1           0        2.082167    0.677807    0.071047
      8          1           0       -1.035090   -1.957870   -0.020945
      9          1           0       -2.244857    0.470356   -0.073788
 ---------------------------------------------------------------------

 SCF Done:  E(RAM1) =   2.58998527307     A.U. after   14 cycles

 Excitation energies and oscillator strengths:

 Excited State   1:      Singlet-A      5.4309 eV  228.30 nm  f=0.3155  <S**2>=0.000
      13 -> 14         0.69048
 This state for optimization and/or second-order correction.
 Total Energy, E(CIS) =   2.78956618861
 Copying the excited state density for this state as the 1-particle RhoCI density.

 Excited State   2:      Singlet-A      5.7938 eV  213.99 nm  f=0.0061  <S**2>=0.000
      10 -> 15         0.12034
      13 -> 15         0.67858

 Excited State   3:      Singlet-A      6.6082 eV  187.62 nm  f=0.0032  <S**2>=0.000
      10 -> 16        -0.12804
      13 -> 16         0.66052
      13 -> 17        -0.14967
      13 -> 19        -0.11107

 Excited State   4:      Singlet-A      7.0627 eV  175.55 nm  f=0.0005  <S**2>=0.000
      12 -> 14         0.69740

 Excited State   5:      Singlet-A      7.8048 eV  158.86 nm  f=0.0120  <S**2>=0.000
      11 -> 14         0.57327
      13 -> 17         0.36756

 Excited State   6:      Singlet-A      7.9690 eV  155.58 nm  f=0.0030  <S**2>=0.000
      11 -> 14        -0.37292
      13 -> 17         0.41166
      13 -> 18        -0.34482
      13 -> 19        -0.14455
      13 -> 21        -0.18359

 Excited State   7:      Singlet-A      8.0976 eV  153.11 nm  f=0.0024  <S**2>=0.000
      10 -> 16        -0.11018
      11 -> 14        -0.15427
      13 -> 16         0.11676
      13 -> 17         0.38204
      13 -> 18         0.48321
      13 -> 21         0.24988

 Excited State   8:      Singlet-A      8.7810 eV  141.20 nm  f=0.0001  <S**2>=0.000
      10 -> 16        -0.10109
      13 -> 18        -0.21049
      13 -> 19         0.64490

 Excited State   9:      Singlet-A      8.8394 eV  140.26 nm  f=0.0499  <S**2>=0.000
       8 -> 15        -0.13889
      10 -> 14         0.54904
      12 -> 15        -0.36680

 Excited State  10:      Singlet-A      9.0227 eV  137.41 nm  f=0.0886  <S**2>=0.000
       8 -> 15         0.11303
       8 -> 16         0.11106
       9 -> 15         0.10252
      10 -> 14         0.37595
      11 -> 17        -0.14495
      12 -> 15         0.45227
      12 -> 16        -0.17450
      12 -> 18         0.15456

 Excited State  11:      Singlet-A      9.4199 eV  131.62 nm  f=0.0299  <S**2>=0.000
       7 -> 15        -0.11144
       9 -> 15         0.11674
      10 -> 15         0.50827
      11 -> 15         0.33961
      11 -> 17        -0.13340
      13 -> 15        -0.12054

 Excited State  12:      Singlet-A      9.5266 eV  130.15 nm  f=0.0428  <S**2>=0.000
       9 -> 15         0.12167
      10 -> 15        -0.20719
      11 -> 15         0.28991
      11 -> 17        -0.17439
      12 -> 15        -0.14624
      12 -> 18         0.14098
      13 -> 18        -0.21236
      13 -> 19        -0.11694
      13 -> 21         0.42488

 Excited State  13:      Singlet-A      9.5891 eV  129.30 nm  f=0.0306  <S**2>=0.000
      10 -> 15         0.35697
      11 -> 15        -0.19883
      11 -> 17         0.15043
      12 -> 15         0.11067
      12 -> 18        -0.12487
      13 -> 18        -0.18706
      13 -> 21         0.43574

 Excited State  14:      Singlet-A      9.8416 eV  125.98 nm  f=0.1082  <S**2>=0.000
       9 -> 15        -0.11971
      10 -> 16        -0.13017
      11 -> 15        -0.18117
      11 -> 16         0.13680
      11 -> 19        -0.10580
      12 -> 17        -0.13609
      12 -> 18         0.14872
      13 -> 20         0.56070

 Excited State  15:      Singlet-A      9.8837 eV  125.44 nm  f=0.1643  <S**2>=0.000
       9 -> 16        -0.11650
      11 -> 15        -0.11851
      11 -> 16         0.26629
      11 -> 17        -0.13935
      11 -> 19        -0.12095
      12 -> 16         0.40054
      12 -> 17        -0.19839
      12 -> 18         0.17643
      13 -> 20        -0.31566

 The electronic state is 1-A.
 Alpha  occ. eigenvalues --   -1.72235  -1.17116  -0.93857  -0.79592  -0.75981
 Alpha  occ. eigenvalues --   -0.66753  -0.63810  -0.52274  -0.49790  -0.42334
 Alpha  occ. eigenvalues --   -0.41721  -0.39323  -0.27278
 Alpha virt. eigenvalues --    0.13777   0.16204   0.20088   0.26576   0.28566
 Alpha virt. eigenvalues --    0.30654   0.32939   0.34806   0.37495   0.47727
 Alpha virt. eigenvalues --    0.50411

 Mulliken charges:
               1
     1  C   -0.084875
     2  C   -1.891331
     3  O    3.208818
     4  C   -1.885067
     5  C   -0.039793
     6  H    0.106046
     7  H    0.229516
     8  H    0.247149
     9  H    0.109535
 Sum of Mulliken charges =   0.00000

 Dipole moment (field-independent basis, Debye):
    X=              7.0989    Y=             -9.5412    Z=             -0.2835  Tot=             11.8958
 N-N= 1.036511049934D+02 E-N=-1.686585291313D+02  KE=-1.502243852371D+01
 Orbital energies and kinetic energies (alpha):
                                 1                 2
   1         O                -1.722349         -1.210832
   2         O                -1.171160         -1.033642
   3         O                -0.938566         -0.876441
   4         O                -0.795916         -0.601061
   5         O                -0.759809         -0.670647
   6         O                -0.667527         -0.570918
   7         O                -0.638105         -0.529675

 Normal termination of Gaussian 09 at Tue Dec 15 17:06:20 2015.
