 Gaussian 09, Revision D.01,
 Gaussian 09:  ES64L-G09RevD.01 24-Apr-2013

 ------------------------------------------------------------
 #P AM1(Input,print) CIS(Singlets,NStates=15) pop(full) force
 ------------------------------------------------------------

 -----------------
 AM1-Reparam Input
 -----------------
 Symbolic Z-matrix:
 Charge =  0 Multiplicity = 1

                         Standard orientation:
 ---------------------------------------------------------------------
 Center     Atomic      Atomic             Coordinates (Angstroms)
 Number     Number       Type             X           Y           Z
 ---------------------------------------------------------------------
      1          6           0       -0.997617    0.663434    0.002578
      2          6           0       -0.876975   -0.703491   -0.019168
      3          8           0        0.403608   -1.045229    0.013682
      4          6           0        1.141382    0.032805   -0.004873
      5          6           0        0.313001    1.104345   -0.014920
      6          1           0        0.565638    2.173084    0.016866
      7          1           0        2.267236   -0.017053    0.024764
      8          1           0       -1.574377   -1.494734   -0.004473
      9          1           0       -1.966114    1.117970    0.071685
 ---------------------------------------------------------------------

 SCF Done:  E(RAM1) =   2.11379983763     A.U. after   13 cycles

 Excitation energies and oscillator strengths:

 Excited State   1:      Singlet-A      5.7757 eV  214.66 nm  f=0.3306  <S**2>=0.000
      13 -> 14         0.69195
 This state for optimization and/or second-order correction.
 Total Energy, E(CIS) =   2.32605351438
 Copying the excited state density for this state as the 1-particle RhoCI density.

 Excited State   2:      Singlet-A      6.7364 eV  184.05 nm  f=0.0043  <S**2>=0.000
      13 -> 15         0.60142
      13 -> 16         0.29151
      13 -> 17        -0.16893

 Excited State   3:      Singlet-A      6.9835 eV  177.54 nm  f=0.0002  <S**2>=0.000
      13 -> 15        -0.29469
      13 -> 16         0.59573
      13 -> 19         0.15555

 Excited State   4:      Singlet-A      7.3080 eV  169.65 nm  f=0.0009  <S**2>=0.000
      12 -> 14         0.69852

 Excited State   5:      Singlet-A      8.1232 eV  152.63 nm  f=0.0069  <S**2>=0.000
      10 -> 14         0.40786
      11 -> 14         0.55122
      13 -> 17        -0.12125

 Excited State   6:      Singlet-A      8.4248 eV  147.17 nm  f=0.0005  <S**2>=0.000
      11 -> 14        -0.10105
      13 -> 17        -0.41677
      13 -> 18         0.42349
      13 -> 21         0.31168

 Excited State   7:      Singlet-A      8.7445 eV  141.78 nm  f=0.0114  <S**2>=0.000
      13 -> 15         0.11026
      13 -> 17         0.50500
      13 -> 18         0.38073
      13 -> 21         0.21419

 Excited State   8:      Singlet-A      9.0858 eV  136.46 nm  f=0.0893  <S**2>=0.000
      10 -> 14         0.54785
      11 -> 14        -0.40135

 Excited State   9:      Singlet-A      9.3959 eV  131.96 nm  f=0.0005  <S**2>=0.000
      13 -> 18        -0.23577
      13 -> 19         0.61464
      13 -> 21         0.14122

 Excited State  10:      Singlet-A      9.7302 eV  127.42 nm  f=0.0402  <S**2>=0.000
       8 -> 15         0.10316
       8 -> 16         0.10345
      10 -> 15         0.15530
      10 -> 17        -0.14651
      11 -> 15         0.22130
      11 -> 16         0.10240
      11 -> 17        -0.18301
      12 -> 15         0.10653
      12 -> 16         0.36735
      12 -> 17        -0.21298
      12 -> 18         0.21305

 Excited State  11:      Singlet-A      9.8508 eV  125.86 nm  f=0.1059  <S**2>=0.000
      12 -> 15         0.63674
      12 -> 16        -0.15253
      12 -> 18        -0.10610
      12 -> 19        -0.11878

 Excited State  12:      Singlet-A      9.8622 eV  125.72 nm  f=0.0070  <S**2>=0.000
      13 -> 18        -0.32453
      13 -> 19        -0.24827
      13 -> 20         0.11063
      13 -> 21         0.54124

 Excited State  13:      Singlet-A     10.1223 eV  122.49 nm  f=0.0311  <S**2>=0.000
      10 -> 15        -0.37270
      11 -> 15         0.40821
      11 -> 16         0.19311
      12 -> 16        -0.15149
      13 -> 15        -0.10604
      13 -> 16         0.12225
      13 -> 19        -0.10383
      13 -> 20        -0.24343

 Excited State  14:      Singlet-A     10.1713 eV  121.90 nm  f=0.0950  <S**2>=0.000
      11 -> 16         0.35525
      12 -> 16        -0.17990
      13 -> 20         0.53487
      13 -> 21        -0.13674

 Excited State  15:      Singlet-A     10.2994 eV  120.38 nm  f=0.1335  <S**2>=0.000
      10 -> 15        -0.29265
      10 -> 16        -0.28814
      11 -> 16        -0.26023
      12 -> 16         0.31814
      13 -> 20         0.27983

 The electronic state is 1-A.
 Alpha  occ. eigenvalues --   -1.96296  -1.21061  -0.94082  -0.81769  -0.78513
 Alpha  occ. eigenvalues --   -0.69671  -0.67826  -0.56290  -0.53914  -0.45308
 Alpha  occ. eigenvalues --   -0.44662  -0.42450  -0.31089
 Alpha virt. eigenvalues --    0.11503   0.16752   0.18057   0.24670   0.26681
 Alpha virt. eigenvalues --    0.29024   0.30224   0.31858   0.34963   0.42679
 Alpha virt. eigenvalues --    0.47823

 Mulliken charges:
               1
     1  C   -0.126830
     2  C   -1.916358
     3  O    3.217477
     4  C   -1.921537
     5  C   -0.147146
     6  H    0.163925
     7  H    0.296275
     8  H    0.270192
     9  H    0.164002
 Sum of Mulliken charges =   0.00000

 Dipole moment (field-independent basis, Debye):
    X=              3.6473    Y=             -9.0766    Z=              0.4984  Tot=              9.7947
 N-N= 1.050116287166D+02 E-N=-1.707352004890D+02  KE=-1.540181614592D+01
 Orbital energies and kinetic energies (alpha):
                                 1                 2
   1         O                -1.962963         -1.413564
   2         O                -1.210610         -1.055707
   3         O                -0.940819         -0.880453
   4         O                -0.817693         -0.565784
   5         O                -0.785135         -0.684873
   6         O                -0.696711         -0.593320
   7         O                -0.678258         -0.540912

 Normal termination of Gaussian 09 at Tue Dec 15 17:09:17 2015.
