 Gaussian 09, Revision D.01,
 Gaussian 09:  ES64L-G09RevD.01 24-Apr-2013

 ------------------------------------------------------------
 #P AM1(Input,print) CIS(Singlets,NStates=15) pop(full) force
 ------------------------------------------------------------

 -----------------
 AM1-Reparam Input
 -----------------
 Symbolic Z-matrix:
 Charge =  0 Multiplicity = 1

                         Standard orientation:
 ---------------------------------------------------------------------
 Center     Atomic      Atomic             Coordinates (Angstroms)
 Number     Number       Type             X           Y           Z
 ---------------------------------------------------------------------
      1          6           0        0.666294    1.023339    0.017408
      2          6           0        1.136860   -0.249874   -0.014082
      3          8           0        0.089896   -1.178830   -0.004540
      4          6           0       -1.096074   -0.398709    0.011096
      5          6           0       -0.792337    0.873631   -0.015119
      6          1           0       -1.484298    1.786474   -0.001429
      7          1           0       -2.044421   -0.954456    0.016592
      8          1           0        2.101279   -0.747939    0.035972
      9          1           0        1.219823    1.856243   -0.010626
 ---------------------------------------------------------------------

 SCF Done:  E(RAM1) =   2.14387220901     A.U. after   13 cycles

 Excitation energies and oscillator strengths:

 Excited State   1:      Singlet-A      5.2524 eV  236.05 nm  f=0.3617  <S**2>=0.000
      13 -> 14         0.69669
 This state for optimization and/or second-order correction.
 Total Energy, E(CIS) =   2.33689325486
 Copying the excited state density for this state as the 1-particle RhoCI density.

 Excited State   2:      Singlet-A      6.1392 eV  201.95 nm  f=0.0002  <S**2>=0.000
      13 -> 15         0.67229
      13 -> 17        -0.11440
      13 -> 20        -0.13340

 Excited State   3:      Singlet-A      6.3180 eV  196.24 nm  f=0.0006  <S**2>=0.000
      13 -> 16         0.67643
      13 -> 18        -0.11712

 Excited State   4:      Singlet-A      6.9950 eV  177.25 nm  f=0.0004  <S**2>=0.000
      12 -> 14         0.70093

 Excited State   5:      Singlet-A      7.7008 eV  161.00 nm  f=0.0013  <S**2>=0.000
      13 -> 15         0.12380
      13 -> 17         0.53696
      13 -> 18        -0.28037
      13 -> 20         0.20473
      13 -> 22        -0.22860

 Excited State   6:      Singlet-A      8.1207 eV  152.68 nm  f=0.0119  <S**2>=0.000
      10 -> 14        -0.31420
      11 -> 14        -0.18045
      13 -> 16         0.11008
      13 -> 17         0.31911
      13 -> 18         0.43535
      13 -> 20        -0.16788
      13 -> 22         0.13806

 Excited State   7:      Singlet-A      8.2887 eV  149.58 nm  f=0.0004  <S**2>=0.000
      10 -> 14         0.51704
      11 -> 14         0.29751
      13 -> 17         0.25528
      13 -> 18         0.22986

 Excited State   8:      Singlet-A      8.7958 eV  140.96 nm  f=0.0102  <S**2>=0.000
      11 -> 14        -0.11177
      13 -> 18         0.26868
      13 -> 19        -0.17574
      13 -> 20         0.58132
      13 -> 21        -0.10785

 Excited State   9:      Singlet-A      8.8256 eV  140.48 nm  f=0.0048  <S**2>=0.000
      10 -> 14        -0.25141
      11 -> 14         0.43405
      12 -> 16        -0.11417
      13 -> 18         0.12319
      13 -> 19         0.40668
      13 -> 20         0.17362

 Excited State  10:      Singlet-A      9.4016 eV  131.88 nm  f=0.0543  <S**2>=0.000
      10 -> 14         0.12551
      11 -> 14        -0.21791
      12 -> 15        -0.24803
      12 -> 16         0.26064
      12 -> 17         0.19417
      12 -> 18        -0.10161
      13 -> 18         0.13270
      13 -> 19         0.37660
      13 -> 21         0.16174
      13 -> 22        -0.16403

 Excited State  11:      Singlet-A      9.4429 eV  131.30 nm  f=0.0181  <S**2>=0.000
      12 -> 15        -0.11792
      12 -> 16         0.11131
      13 -> 18        -0.22609
      13 -> 19         0.15265
      13 -> 21        -0.33501
      13 -> 22         0.48829

 Excited State  12:      Singlet-A      9.5237 eV  130.18 nm  f=0.1827  <S**2>=0.000
       8 -> 15         0.11041
      10 -> 14         0.16265
      11 -> 14        -0.27445
      12 -> 15         0.36919
      12 -> 16        -0.20396
      12 -> 18         0.12051
      13 -> 19         0.34898

 Excited State  13:      Singlet-A      9.7205 eV  127.55 nm  f=0.0689  <S**2>=0.000
      13 -> 20         0.12323
      13 -> 21         0.55028
      13 -> 22         0.37968

 Excited State  14:      Singlet-A      9.9531 eV  124.57 nm  f=0.0518  <S**2>=0.000
      11 -> 14         0.12771
      12 -> 15         0.28601
      12 -> 16         0.55123
      12 -> 17        -0.14581

 Excited State  15:      Singlet-A     10.1649 eV  121.97 nm  f=0.3344  <S**2>=0.000
       8 -> 15         0.12411
      10 -> 15        -0.15609
      10 -> 16        -0.15878
      10 -> 17         0.19253
      11 -> 14         0.13017
      11 -> 15        -0.13220
      11 -> 16        -0.10750
      11 -> 17         0.10233
      12 -> 15         0.27808
      12 -> 17         0.38256
      12 -> 18        -0.22695

 The electronic state is 1-A.
 Alpha  occ. eigenvalues --   -1.92050  -1.18163  -0.92786  -0.80032  -0.78003
 Alpha  occ. eigenvalues --   -0.68923  -0.64584  -0.54277  -0.53749  -0.44235
 Alpha  occ. eigenvalues --   -0.44137  -0.40075  -0.27075
 Alpha virt. eigenvalues --    0.12347   0.18115   0.18608   0.26156   0.28974
 Alpha virt. eigenvalues --    0.29213   0.30379   0.32547   0.33326   0.38025
 Alpha virt. eigenvalues --    0.41398

 Mulliken charges:
               1
     1  C   -0.188240
     2  C   -1.850553
     3  O    3.203659
     4  C   -1.843243
     5  C   -0.135634
     6  H    0.153373
     7  H    0.260972
     8  H    0.244513
     9  H    0.155154
 Sum of Mulliken charges =   0.00000

 Dipole moment (field-independent basis, Debye):
    X=              0.5676    Y=            -11.7508    Z=              0.0334  Tot=             11.7645
 N-N= 1.034633739846D+02 E-N=-1.682062331718D+02  KE=-1.527097653300D+01
 Orbital energies and kinetic energies (alpha):
                                 1                 2
   1         O                -1.920504         -1.320055
   2         O                -1.181634         -1.049223
   3         O                -0.927860         -0.889517
   4         O                -0.800317         -0.587800
   5         O                -0.780031         -0.662221
   6         O                -0.689233         -0.589942
   7         O                -0.645836         -0.524529

 Normal termination of Gaussian 09 at Tue Dec 15 17:08:35 2015.
