 Gaussian 09, Revision D.01,
 Gaussian 09:  ES64L-G09RevD.01 24-Apr-2013

 -------------------------------------------------------
 #P B3LYP/3-21G CIS(Singlets,NStates=15) pop(full) force
 -------------------------------------------------------

 --------
 FuranDFT
 --------
 Symbolic Z-matrix:
 Charge =  0 Multiplicity = 1

                         Standard orientation:
 ---------------------------------------------------------------------
 Center     Atomic      Atomic             Coordinates (Angstroms)
 Number     Number       Type             X           Y           Z
 ---------------------------------------------------------------------
      1          6           0        0.997475    0.685063   -0.014824
      2          6           0        0.940449   -0.633211   -0.000099
      3          8           0       -0.343307   -1.080257   -0.024714
      4          6           0       -1.184418   -0.037306    0.038479
      5          6           0       -0.389944    1.104132    0.005761
      6          1           0       -0.719698    2.168621   -0.062461
      7          1           0       -2.209550   -0.159561   -0.029901
      8          1           0        1.684739   -1.406406    0.074416
      9          1           0        1.809589    1.327340    0.039754
 ---------------------------------------------------------------------

 SCF Done:  E(RB3LYP) =  -228.739972267     A.U. after   14 cycles

 Excitation energies and oscillator strengths:

 Excited State   1:      Singlet-A      7.2013 eV  172.17 nm  f=0.0372  <S**2>=0.000
      17 -> 19         0.43320
      18 -> 19        -0.32148
      18 -> 20         0.44119
 This state for optimization and/or second-order correction.
 Total Energy, E(CIS) =  -228.475327551
 Copying the excited state density for this state as the 1-particle RhoCI density.

 Excited State   2:      Singlet-A      7.4674 eV  166.03 nm  f=0.1938  <S**2>=0.000
      17 -> 19         0.28511
      18 -> 19         0.59732
      18 -> 20         0.17825

 Excited State   3:      Singlet-A      8.6915 eV  142.65 nm  f=0.0094  <S**2>=0.000
      16 -> 19         0.69428

 Excited State   4:      Singlet-A      8.8166 eV  140.63 nm  f=0.0098  <S**2>=0.000
      18 -> 21         0.67753
      18 -> 22        -0.12053

 Excited State   5:      Singlet-A      9.2393 eV  134.19 nm  f=0.2199  <S**2>=0.000
      17 -> 19         0.26984
      17 -> 20         0.47812
      18 -> 20        -0.32712
      18 -> 21         0.13321
      18 -> 22         0.15338

 Excited State   6:      Singlet-A      9.4172 eV  131.66 nm  f=0.0147  <S**2>=0.000
      17 -> 20        -0.18946
      18 -> 21         0.10011
      18 -> 22         0.65811

 Excited State   7:      Singlet-A      9.7502 eV  127.16 nm  f=0.0026  <S**2>=0.000
      15 -> 19         0.54218
      17 -> 21        -0.18676
      18 -> 23         0.39956

 Excited State   8:      Singlet-A      9.8707 eV  125.61 nm  f=0.0166  <S**2>=0.000
      15 -> 19         0.41903
      17 -> 20        -0.14226
      17 -> 21         0.35068
      18 -> 23        -0.40293

 Excited State   9:      Singlet-A      9.9190 eV  125.00 nm  f=0.4238  <S**2>=0.000
      17 -> 19        -0.32085
      17 -> 20         0.39737
      17 -> 21         0.18368
      18 -> 20         0.33719
      18 -> 22         0.10583

 Excited State  10:      Singlet-A     10.0514 eV  123.35 nm  f=0.0236  <S**2>=0.000
      15 -> 19        -0.12123
      17 -> 20        -0.11983
      17 -> 21         0.53331
      18 -> 23         0.39871

 Excited State  11:      Singlet-A     10.3035 eV  120.33 nm  f=0.0134  <S**2>=0.000
      14 -> 19        -0.30172
      16 -> 20         0.61400

 Excited State  12:      Singlet-A     10.4943 eV  118.14 nm  f=0.0017  <S**2>=0.000
      17 -> 22        -0.10348
      18 -> 24         0.67533

 Excited State  13:      Singlet-A     10.5517 eV  117.50 nm  f=0.0038  <S**2>=0.000
      17 -> 22         0.67950

 Excited State  14:      Singlet-A     10.8115 eV  114.68 nm  f=0.0003  <S**2>=0.000
      14 -> 19         0.61224
      16 -> 20         0.30351

 Excited State  15:      Singlet-A     11.0325 eV  112.38 nm  f=0.0021  <S**2>=0.000
      15 -> 20         0.67136
      17 -> 23        -0.13743

 The electronic state is 1-A.
 Alpha  occ. eigenvalues --  -19.11135 -10.17427 -10.17278 -10.12728 -10.11871
 Alpha  occ. eigenvalues --   -1.13426  -0.80281  -0.75441  -0.60305  -0.57688
 Alpha  occ. eigenvalues --   -0.54448  -0.46106  -0.45017  -0.42432  -0.39011
 Alpha  occ. eigenvalues --   -0.35544  -0.27559  -0.23292
 Alpha virt. eigenvalues --    0.02374   0.07890   0.13810   0.15427   0.17900
 Alpha virt. eigenvalues --    0.19221   0.22407   0.22822   0.36765   0.41345
 Alpha virt. eigenvalues --    0.47529   0.68085   0.69851   0.71078   0.74838

 Mulliken charges:
               1
     1  C   -0.254032
     2  C    0.103030
     3  O   -0.501103
     4  C    0.103114
     5  C   -0.261497
     6  H    0.177752
     7  H    0.223942
     8  H    0.216887
     9  H    0.191907
 Sum of Mulliken charges =   0.00000

 Dipole moment (field-independent basis, Debye):
    X=              0.2175    Y=              0.6082    Z=              0.0324  Tot=              0.6467
 Quadrupole moment (field-independent basis, Debye-Ang):
   XX=            -23.8371   YY=            -27.8022   ZZ=            -31.7060
   XY=             -0.9559   XZ=              0.4056   YZ=             -0.2356

 Normal termination of Gaussian 09 at Tue Dec 15 16:29:40 2015.
