 Gaussian 09, Revision D.01,
 Gaussian 09:  ES64L-G09RevD.01 24-Apr-2013

 ------------------------------------------------------------
 #P AM1(Input,print) CIS(Singlets,NStates=15) pop(full) force
 ------------------------------------------------------------

 -----------------
 AM1-Reparam Input
 -----------------
 Symbolic Z-matrix:
 Charge =  0 Multiplicity = 1

                         Standard orientation:
 ---------------------------------------------------------------------
 Center     Atomic      Atomic             Coordinates (Angstroms)
 Number     Number       Type             X           Y           Z
 ---------------------------------------------------------------------
      1          6           0       -1.151780    0.428735   -0.051436
      2          6           0       -0.731541   -0.889562    0.041920
      3          8           0        0.676392   -0.968070   -0.012975
      4          6           0        1.099382    0.333947   -0.022468
      5          6           0        0.067705    1.137959    0.042047
      6          1           0        0.142793    2.267538    0.026043
      7          1           0        2.179964    0.367783    0.010261
      8          1           0       -1.272615   -1.756239    0.021526
      9          1           0       -2.163874    0.799003   -0.014409
 ---------------------------------------------------------------------

 SCF Done:  E(RAM1) =  0.253410071890E-01 A.U. after   13 cycles

 Excitation energies and oscillator strengths:

 Excited State   1:      Singlet-A      4.4093 eV  281.19 nm  f=0.1010  <S**2>=0.000
      12 -> 15         0.17517
      13 -> 14         0.67559
 This state for optimization and/or second-order correction.
 Total Energy, E(CIS) =  0.187381248317
 Copying the excited state density for this state as the 1-particle RhoCI density.

 Excited State   2:      Singlet-A      5.0073 eV  247.60 nm  f=0.0029  <S**2>=0.000
      12 -> 14        -0.25410
      13 -> 15         0.39266
      13 -> 16         0.51228

 Excited State   3:      Singlet-A      5.1671 eV  239.95 nm  f=0.0020  <S**2>=0.000
      12 -> 14         0.35664
      13 -> 15        -0.38684
      13 -> 16         0.45404

 Excited State   4:      Singlet-A      5.8561 eV  211.72 nm  f=0.0016  <S**2>=0.000
      12 -> 16        -0.20599
      12 -> 18         0.13078
      12 -> 20        -0.11510
      12 -> 22        -0.10701
      13 -> 17         0.27567
      13 -> 18         0.42661
      13 -> 20        -0.26457
      13 -> 21        -0.10603
      13 -> 22        -0.13952
      13 -> 23         0.13718

 Excited State   5:      Singlet-A      6.0153 eV  206.11 nm  f=0.0050  <S**2>=0.000
       7 -> 16        -0.19421
      12 -> 15         0.17358
      12 -> 16         0.59434
      13 -> 18         0.13737

 Excited State   6:      Singlet-A      6.1834 eV  200.51 nm  f=0.0042  <S**2>=0.000
      12 -> 17        -0.10434
      12 -> 18         0.14401
      12 -> 19        -0.12050
      12 -> 22         0.11800
      12 -> 23         0.10576
      13 -> 17         0.33127
      13 -> 18        -0.29456
      13 -> 19         0.22671
      13 -> 20        -0.13989
      13 -> 22        -0.23293
      13 -> 23        -0.21375
      13 -> 24        -0.12105

 Excited State   7:      Singlet-A      6.2217 eV  199.28 nm  f=0.3587  <S**2>=0.000
      12 -> 14         0.50275
      13 -> 15         0.41578

 Excited State   8:      Singlet-A      6.5191 eV  190.18 nm  f=0.0195  <S**2>=0.000
      11 -> 14         0.12076
      12 -> 15         0.29645
      12 -> 18        -0.11931
      13 -> 17         0.40387
      13 -> 19        -0.35221
      13 -> 20         0.17438
      13 -> 22         0.13016

 Excited State   9:      Singlet-A      6.5758 eV  188.54 nm  f=0.0944  <S**2>=0.000
      11 -> 14        -0.11718
      12 -> 15         0.57393
      12 -> 16        -0.14189
      13 -> 14        -0.14333
      13 -> 17        -0.20405
      13 -> 19         0.17424

 Excited State  10:      Singlet-A      6.9919 eV  177.33 nm  f=0.0046  <S**2>=0.000
       9 -> 14         0.15057
      10 -> 14        -0.32761
      10 -> 15        -0.11962
      11 -> 14         0.41535
      11 -> 15         0.23428
      12 -> 17         0.21524
      12 -> 18         0.11085
      13 -> 17        -0.10662

 Excited State  11:      Singlet-A      7.1085 eV  174.42 nm  f=0.0033  <S**2>=0.000
      11 -> 14        -0.22888
      12 -> 17         0.41932
      12 -> 18         0.17505
      12 -> 19        -0.20656
      12 -> 21        -0.16132
      12 -> 23        -0.10390
      13 -> 18        -0.13040
      13 -> 19        -0.29332

 Excited State  12:      Singlet-A      7.2427 eV  171.18 nm  f=0.0008  <S**2>=0.000
       9 -> 15        -0.12059
      10 -> 14         0.44762
      10 -> 15        -0.14396
      11 -> 14         0.39782
      11 -> 15        -0.24646

 Excited State  13:      Singlet-A      7.4698 eV  165.98 nm  f=0.0025  <S**2>=0.000
      11 -> 15         0.11955
      12 -> 17        -0.21469
      12 -> 18         0.34155
      12 -> 19        -0.14613
      12 -> 21         0.18658
      12 -> 23         0.15234
      13 -> 17        -0.12543
      13 -> 19        -0.27337
      13 -> 20        -0.10951
      13 -> 21         0.24245
      13 -> 24        -0.13675

 Excited State  14:      Singlet-A      7.5803 eV  163.56 nm  f=0.0008  <S**2>=0.000
       9 -> 14        -0.10826
      12 -> 18         0.23833
      12 -> 19         0.30233
      12 -> 22        -0.19740
      13 -> 18        -0.29789
      13 -> 20        -0.17759
      13 -> 22         0.24232
      13 -> 23         0.12721
      13 -> 24         0.24183

 Excited State  15:      Singlet-A      7.7072 eV  160.87 nm  f=0.0014  <S**2>=0.000
      12 -> 18         0.12238
      12 -> 19        -0.15187
      12 -> 21        -0.16653
      12 -> 22         0.15476
      12 -> 23        -0.11360
      13 -> 18         0.13830
      13 -> 19         0.21554
      13 -> 21         0.18207
      13 -> 22         0.47184

 The electronic state is 1-A.
 Alpha  occ. eigenvalues --   -1.55375  -1.23770  -1.09966  -0.82517  -0.81037
 Alpha  occ. eigenvalues --   -0.68205  -0.59322  -0.56011  -0.51618  -0.50933
 Alpha  occ. eigenvalues --   -0.48755  -0.39992  -0.34775
 Alpha virt. eigenvalues --    0.02602   0.06580   0.09992   0.13673   0.14160
 Alpha virt. eigenvalues --    0.15907   0.17738   0.17916   0.19132   0.20645
 Alpha virt. eigenvalues --    0.21824

 Mulliken charges:
               1
     1  C   -0.184755
     2  C   -0.100075
     3  O   -0.104541
     4  C   -0.082337
     5  C   -0.209902
     6  H    0.151455
     7  H    0.186245
     8  H    0.176099
     9  H    0.167811
 Sum of Mulliken charges =   0.00000

 Dipole moment (field-independent basis, Debye):
    X=             -0.3020    Y=              0.4944    Z=              0.0292  Tot=              0.5801
 N-N= 1.033690424376D+02 E-N=-1.709092877224D+02  KE=-1.653257805927D+01
 Orbital energies and kinetic energies (alpha):
                                 1                 2
   1         O                -1.553754         -1.311647
   2         O                -1.237699         -1.046537
   3         O                -1.099656         -0.961815
   4         O                -0.825174         -0.728804
   5         O                -0.810372         -0.700524
   6         O                -0.682050         -0.602094
   7         O                -0.593221         -0.482963

 Normal termination of Gaussian 09 at Tue Dec 15 16:13:48 2015.
