 Gaussian 09, Revision D.01,
 Gaussian 09:  ES64L-G09RevD.01 24-Apr-2013

 ------------------------------------------------------------
 #P AM1(Input,print) CIS(Singlets,NStates=15) pop(full) force
 ------------------------------------------------------------

 -----------------
 AM1-Reparam Input
 -----------------
 Symbolic Z-matrix:
 Charge =  0 Multiplicity = 1

                         Standard orientation:
 ---------------------------------------------------------------------
 Center     Atomic      Atomic             Coordinates (Angstroms)
 Number     Number       Type             X           Y           Z
 ---------------------------------------------------------------------
      1          6           0       -0.641123    1.005779   -0.031384
      2          6           0       -1.129898   -0.283423    0.038843
      3          8           0       -0.049575   -1.188788   -0.025569
      4          6           0        1.067270   -0.347998    0.002481
      5          6           0        0.740796    0.891495    0.010900
      6          1           0        1.483228    1.728144    0.013694
      7          1           0        2.054875   -0.910209    0.044960
      8          1           0       -2.029750   -0.737221    0.024056
      9          1           0       -1.334025    1.834473   -0.003191
 ---------------------------------------------------------------------

 SCF Done:  E(RAM1) =   1.84565514336     A.U. after   14 cycles

 Excitation energies and oscillator strengths:

 Excited State   1:      Singlet-A      5.5320 eV  224.12 nm  f=0.3111  <S**2>=0.000
      13 -> 14         0.68749
 This state for optimization and/or second-order correction.
 Total Energy, E(CIS) =   2.04895117689
 Copying the excited state density for this state as the 1-particle RhoCI density.

 Excited State   2:      Singlet-A      6.4584 eV  191.97 nm  f=0.0021  <S**2>=0.000
      10 -> 15         0.11085
      13 -> 15         0.67653

 Excited State   3:      Singlet-A      6.8691 eV  180.49 nm  f=0.0036  <S**2>=0.000
      13 -> 16         0.67188
      13 -> 17        -0.10626
      13 -> 19        -0.12787

 Excited State   4:      Singlet-A      7.7188 eV  160.63 nm  f=0.0020  <S**2>=0.000
      12 -> 14         0.69754

 Excited State   5:      Singlet-A      8.1729 eV  151.70 nm  f=0.0054  <S**2>=0.000
      11 -> 14         0.68690

 Excited State   6:      Singlet-A      8.3375 eV  148.71 nm  f=0.0009  <S**2>=0.000
      13 -> 17        -0.19491
      13 -> 18         0.61102
      13 -> 22        -0.24242

 Excited State   7:      Singlet-A      8.7855 eV  141.12 nm  f=0.0109  <S**2>=0.000
      10 -> 16        -0.10860
      13 -> 17         0.63119
      13 -> 18         0.18579
      13 -> 19        -0.14048

 Excited State   8:      Singlet-A      9.1993 eV  134.78 nm  f=0.0452  <S**2>=0.000
      10 -> 14         0.64082
      12 -> 15         0.14079
      12 -> 17         0.11619
      13 -> 20         0.11106

 Excited State   9:      Singlet-A      9.5075 eV  130.41 nm  f=0.0008  <S**2>=0.000
      10 -> 16        -0.15207
      13 -> 18         0.16384
      13 -> 19         0.64301

 Excited State  10:      Singlet-A      9.7108 eV  127.68 nm  f=0.1088  <S**2>=0.000
       8 -> 16         0.12758
       9 -> 15        -0.14356
      10 -> 14         0.15733
      11 -> 15        -0.26587
      11 -> 16        -0.16563
      11 -> 17         0.19389
      11 -> 18         0.19465
      12 -> 16         0.30153
      12 -> 17        -0.22322
      12 -> 18         0.24292
      13 -> 14        -0.12285

 Excited State  11:      Singlet-A      9.8178 eV  126.28 nm  f=0.2023  <S**2>=0.000
      10 -> 14        -0.11703
      12 -> 15         0.65767
      12 -> 17        -0.10418

 Excited State  12:      Singlet-A     10.3922 eV  119.30 nm  f=0.0614  <S**2>=0.000
      10 -> 15         0.40607
      11 -> 16         0.37002
      11 -> 19        -0.11756
      12 -> 16         0.12761
      13 -> 18        -0.12690
      13 -> 19         0.10788
      13 -> 22        -0.26222

 Excited State  13:      Singlet-A     10.4370 eV  118.79 nm  f=0.0704  <S**2>=0.000
      10 -> 15        -0.38038
      10 -> 16        -0.12565
      11 -> 15        -0.14710
      11 -> 16         0.43163
      11 -> 19        -0.15381
      12 -> 16         0.11514
      13 -> 20        -0.10788
      13 -> 22         0.10412

 Excited State  14:      Singlet-A     10.4762 eV  118.35 nm  f=0.0248  <S**2>=0.000
      10 -> 15         0.27592
      11 -> 16         0.10505
      13 -> 18         0.17518
      13 -> 20         0.11646
      13 -> 21        -0.17868
      13 -> 22         0.55884

 Excited State  15:      Singlet-A     10.5664 eV  117.34 nm  f=0.0644  <S**2>=0.000
      10 -> 16         0.30653
      13 -> 20        -0.34630
      13 -> 21         0.46716
      13 -> 22         0.17255

 The electronic state is 1-A.
 Alpha  occ. eigenvalues --   -1.97947  -1.28669  -1.00280  -0.88667  -0.85318
 Alpha  occ. eigenvalues --   -0.76236  -0.73949  -0.62233  -0.61397  -0.51151
 Alpha  occ. eigenvalues --   -0.49935  -0.48591  -0.35642
 Alpha virt. eigenvalues --    0.06312   0.10774   0.13612   0.20216   0.21782
 Alpha virt. eigenvalues --    0.24025   0.26587   0.27153   0.28814   0.35621
 Alpha virt. eigenvalues --    0.39391

 Mulliken charges:
               1
     1  C   -0.144154
     2  C   -1.866600
     3  O    3.167137
     4  C   -1.861980
     5  C   -0.130397
     6  H    0.155215
     7  H    0.283893
     8  H    0.245361
     9  H    0.151525
 Sum of Mulliken charges =   0.00000

 Dipole moment (field-independent basis, Debye):
    X=              0.3469    Y=            -11.7154    Z=             -0.5484  Tot=             11.7333
 N-N= 1.055256103908D+02 E-N=-1.705071705423D+02  KE=-1.565243743408D+01
 Orbital energies and kinetic energies (alpha):
                                 1                 2
   1         O                -1.979473         -1.345473
   2         O                -1.286688         -1.069148
   3         O                -1.002798         -0.903077
   4         O                -0.886666         -0.582662
   5         O                -0.853179         -0.690917
   6         O                -0.762365         -0.605794
   7         O                -0.739485         -0.552050

 Normal termination of Gaussian 09 at Tue Dec 15 17:09:08 2015.
