 Gaussian 09, Revision D.01,
 Gaussian 09:  ES64L-G09RevD.01 24-Apr-2013

 ------------------------------------------------------------
 #P AM1(Input,print) CIS(Singlets,NStates=15) pop(full) force
 ------------------------------------------------------------

 -----------------
 AM1-Reparam Input
 -----------------
 Symbolic Z-matrix:
 Charge =  0 Multiplicity = 1

                         Standard orientation:
 ---------------------------------------------------------------------
 Center     Atomic      Atomic             Coordinates (Angstroms)
 Number     Number       Type             X           Y           Z
 ---------------------------------------------------------------------
      1          6           0        0.757171    0.896867   -0.007864
      2          6           0        1.115852   -0.438017   -0.018797
      3          8           0       -0.113448   -1.144788    0.022470
      4          6           0       -1.135647   -0.256853   -0.027972
      5          6           0       -0.613125    0.984238    0.020463
      6          1           0       -1.228986    1.966866   -0.028794
      7          1           0       -2.111270   -0.674049    0.012461
      8          1           0        1.989501   -0.939612   -0.011258
      9          1           0        1.512834    1.687690    0.052856
 ---------------------------------------------------------------------

 SCF Done:  E(RAM1) =   1.39826879822     A.U. after   13 cycles

 Excitation energies and oscillator strengths:

 Excited State   1:      Singlet-A      6.1732 eV  200.84 nm  f=0.2867  <S**2>=0.000
      13 -> 14         0.68939
 This state for optimization and/or second-order correction.
 Total Energy, E(CIS) =   1.62512961296
 Copying the excited state density for this state as the 1-particle RhoCI density.

 Excited State   2:      Singlet-A      6.4717 eV  191.58 nm  f=0.0027  <S**2>=0.000
      12 -> 15         0.12335
      13 -> 15         0.63683
      13 -> 16         0.15958
      13 -> 17        -0.15993

 Excited State   3:      Singlet-A      7.0998 eV  174.63 nm  f=0.0016  <S**2>=0.000
      12 -> 15        -0.13382
      13 -> 15        -0.16982
      13 -> 16         0.61136
      13 -> 17        -0.17502
      13 -> 21         0.11949
      13 -> 22        -0.12304

 Excited State   4:      Singlet-A      7.7024 eV  160.97 nm  f=0.0024  <S**2>=0.000
      11 -> 14         0.55660
      13 -> 17         0.38156
      13 -> 22        -0.10449

 Excited State   5:      Singlet-A      7.7461 eV  160.06 nm  f=0.0025  <S**2>=0.000
      10 -> 14         0.15969
      11 -> 14        -0.38088
      12 -> 16        -0.12674
      13 -> 16         0.14329
      13 -> 17         0.50288
      13 -> 21         0.11079

 Excited State   6:      Singlet-A      8.1357 eV  152.40 nm  f=0.0039  <S**2>=0.000
      10 -> 14         0.44748
      13 -> 19         0.39653
      13 -> 21        -0.12623
      13 -> 22        -0.30181

 Excited State   7:      Singlet-A      8.1561 eV  152.01 nm  f=0.0015  <S**2>=0.000
      10 -> 14         0.48775
      11 -> 14         0.14188
      12 -> 14        -0.11622
      13 -> 17        -0.10416
      13 -> 19        -0.33222
      13 -> 22         0.27251

 Excited State   8:      Singlet-A      8.3788 eV  147.97 nm  f=0.0041  <S**2>=0.000
      10 -> 14         0.14383
      12 -> 14         0.48844
      13 -> 18        -0.47164

 Excited State   9:      Singlet-A      8.7970 eV  140.94 nm  f=0.0031  <S**2>=0.000
      12 -> 15        -0.17299
      12 -> 16        -0.12580
      13 -> 19         0.45213
      13 -> 22         0.45946

 Excited State  10:      Singlet-A      8.9246 eV  138.92 nm  f=0.0120  <S**2>=0.000
      12 -> 15        -0.26527
      13 -> 20         0.44691
      13 -> 21        -0.43670

 Excited State  11:      Singlet-A      9.1689 eV  135.22 nm  f=0.1907  <S**2>=0.000
      12 -> 14         0.43603
      13 -> 18         0.46204
      13 -> 21         0.21774

 Excited State  12:      Singlet-A      9.2501 eV  134.04 nm  f=0.0466  <S**2>=0.000
      12 -> 14         0.12825
      12 -> 15         0.39696
      12 -> 16        -0.11057
      12 -> 17        -0.10846
      13 -> 15        -0.11275
      13 -> 16         0.15201
      13 -> 18         0.12684
      13 -> 20        -0.20622
      13 -> 21        -0.36253
      13 -> 22         0.19649

 Excited State  13:      Singlet-A      9.3547 eV  132.54 nm  f=0.0388  <S**2>=0.000
      12 -> 15         0.35966
      12 -> 16         0.22452
      13 -> 15        -0.12828
      13 -> 18        -0.10905
      13 -> 20         0.41315
      13 -> 21         0.21116
      13 -> 22         0.17418

 Excited State  14:      Singlet-A      9.6538 eV  128.43 nm  f=0.1452  <S**2>=0.000
       8 -> 15        -0.11428
      10 -> 15        -0.21281
      10 -> 16        -0.18269
      10 -> 17         0.37228
      10 -> 19         0.10417
      11 -> 15         0.10521
      11 -> 16        -0.19053
      11 -> 17         0.25156
      11 -> 19        -0.28903

 Excited State  15:      Singlet-A      9.9175 eV  125.02 nm  f=0.1033  <S**2>=0.000
       8 -> 15        -0.11850
      10 -> 15         0.12419
      10 -> 19        -0.14122
      11 -> 15         0.62127
      11 -> 20         0.12633

 The electronic state is 1-A.
 Alpha  occ. eigenvalues --   -1.88632  -1.19384  -0.96309  -0.78663  -0.77635
 Alpha  occ. eigenvalues --   -0.67419  -0.61806  -0.51234  -0.48276  -0.39251
 Alpha  occ. eigenvalues --   -0.38336  -0.36890  -0.25681
 Alpha virt. eigenvalues --    0.17860   0.21405   0.24974   0.27182   0.28907
 Alpha virt. eigenvalues --    0.29638   0.32814   0.33626   0.35558   0.39387
 Alpha virt. eigenvalues --    0.44921

 Mulliken charges:
               1
     1  C   -0.043130
     2  C   -1.575292
     3  O    2.799328
     4  C   -1.559257
     5  C   -0.078776
     6  H    0.065021
     7  H    0.163112
     8  H    0.162236
     9  H    0.066758
 Sum of Mulliken charges =   0.00000

 Dipole moment (field-independent basis, Debye):
    X=             -1.2943    Y=             -9.3197    Z=              0.6054  Tot=              9.4286
 N-N= 1.034933039969D+02 E-N=-1.697444222090D+02  KE=-1.585530993830D+01
 Orbital energies and kinetic energies (alpha):
                                 1                 2
   1         O                -1.886322         -1.370989
   2         O                -1.193837         -1.070051
   3         O                -0.963090         -0.883849
   4         O                -0.786635         -0.693132
   5         O                -0.776355         -0.647014
   6         O                -0.674187         -0.622314
   7         O                -0.618058         -0.545431

 Normal termination of Gaussian 09 at Tue Dec 15 17:08:04 2015.
