 Gaussian 09, Revision D.01,
 Gaussian 09:  ES64L-G09RevD.01 24-Apr-2013

 ------------------------------------------------------------
 #P AM1(Input,print) CIS(Singlets,NStates=15) pop(full) force
 ------------------------------------------------------------

 -----------------
 AM1-Reparam Input
 -----------------
 Symbolic Z-matrix:
 Charge =  0 Multiplicity = 1

                         Standard orientation:
 ---------------------------------------------------------------------
 Center     Atomic      Atomic             Coordinates (Angstroms)
 Number     Number       Type             X           Y           Z
 ---------------------------------------------------------------------
      1          6           0        0.285540    1.128025   -0.022795
      2          6           0        1.182488    0.050844   -0.009044
      3          8           0        0.402109   -1.082291    0.000520
      4          6           0       -0.907967   -0.694371    0.000924
      5          6           0       -0.980951    0.676219    0.016464
      6          1           0       -1.943050    1.161635   -0.007027
      7          1           0       -1.636924   -1.524341   -0.014432
      8          1           0        2.254782   -0.096142    0.061871
      9          1           0        0.633659    2.152871    0.042130
 ---------------------------------------------------------------------

 SCF Done:  E(RAM1) =  0.204007886980E-01 A.U. after   14 cycles

 Excitation energies and oscillator strengths:

 Excited State   1:      Singlet-A      4.1967 eV  295.43 nm  f=0.1250  <S**2>=0.000
      12 -> 15         0.16831
      13 -> 14         0.67722
 This state for optimization and/or second-order correction.
 Total Energy, E(CIS) =  0.174626173353
 Copying the excited state density for this state as the 1-particle RhoCI density.

 Excited State   2:      Singlet-A      4.6045 eV  269.27 nm  f=0.0004  <S**2>=0.000
      13 -> 16         0.68103
      13 -> 20         0.10535

 Excited State   3:      Singlet-A      4.9173 eV  252.14 nm  f=0.0164  <S**2>=0.000
      12 -> 14        -0.37517
      13 -> 15         0.58796

 Excited State   4:      Singlet-A      5.6309 eV  220.19 nm  f=0.0007  <S**2>=0.000
      12 -> 17         0.14774
      13 -> 17         0.52604
      13 -> 18         0.22014
      13 -> 19         0.11105
      13 -> 22         0.28664
      13 -> 23        -0.14434

 Excited State   5:      Singlet-A      5.8726 eV  211.12 nm  f=0.0028  <S**2>=0.000
      12 -> 18        -0.15985
      12 -> 22        -0.11224
      13 -> 17        -0.11879
      13 -> 18         0.44235
      13 -> 19        -0.33537
      13 -> 21        -0.13323
      13 -> 22         0.15296
      13 -> 23         0.23848

 Excited State   6:      Singlet-A      6.1695 eV  200.96 nm  f=0.2829  <S**2>=0.000
      12 -> 14         0.51820
      12 -> 16         0.24506
      13 -> 15         0.33041

 Excited State   7:      Singlet-A      6.2338 eV  198.89 nm  f=0.0524  <S**2>=0.000
       7 -> 16        -0.18356
      12 -> 14        -0.21359
      12 -> 16         0.59227
      12 -> 22         0.10450
      13 -> 15        -0.13404

 Excited State   8:      Singlet-A      6.4637 eV  191.81 nm  f=0.0006  <S**2>=0.000
      13 -> 17        -0.26768
      13 -> 18         0.29288
      13 -> 19         0.53669
      13 -> 21         0.11474

 Excited State   9:      Singlet-A      6.7296 eV  184.24 nm  f=0.1474  <S**2>=0.000
      12 -> 15         0.66725
      13 -> 14        -0.15087

 Excited State  10:      Singlet-A      6.8666 eV  180.56 nm  f=0.0040  <S**2>=0.000
      10 -> 14         0.60360
      11 -> 14         0.17209
      11 -> 15         0.26419

 Excited State  11:      Singlet-A      7.1100 eV  174.38 nm  f=0.0010  <S**2>=0.000
      10 -> 14        -0.13636
      10 -> 15         0.24012
      11 -> 14         0.59165
      13 -> 20        -0.14121
      13 -> 22        -0.12797

 Excited State  12:      Singlet-A      7.1385 eV  173.68 nm  f=0.0002  <S**2>=0.000
      11 -> 14         0.13799
      12 -> 19         0.27431
      13 -> 16        -0.11420
      13 -> 17        -0.15701
      13 -> 18        -0.26943
      13 -> 20         0.20802
      13 -> 22         0.46952

 Excited State  13:      Singlet-A      7.3747 eV  168.12 nm  f=0.0037  <S**2>=0.000
       7 -> 16         0.11046
      12 -> 17        -0.26673
      12 -> 18        -0.25165
      12 -> 20        -0.18837
      12 -> 22        -0.16447
      13 -> 17         0.25063
      13 -> 18        -0.15620
      13 -> 19         0.15923
      13 -> 23         0.27564
      13 -> 24         0.24212

 Excited State  14:      Singlet-A      7.5360 eV  164.52 nm  f=0.0029  <S**2>=0.000
      11 -> 14         0.10608
      12 -> 17        -0.28932
      12 -> 19        -0.30099
      13 -> 18         0.12945
      13 -> 20         0.45765
      13 -> 23        -0.18142

 Excited State  15:      Singlet-A      7.6263 eV  162.58 nm  f=0.0180  <S**2>=0.000
      11 -> 15        -0.12452
      12 -> 18         0.26715
      12 -> 21         0.12322
      12 -> 23         0.12670
      13 -> 20        -0.11052
      13 -> 21         0.41837
      13 -> 23         0.35172
      13 -> 24        -0.10609

 The electronic state is 1-A.
 Alpha  occ. eigenvalues --   -1.56256  -1.24669  -1.08545  -0.82228  -0.81557
 Alpha  occ. eigenvalues --   -0.68201  -0.59905  -0.56322  -0.51700  -0.50081
 Alpha  occ. eigenvalues --   -0.49143  -0.40354  -0.33503
 Alpha virt. eigenvalues --    0.02433   0.06855   0.09554   0.13752   0.14110
 Alpha virt. eigenvalues --    0.15615   0.18143   0.18474   0.19049   0.20873
 Alpha virt. eigenvalues --    0.22316

 Mulliken charges:
               1
     1  C   -0.188925
     2  C   -0.124700
     3  O   -0.078766
     4  C   -0.122142
     5  C   -0.185244
     6  H    0.158080
     7  H    0.192454
     8  H    0.199564
     9  H    0.149680
 Sum of Mulliken charges =   0.00000

 Dipole moment (field-independent basis, Debye):
    X=             -0.1290    Y=              0.2081    Z=              0.0920  Tot=              0.2615
 N-N= 1.034705993037D+02 E-N=-1.711084814451D+02  KE=-1.654257851900D+01
 Orbital energies and kinetic energies (alpha):
                                 1                 2
   1         O                -1.562564         -1.314530
   2         O                -1.246694         -1.057073
   3         O                -1.085446         -0.950632
   4         O                -0.822284         -0.726029
   5         O                -0.815573         -0.701064
   6         O                -0.682010         -0.603176
   7         O                -0.599053         -0.486176

 Normal termination of Gaussian 09 at Tue Dec 15 16:18:51 2015.
