 Gaussian 09, Revision D.01,
 Gaussian 09:  ES64L-G09RevD.01 24-Apr-2013

 ------------------------------------------------------------
 #P AM1(Input,print) CIS(Singlets,NStates=15) pop(full) force
 ------------------------------------------------------------

 -----------------
 AM1-Reparam Input
 -----------------
 Symbolic Z-matrix:
 Charge =  0 Multiplicity = 1

                         Standard orientation:
 ---------------------------------------------------------------------
 Center     Atomic      Atomic             Coordinates (Angstroms)
 Number     Number       Type             X           Y           Z
 ---------------------------------------------------------------------
      1          6           0       -0.019172    1.188053   -0.031530
      2          6           0        1.098895    0.359700    0.031743
      3          8           0        0.727362   -0.947149    0.002160
      4          6           0       -0.659023   -0.891027   -0.032035
      5          6           0       -1.176731    0.335006    0.033046
      6          1           0       -2.218232    0.574251    0.032953
      7          1           0       -1.151457   -1.871327   -0.002203
      8          1           0        2.139430    0.634543   -0.023351
      9          1           0       -0.052447    2.289335   -0.032020
 ---------------------------------------------------------------------

 SCF Done:  E(RAM1) =   1.78748629920     A.U. after   14 cycles

 Excitation energies and oscillator strengths:

 Excited State   1:      Singlet-A      5.4392 eV  227.95 nm  f=0.3450  <S**2>=0.000
      13 -> 14         0.69261
 This state for optimization and/or second-order correction.
 Total Energy, E(CIS) =   1.98737336915
 Copying the excited state density for this state as the 1-particle RhoCI density.

 Excited State   2:      Singlet-A      6.6176 eV  187.35 nm  f=0.0036  <S**2>=0.000
      13 -> 15         0.67281
      13 -> 17        -0.14582

 Excited State   3:      Singlet-A      6.8092 eV  182.08 nm  f=0.0039  <S**2>=0.000
      13 -> 16         0.66862
      13 -> 18        -0.14208
      13 -> 19        -0.11728

 Excited State   4:      Singlet-A      7.4696 eV  165.98 nm  f=0.0016  <S**2>=0.000
      12 -> 14         0.69774

 Excited State   5:      Singlet-A      8.2061 eV  151.09 nm  f=0.0011  <S**2>=0.000
      13 -> 17        -0.36371
      13 -> 18         0.52425
      13 -> 21         0.23436

 Excited State   6:      Singlet-A      8.4149 eV  147.34 nm  f=0.0089  <S**2>=0.000
      10 -> 14         0.66334
      11 -> 14        -0.19145
      13 -> 18        -0.10846

 Excited State   7:      Singlet-A      8.9701 eV  138.22 nm  f=0.0108  <S**2>=0.000
      11 -> 16        -0.13249
      13 -> 17         0.56060
      13 -> 18         0.34276

 Excited State   8:      Singlet-A      9.0518 eV  136.97 nm  f=0.1026  <S**2>=0.000
      10 -> 14         0.19126
      11 -> 14         0.64520

 Excited State   9:      Singlet-A      9.4783 eV  130.81 nm  f=0.0011  <S**2>=0.000
      13 -> 19         0.67292

 Excited State  10:      Singlet-A      9.7241 eV  127.50 nm  f=0.0057  <S**2>=0.000
       8 -> 15         0.14448
       9 -> 16         0.10073
      10 -> 15         0.11017
      10 -> 16         0.17543
      10 -> 17        -0.16862
      10 -> 18        -0.13744
      12 -> 15         0.39767
      12 -> 16        -0.19919
      12 -> 17        -0.19317
      12 -> 18         0.26611

 Excited State  11:      Singlet-A     10.2448 eV  121.02 nm  f=0.0288  <S**2>=0.000
      11 -> 16         0.13149
      12 -> 15         0.10321
      13 -> 18        -0.20200
      13 -> 20        -0.43327
      13 -> 21         0.46074

 Excited State  12:      Singlet-A     10.2586 eV  120.86 nm  f=0.0442  <S**2>=0.000
      10 -> 16         0.18545
      11 -> 15         0.16564
      11 -> 16         0.12327
      12 -> 15         0.18908
      12 -> 16         0.54389
      12 -> 17        -0.10223
      13 -> 18         0.10635
      13 -> 21        -0.13230

 Excited State  13:      Singlet-A     10.3327 eV  119.99 nm  f=0.2554  <S**2>=0.000
       8 -> 15         0.10778
      10 -> 15        -0.24036
      10 -> 16        -0.14581
      10 -> 17         0.12533
      11 -> 15         0.26073
      11 -> 16         0.17925
      12 -> 15         0.34217
      12 -> 16        -0.20976
      12 -> 17         0.16430
      12 -> 18        -0.15557
      12 -> 19         0.12741

 Excited State  14:      Singlet-A     10.4800 eV  118.31 nm  f=0.0385  <S**2>=0.000
      10 -> 15         0.23050
      11 -> 15         0.15024
      11 -> 16         0.43524
      12 -> 15        -0.19866
      12 -> 16        -0.14918
      12 -> 18         0.13838
      13 -> 18         0.10008
      13 -> 20        -0.23118
      13 -> 21        -0.20263

 Excited State  15:      Singlet-A     10.5247 eV  117.80 nm  f=0.0627  <S**2>=0.000
      10 -> 15         0.14619
      11 -> 15         0.40493
      13 -> 20         0.35821
      13 -> 21         0.36712

 The electronic state is 1-A.
 Alpha  occ. eigenvalues --   -1.98089  -1.26497  -0.98951  -0.88641  -0.84399
 Alpha  occ. eigenvalues --   -0.76339  -0.73465  -0.61736  -0.61121  -0.51980
 Alpha  occ. eigenvalues --   -0.51272  -0.48938  -0.35902
 Alpha virt. eigenvalues --    0.05113   0.11588   0.12385   0.20408   0.21247
 Alpha virt. eigenvalues --    0.23531   0.26088   0.27840   0.28920   0.37538
 Alpha virt. eigenvalues --    0.41781

 Mulliken charges:
               1
     1  C   -0.150926
     2  C   -1.906056
     3  O    3.161546
     4  C   -1.882449
     5  C   -0.080222
     6  H    0.139607
     7  H    0.279821
     8  H    0.288959
     9  H    0.149721
 Sum of Mulliken charges =   0.00000

 Dipole moment (field-independent basis, Debye):
    X=              6.4321    Y=             -9.0163    Z=             -0.0022  Tot=             11.0755
 N-N= 1.051829293430D+02 E-N=-1.700302958709D+02  KE=-1.561398367689D+01
 Orbital energies and kinetic energies (alpha):
                                 1                 2
   1         O                -1.980889         -1.359055
   2         O                -1.264975         -1.057739
   3         O                -0.989509         -0.887185
   4         O                -0.886412         -0.575599
   5         O                -0.843985         -0.694586
   6         O                -0.763388         -0.603270
   7         O                -0.734645         -0.542022

 Normal termination of Gaussian 09 at Tue Dec 15 17:08:57 2015.
