 Gaussian 09, Revision D.01,
 Gaussian 09:  ES64L-G09RevD.01 24-Apr-2013

 ------------------------------------------------------------
 #P AM1(Input,print) CIS(Singlets,NStates=15) pop(full) force
 ------------------------------------------------------------

 -----------------
 AM1-Reparam Input
 -----------------
 Symbolic Z-matrix:
 Charge =  0 Multiplicity = 1

                         Standard orientation:
 ---------------------------------------------------------------------
 Center     Atomic      Atomic             Coordinates (Angstroms)
 Number     Number       Type             X           Y           Z
 ---------------------------------------------------------------------
      1          6           0       -0.680242    0.948863   -0.013063
      2          6           0       -1.083726   -0.310280    0.007307
      3          8           0       -0.016349   -1.107750    0.006145
      4          6           0        1.040856   -0.382702    0.006055
      5          6           0        0.727086    0.908568   -0.010395
      6          1           0        1.462002    1.801478    0.044368
      7          1           0        2.026513   -0.922641   -0.039495
      8          1           0       -2.094448   -0.811625   -0.032368
      9          1           0       -1.287123    1.808097    0.038915
 ---------------------------------------------------------------------

 SCF Done:  E(RAM1) =  0.479129526203E-01 A.U. after   13 cycles

 Excitation energies and oscillator strengths:

 Excited State   1:      Singlet-A      4.7318 eV  262.02 nm  f=0.0795  <S**2>=0.000
      12 -> 15        -0.22889
      13 -> 14         0.66160
 This state for optimization and/or second-order correction.
 Total Energy, E(CIS) =  0.221803993996
 Copying the excited state density for this state as the 1-particle RhoCI density.

 Excited State   2:      Singlet-A      5.0267 eV  246.65 nm  f=0.0003  <S**2>=0.000
      13 -> 16         0.67841
      13 -> 19         0.10154

 Excited State   3:      Singlet-A      5.2596 eV  235.73 nm  f=0.0134  <S**2>=0.000
      12 -> 14         0.39521
      13 -> 15         0.58234

 Excited State   4:      Singlet-A      6.1219 eV  202.53 nm  f=0.0017  <S**2>=0.000
       7 -> 16        -0.14246
      12 -> 16         0.64033
      12 -> 22        -0.15181

 Excited State   5:      Singlet-A      6.1426 eV  201.84 nm  f=0.0003  <S**2>=0.000
      12 -> 19         0.19787
      12 -> 22         0.14585
      13 -> 19         0.48472
      13 -> 22         0.25206
      13 -> 23        -0.27141

 Excited State   6:      Singlet-A      6.2749 eV  197.59 nm  f=0.0004  <S**2>=0.000
      12 -> 18        -0.17850
      12 -> 20         0.17903
      12 -> 22         0.11326
      12 -> 23         0.14498
      13 -> 17         0.18985
      13 -> 18         0.36848
      13 -> 20        -0.20058
      13 -> 22        -0.34502
      13 -> 23        -0.16252

 Excited State   7:      Singlet-A      6.4451 eV  192.37 nm  f=0.2601  <S**2>=0.000
      12 -> 14         0.45834
      13 -> 15        -0.31075
      13 -> 17         0.32667
      13 -> 18        -0.16369

 Excited State   8:      Singlet-A      6.5327 eV  189.79 nm  f=0.1303  <S**2>=0.000
      12 -> 14        -0.30312
      13 -> 15         0.21390
      13 -> 17         0.48609
      13 -> 18        -0.23873
      13 -> 20         0.11022

 Excited State   9:      Singlet-A      6.5792 eV  188.45 nm  f=0.1525  <S**2>=0.000
      12 -> 15         0.65692
      13 -> 14         0.21391

 Excited State  10:      Singlet-A      7.0638 eV  175.52 nm  f=0.0000  <S**2>=0.000
      12 -> 17         0.40303
      12 -> 18        -0.19997
      12 -> 19        -0.20180
      12 -> 20         0.19105
      12 -> 21        -0.16124
      13 -> 17        -0.11335
      13 -> 18        -0.22058
      13 -> 19         0.20515
      13 -> 22        -0.24960

 Excited State  11:      Singlet-A      7.1967 eV  172.28 nm  f=0.0036  <S**2>=0.000
       9 -> 14         0.19865
       9 -> 15         0.13978
      10 -> 14         0.27632
      10 -> 15        -0.23370
      11 -> 14         0.48918
      11 -> 15        -0.14330

 Excited State  12:      Singlet-A      7.3534 eV  168.61 nm  f=0.0017  <S**2>=0.000
      11 -> 14         0.10284
      12 -> 17         0.25562
      12 -> 18         0.30485
      12 -> 20         0.15785
      12 -> 21        -0.10487
      12 -> 22        -0.17155
      12 -> 23        -0.15134
      13 -> 17         0.13645
      13 -> 18         0.35664
      13 -> 20         0.23028

 Excited State  13:      Singlet-A      7.5086 eV  165.12 nm  f=0.0011  <S**2>=0.000
       9 -> 14        -0.21394
      10 -> 14         0.17949
      11 -> 15        -0.23542
      12 -> 18        -0.11875
      12 -> 21        -0.18702
      12 -> 23        -0.17023
      13 -> 19        -0.22153
      13 -> 20        -0.12784
      13 -> 21        -0.25843
      13 -> 22         0.26904
      13 -> 23        -0.13199

 Excited State  14:      Singlet-A      7.5885 eV  163.38 nm  f=0.0002  <S**2>=0.000
       9 -> 14         0.31181
      10 -> 14        -0.31393
      11 -> 15         0.33476
      12 -> 21        -0.15768
      13 -> 19        -0.19523
      13 -> 21        -0.15185
      13 -> 22         0.13780
      13 -> 23        -0.12276

 Excited State  15:      Singlet-A      7.7713 eV  159.54 nm  f=0.0151  <S**2>=0.000
       9 -> 14        -0.10373
      10 -> 14        -0.13226
      12 -> 18        -0.11945
      12 -> 20         0.20534
      12 -> 23        -0.10118
      13 -> 17         0.13357
      13 -> 20        -0.31237
      13 -> 21         0.25381
      13 -> 22         0.18119
      13 -> 23         0.40787

 The electronic state is 1-A.
 Alpha  occ. eigenvalues --   -1.63299  -1.25044  -1.11252  -0.83861  -0.80201
 Alpha  occ. eigenvalues --   -0.69209  -0.63188  -0.55954  -0.50898  -0.49601
 Alpha  occ. eigenvalues --   -0.49226  -0.39589  -0.35028
 Alpha virt. eigenvalues --    0.04281   0.06989   0.09516   0.13384   0.14643
 Alpha virt. eigenvalues --    0.15446   0.17921   0.18815   0.19180   0.20700
 Alpha virt. eigenvalues --    0.23717

 Mulliken charges:
               1
     1  C   -0.195352
     2  C   -0.127236
     3  O   -0.044306
     4  C   -0.101105
     5  C   -0.239768
     6  H    0.165085
     7  H    0.192242
     8  H    0.197008
     9  H    0.153432
 Sum of Mulliken charges =   0.00000

 Dipole moment (field-independent basis, Debye):
    X=              0.0625    Y=              0.0698    Z=              0.0114  Tot=              0.0944
 N-N= 1.046492954424D+02 E-N=-1.729988902148D+02  KE=-1.667687273734D+01
 Orbital energies and kinetic energies (alpha):
                                 1                 2
   1         O                -1.632987         -1.361825
   2         O                -1.250439         -1.060380
   3         O                -1.112523         -0.962473
   4         O                -0.838614         -0.704145
   5         O                -0.802013         -0.712143
   6         O                -0.692085         -0.607120
   7         O                -0.631876         -0.507829

 Normal termination of Gaussian 09 at Tue Dec 15 16:13:00 2015.
