 Gaussian 09, Revision D.01,
 Gaussian 09:  ES64L-G09RevD.01 24-Apr-2013

 ------------------------------------------------------------
 #P AM1(Input,print) CIS(Singlets,NStates=15) pop(full) force
 ------------------------------------------------------------

 -----------------
 AM1-Reparam Input
 -----------------
 Symbolic Z-matrix:
 Charge =  0 Multiplicity = 1

                         Standard orientation:
 ---------------------------------------------------------------------
 Center     Atomic      Atomic             Coordinates (Angstroms)
 Number     Number       Type             X           Y           Z
 ---------------------------------------------------------------------
      1          6           0       -0.376584    1.124644   -0.024671
      2          6           0       -1.163767    0.018786   -0.011134
      3          8           0       -0.392425   -1.095488    0.009137
      4          6           0        0.940801   -0.648277   -0.018496
      5          6           0        1.003911    0.667765    0.015701
      6          1           0        1.949612    1.267863    0.039996
      7          1           0        1.649509   -1.489261    0.007927
      8          1           0       -2.235078   -0.102056    0.071992
      9          1           0       -0.650812    2.109852    0.038586
 ---------------------------------------------------------------------

 SCF Done:  E(RAM1) =   2.12995395940     A.U. after   13 cycles

 Excitation energies and oscillator strengths:

 Excited State   1:      Singlet-A      5.3334 eV  232.47 nm  f=0.3558  <S**2>=0.000
      13 -> 14         0.69618
 This state for optimization and/or second-order correction.
 Total Energy, E(CIS) =   2.32595149543
 Copying the excited state density for this state as the 1-particle RhoCI density.

 Excited State   2:      Singlet-A      6.3292 eV  195.89 nm  f=0.0000  <S**2>=0.000
      13 -> 15         0.65154
      13 -> 16        -0.17069
      13 -> 18        -0.11343
      13 -> 19        -0.11087

 Excited State   3:      Singlet-A      6.3479 eV  195.32 nm  f=0.0017  <S**2>=0.000
      13 -> 15         0.17173
      13 -> 16         0.65206
      13 -> 17        -0.14033

 Excited State   4:      Singlet-A      7.1128 eV  174.31 nm  f=0.0005  <S**2>=0.000
      12 -> 14         0.69907

 Excited State   5:      Singlet-A      7.9210 eV  156.53 nm  f=0.0015  <S**2>=0.000
      13 -> 15         0.11161
      13 -> 18         0.59622
      13 -> 19         0.15692
      13 -> 22         0.29670

 Excited State   6:      Singlet-A      8.0777 eV  153.49 nm  f=0.0117  <S**2>=0.000
      10 -> 14         0.21966
      11 -> 14         0.50865
      13 -> 17        -0.40926

 Excited State   7:      Singlet-A      8.2694 eV  149.93 nm  f=0.0020  <S**2>=0.000
      10 -> 14         0.15989
      11 -> 14         0.39371
      13 -> 17         0.54059

 Excited State   8:      Singlet-A      8.9651 eV  138.30 nm  f=0.0042  <S**2>=0.000
      10 -> 14        -0.13094
      13 -> 18        -0.19782
      13 -> 19         0.61860
      13 -> 21        -0.14602

 Excited State   9:      Singlet-A      8.9922 eV  137.88 nm  f=0.0421  <S**2>=0.000
      10 -> 14         0.56132
      11 -> 14        -0.22654
      12 -> 15         0.15021
      13 -> 19         0.15154
      13 -> 20         0.22107

 Excited State  10:      Singlet-A      9.5431 eV  129.92 nm  f=0.0127  <S**2>=0.000
      12 -> 15        -0.16966
      13 -> 18        -0.26754
      13 -> 22         0.58653

 Excited State  11:      Singlet-A      9.5526 eV  129.79 nm  f=0.0828  <S**2>=0.000
       8 -> 15        -0.11617
      11 -> 17        -0.13174
      12 -> 15         0.47952
      12 -> 16        -0.23005
      12 -> 18        -0.21103
      13 -> 20        -0.10783
      13 -> 22         0.21732

 Excited State  12:      Singlet-A      9.7724 eV  126.87 nm  f=0.1001  <S**2>=0.000
      13 -> 19         0.15303
      13 -> 20         0.15480
      13 -> 21         0.63579

 Excited State  13:      Singlet-A      9.9366 eV  124.78 nm  f=0.1015  <S**2>=0.000
      10 -> 14        -0.21286
      13 -> 20         0.61936
      13 -> 21        -0.17569

 Excited State  14:      Singlet-A     10.0112 eV  123.85 nm  f=0.0607  <S**2>=0.000
      10 -> 14        -0.14649
      11 -> 15        -0.19339
      12 -> 15         0.29896
      12 -> 16         0.52880
      12 -> 17        -0.11138

 Excited State  15:      Singlet-A     10.1787 eV  121.81 nm  f=0.1747  <S**2>=0.000
       9 -> 15         0.10199
      10 -> 17        -0.11731
      11 -> 15         0.21733
      11 -> 16         0.34407
      11 -> 17        -0.26381
      12 -> 15        -0.19126
      12 -> 16         0.21839
      12 -> 18        -0.30294

 The electronic state is 1-A.
 Alpha  occ. eigenvalues --   -1.93293  -1.18871  -0.93264  -0.80468  -0.78358
 Alpha  occ. eigenvalues --   -0.69356  -0.65444  -0.55017  -0.53740  -0.44696
 Alpha  occ. eigenvalues --   -0.44189  -0.40964  -0.27960
 Alpha virt. eigenvalues --    0.11993   0.17953   0.18096   0.26167   0.28209
 Alpha virt. eigenvalues --    0.30072   0.30854   0.31960   0.32889   0.39347
 Alpha virt. eigenvalues --    0.43247

 Mulliken charges:
               1
     1  C   -0.203901
     2  C   -1.883613
     3  O    3.206796
     4  C   -1.843289
     5  C   -0.110130
     6  H    0.154746
     7  H    0.247959
     8  H    0.272871
     9  H    0.158562
 Sum of Mulliken charges =   0.00000

 Dipole moment (field-independent basis, Debye):
    X=             -3.5415    Y=            -10.6729    Z=              0.5922  Tot=             11.2607
 N-N= 1.039224416848D+02 E-N=-1.689607612561D+02  KE=-1.531184061139D+01
 Orbital energies and kinetic energies (alpha):
                                 1                 2
   1         O                -1.932930         -1.347823
   2         O                -1.188710         -1.050036
   3         O                -0.932640         -0.887264
   4         O                -0.804675         -0.567182
   5         O                -0.783584         -0.684279
   6         O                -0.693561         -0.587744
   7         O                -0.654439         -0.527192

 Normal termination of Gaussian 09 at Tue Dec 15 17:08:43 2015.
