 Gaussian 09, Revision D.01,
 Gaussian 09:  ES64L-G09RevD.01 24-Apr-2013

 ------------------------------------------------------------
 #P AM1(Input,print) CIS(Singlets,NStates=15) pop(full) force
 ------------------------------------------------------------

 -----------------
 AM1-Reparam Input
 -----------------
 Symbolic Z-matrix:
 Charge =  0 Multiplicity = 1

                         Standard orientation:
 ---------------------------------------------------------------------
 Center     Atomic      Atomic             Coordinates (Angstroms)
 Number     Number       Type             X           Y           Z
 ---------------------------------------------------------------------
      1          6           0        0.210344    1.215219    0.000537
      2          6           0        1.154654    0.153317    0.005513
      3          8           0        0.507579   -1.068729   -0.020091
      4          6           0       -0.798119   -0.745271    0.028571
      5          6           0       -1.090367    0.497913   -0.007144
      6          1           0       -2.018436    1.049665   -0.014923
      7          1           0       -1.467395   -1.591341   -0.012691
      8          1           0        2.158500    0.144025    0.042539
      9          1           0        0.407627    2.220422   -0.019058
 ---------------------------------------------------------------------

 SCF Done:  E(RAM1) =   2.57503283474     A.U. after   14 cycles

 Excitation energies and oscillator strengths:

 Excited State   1:      Singlet-A      5.1375 eV  241.33 nm  f=0.3591  <S**2>=0.000
      13 -> 14         0.69765
 This state for optimization and/or second-order correction.
 Total Energy, E(CIS) =   2.76383132731
 Copying the excited state density for this state as the 1-particle RhoCI density.

 Excited State   2:      Singlet-A      5.8555 eV  211.74 nm  f=0.0006  <S**2>=0.000
      13 -> 15         0.68024
      13 -> 18         0.13453

 Excited State   3:      Singlet-A      6.5358 eV  189.70 nm  f=0.0028  <S**2>=0.000
      12 -> 14         0.34169
      13 -> 16         0.56638
      13 -> 17        -0.18998

 Excited State   4:      Singlet-A      6.5581 eV  189.06 nm  f=0.0003  <S**2>=0.000
      12 -> 14         0.61108
      13 -> 16        -0.31676

 Excited State   5:      Singlet-A      7.6492 eV  162.09 nm  f=0.0026  <S**2>=0.000
      13 -> 16         0.14620
      13 -> 17         0.27579
      13 -> 18         0.54836
      13 -> 21         0.28101

 Excited State   6:      Singlet-A      8.0216 eV  154.56 nm  f=0.0064  <S**2>=0.000
      10 -> 14         0.65660
      13 -> 17        -0.18875
      13 -> 18         0.11042

 Excited State   7:      Singlet-A      8.2810 eV  149.72 nm  f=0.0035  <S**2>=0.000
      10 -> 14         0.23716
      13 -> 17         0.53016
      13 -> 18        -0.31626
      13 -> 19        -0.17734

 Excited State   8:      Singlet-A      8.6255 eV  143.74 nm  f=0.0803  <S**2>=0.000
      11 -> 14         0.61797
      12 -> 15        -0.27334

 Excited State   9:      Singlet-A      8.8481 eV  140.12 nm  f=0.0026  <S**2>=0.000
      11 -> 16        -0.14499
      13 -> 16         0.13269
      13 -> 17         0.13213
      13 -> 19         0.64543
      13 -> 20         0.11089

 Excited State  10:      Singlet-A      9.0304 eV  137.30 nm  f=0.2128  <S**2>=0.000
       8 -> 15        -0.12409
      11 -> 14         0.31052
      12 -> 15         0.54510
      12 -> 16        -0.15823
      12 -> 18         0.15588

 Excited State  11:      Singlet-A      9.3711 eV  132.30 nm  f=0.0028  <S**2>=0.000
      13 -> 17        -0.16461
      13 -> 18        -0.23644
      13 -> 20         0.11454
      13 -> 21         0.62771

 Excited State  12:      Singlet-A      9.6198 eV  128.88 nm  f=0.0043  <S**2>=0.000
       9 -> 15         0.13467
      10 -> 15         0.20544
      10 -> 16         0.10235
      10 -> 17        -0.13478
      10 -> 18         0.16227
      12 -> 15         0.28080
      12 -> 16         0.35211
      12 -> 17        -0.27978
      12 -> 18        -0.21382
      12 -> 21        -0.10806

 Excited State  13:      Singlet-A      9.7083 eV  127.71 nm  f=0.0987  <S**2>=0.000
      11 -> 15        -0.13611
      13 -> 20         0.65489
      13 -> 21        -0.11671

 Excited State  14:      Singlet-A      9.8635 eV  125.70 nm  f=0.0001  <S**2>=0.000
       7 -> 15        -0.15800
      11 -> 15         0.64394
      11 -> 16         0.11281
      13 -> 15        -0.12258
      13 -> 20         0.12781

 Excited State  15:      Singlet-A     10.0508 eV  123.36 nm  f=0.0002  <S**2>=0.000
       9 -> 14         0.68652

 The electronic state is 1-A.
 Alpha  occ. eigenvalues --   -1.73473  -1.15377  -0.95794  -0.80845  -0.76596
 Alpha  occ. eigenvalues --   -0.67901  -0.64238  -0.53864  -0.49795  -0.44639
 Alpha  occ. eigenvalues --   -0.43380  -0.39786  -0.27494
 Alpha virt. eigenvalues --    0.11383   0.16435   0.20431   0.26888   0.27909
 Alpha virt. eigenvalues --    0.29777   0.32058   0.32693   0.39199   0.48934
 Alpha virt. eigenvalues --    0.52562

 Mulliken charges:
               1
     1  C   -0.074433
     2  C   -1.927941
     3  O    3.214277
     4  C   -1.884316
     5  C   -0.057909
     6  H    0.112191
     7  H    0.259723
     8  H    0.245737
     9  H    0.112672
 Sum of Mulliken charges =   0.00000

 Dipole moment (field-independent basis, Debye):
    X=              3.8300    Y=            -10.3843    Z=             -0.5205  Tot=             11.0803
 N-N= 1.037581353716D+02 E-N=-1.686522005102D+02  KE=-1.505039369375D+01
 Orbital energies and kinetic energies (alpha):
                                 1                 2
   1         O                -1.734731         -1.227992
   2         O                -1.153766         -1.018635
   3         O                -0.957937         -0.875379
   4         O                -0.808446         -0.614144
   5         O                -0.765956         -0.693562
   6         O                -0.679014         -0.569930
   7         O                -0.642376         -0.518984

 Normal termination of Gaussian 09 at Tue Dec 15 17:06:15 2015.
