 Gaussian 09, Revision D.01,
 Gaussian 09:  ES64L-G09RevD.01 24-Apr-2013

 ------------------------------------------------------------
 #P AM1(Input,print) CIS(Singlets,NStates=15) pop(full) force
 ------------------------------------------------------------

 -----------------
 AM1-Reparam Input
 -----------------
 Symbolic Z-matrix:
 Charge =  0 Multiplicity = 1

                         Standard orientation:
 ---------------------------------------------------------------------
 Center     Atomic      Atomic             Coordinates (Angstroms)
 Number     Number       Type             X           Y           Z
 ---------------------------------------------------------------------
      1          6           0        0.906798    0.776835   -0.013504
      2          6           0        1.034385   -0.574751    0.020855
      3          8           0       -0.305036   -1.109669   -0.002194
      4          6           0       -1.147473   -0.105361   -0.002074
      5          6           0       -0.458687    1.060529   -0.015200
      6          1           0       -0.909003    2.133576    0.071905
      7          1           0       -2.221451   -0.316488    0.014679
      8          1           0        1.834847   -1.276483   -0.028184
      9          1           0        1.725766    1.393239    0.018693
 ---------------------------------------------------------------------

 SCF Done:  E(RAM1) =  -5.62179491879     A.U. after   15 cycles

 Excitation energies and oscillator strengths:

 Excited State   1:      Singlet-A      6.1944 eV  200.16 nm  f=0.0038  <S**2>=0.000
      13 -> 15        -0.26738
      13 -> 16         0.64681
 This state for optimization and/or second-order correction.
 Total Energy, E(CIS) =  -5.39415517107
 Copying the excited state density for this state as the 1-particle RhoCI density.

 Excited State   2:      Singlet-A      6.5182 eV  190.21 nm  f=0.2032  <S**2>=0.000
      10 -> 15         0.12965
      13 -> 14         0.66730

 Excited State   3:      Singlet-A      6.6221 eV  187.23 nm  f=0.1656  <S**2>=0.000
      10 -> 14        -0.14069
      13 -> 15         0.63019
      13 -> 16         0.25531

 Excited State   4:      Singlet-A      7.7463 eV  160.06 nm  f=0.0048  <S**2>=0.000
      11 -> 14         0.17103
      12 -> 14         0.60500
      12 -> 15        -0.27150

 Excited State   5:      Singlet-A      8.2123 eV  150.97 nm  f=0.0035  <S**2>=0.000
      11 -> 14         0.63355
      11 -> 15        -0.17845
      12 -> 14        -0.15642
      12 -> 15         0.10413

 Excited State   6:      Singlet-A      8.5785 eV  144.53 nm  f=0.0003  <S**2>=0.000
      10 -> 16         0.16846
      13 -> 17         0.64433
      13 -> 21        -0.10674
      13 -> 22        -0.12979

 Excited State   7:      Singlet-A      9.0400 eV  137.15 nm  f=0.0041  <S**2>=0.000
      10 -> 15        -0.23574
      10 -> 16         0.58518
      11 -> 16        -0.12607
      12 -> 16         0.14205
      13 -> 17        -0.15480
      13 -> 19        -0.11509

 Excited State   8:      Singlet-A      9.2820 eV  133.58 nm  f=0.0477  <S**2>=0.000
      10 -> 15        -0.11871
      10 -> 16        -0.18332
      11 -> 16         0.12825
      12 -> 15        -0.35397
      12 -> 16         0.50851

 Excited State   9:      Singlet-A      9.4056 eV  131.82 nm  f=0.0076  <S**2>=0.000
      11 -> 15         0.20202
      12 -> 14         0.27253
      12 -> 15         0.47732
      12 -> 16         0.35550

 Excited State  10:      Singlet-A      9.6156 eV  128.94 nm  f=0.1435  <S**2>=0.000
       8 -> 16         0.11517
      10 -> 14         0.36186
      10 -> 15         0.23169
      10 -> 16         0.18149
      11 -> 15        -0.21606
      11 -> 16         0.35978

 Excited State  11:      Singlet-A      9.7279 eV  127.45 nm  f=0.0045  <S**2>=0.000
      10 -> 15        -0.19943
      11 -> 16         0.17820
      13 -> 18         0.57111
      13 -> 20        -0.21640

 Excited State  12:      Singlet-A      9.7936 eV  126.60 nm  f=0.0442  <S**2>=0.000
      10 -> 15         0.46054
      11 -> 16        -0.34528
      12 -> 16         0.19324
      13 -> 18         0.25971

 Excited State  13:      Singlet-A     10.0274 eV  123.65 nm  f=0.0268  <S**2>=0.000
      10 -> 14         0.24077
      10 -> 15         0.15105
      11 -> 14         0.16424
      11 -> 15         0.56121
      12 -> 15        -0.15766

 Excited State  14:      Singlet-A     10.1276 eV  122.42 nm  f=0.1860  <S**2>=0.000
      10 -> 14         0.49661
      10 -> 15        -0.19052
      10 -> 16        -0.15112
      11 -> 14        -0.14020
      11 -> 16        -0.28984
      12 -> 20        -0.12974

 Excited State  15:      Singlet-A     10.2569 eV  120.88 nm  f=0.0036  <S**2>=0.000
      13 -> 19         0.52671
      13 -> 20        -0.17279
      13 -> 21         0.29404
      13 -> 22         0.17936
      13 -> 23        -0.13316

 The electronic state is 1-A.
 Alpha  occ. eigenvalues --   -4.05689  -1.20776  -0.90922  -0.89491  -0.84079
 Alpha  occ. eigenvalues --   -0.81538  -0.73256  -0.61615  -0.60102  -0.50654
 Alpha  occ. eigenvalues --   -0.49509  -0.47766  -0.37205
 Alpha virt. eigenvalues --    0.09838   0.10033   0.10646   0.19046   0.23938
 Alpha virt. eigenvalues --    0.26309   0.26599   0.29530   0.32214   0.34593
 Alpha virt. eigenvalues --    0.35830

 Mulliken charges:
               1
     1  C   -0.074221
     2  C   -1.461167
     3  O    2.569112
     4  C   -1.500270
     5  C   -0.199381
     6  H    0.134144
     7  H    0.227025
     8  H    0.189551
     9  H    0.115207
 Sum of Mulliken charges =   0.00000

 Dipole moment (field-independent basis, Debye):
    X=             -2.7925    Y=             -8.3236    Z=             -0.0864  Tot=              8.7800
 N-N= 1.048818254485D+02 E-N=-1.725294584241D+02  KE=-2.342571370756D+01
 Orbital energies and kinetic energies (alpha):
                                 1                 2
   1         O                -4.056887         -3.404652
   2         O                -1.207758         -1.153056
   3         O                -0.909224         -0.840479
   4         O                -0.894914         -0.885579
   5         O                -0.840795         -0.860167
   6         O                -0.815383         -0.773305
   7         O                -0.732562         -0.722776

 Normal termination of Gaussian 09 at Fri Dec 11 13:41:19 2015.
