 Gaussian 09, Revision D.01,
 Gaussian 09:  ES64L-G09RevD.01 24-Apr-2013

 ------------------------------------------------------------
 #P AM1(Input,print) CIS(Singlets,NStates=15) pop(full) force
 ------------------------------------------------------------

 -----------------
 AM1-Reparam Input
 -----------------
 Symbolic Z-matrix:
 Charge =  0 Multiplicity = 1

                         Standard orientation:
 ---------------------------------------------------------------------
 Center     Atomic      Atomic             Coordinates (Angstroms)
 Number     Number       Type             X           Y           Z
 ---------------------------------------------------------------------
      1          6           0       -0.876845    0.810863    0.003037
      2          6           0       -1.038661   -0.488756    0.018427
      3          8           0        0.198093   -1.086035   -0.031322
      4          6           0        1.112108   -0.203469    0.036920
      5          6           0        0.596026    1.014068   -0.009220
      6          1           0        1.077561    1.972741   -0.017671
      7          1           0        2.108694   -0.511949   -0.013008
      8          1           0       -1.906568   -1.134547    0.030369
      9          1           0       -1.620199    1.565802   -0.044097
 ---------------------------------------------------------------------

 SCF Done:  E(RAM1) =  0.440833165712E-01 A.U. after   13 cycles

 Excitation energies and oscillator strengths:

 Excited State   1:      Singlet-A      4.8062 eV  257.97 nm  f=0.0565  <S**2>=0.000
      12 -> 15        -0.25862
      13 -> 14         0.64630
 This state for optimization and/or second-order correction.
 Total Energy, E(CIS) =  0.220707954059
 Copying the excited state density for this state as the 1-particle RhoCI density.

 Excited State   2:      Singlet-A      5.0875 eV  243.70 nm  f=0.0007  <S**2>=0.000
      13 -> 16         0.68235

 Excited State   3:      Singlet-A      5.2956 eV  234.13 nm  f=0.0091  <S**2>=0.000
      12 -> 14         0.41176
      13 -> 15         0.56410

 Excited State   4:      Singlet-A      5.8486 eV  211.99 nm  f=0.0024  <S**2>=0.000
       7 -> 16        -0.13580
      12 -> 16         0.66442
      12 -> 22         0.14433

 Excited State   5:      Singlet-A      6.1269 eV  202.36 nm  f=0.0017  <S**2>=0.000
      12 -> 18         0.16593
      12 -> 22        -0.11252
      13 -> 18         0.47410
      13 -> 19         0.12727
      13 -> 21         0.18946
      13 -> 22        -0.27029
      13 -> 23         0.23224

 Excited State   6:      Singlet-A      6.3430 eV  195.46 nm  f=0.1636  <S**2>=0.000
      12 -> 14        -0.32618
      12 -> 15         0.51443
      13 -> 14         0.19723
      13 -> 15         0.16767
      13 -> 17         0.13291

 Excited State   7:      Singlet-A      6.3950 eV  193.88 nm  f=0.3138  <S**2>=0.000
      10 -> 16        -0.11227
      12 -> 14         0.38721
      12 -> 15         0.37934
      13 -> 14         0.13055
      13 -> 15        -0.34007
      13 -> 17        -0.12470

 Excited State   8:      Singlet-A      6.4392 eV  192.54 nm  f=0.0327  <S**2>=0.000
      12 -> 14         0.15292
      12 -> 18        -0.13047
      12 -> 19         0.22701
      13 -> 15        -0.10629
      13 -> 17         0.50552
      13 -> 22         0.13414
      13 -> 23         0.20998

 Excited State   9:      Singlet-A      6.5152 eV  190.30 nm  f=0.0069  <S**2>=0.000
      12 -> 17         0.13999
      12 -> 18         0.18457
      12 -> 19        -0.14632
      12 -> 21        -0.13960
      12 -> 22         0.15623
      12 -> 23         0.21446
      13 -> 17         0.26478
      13 -> 18        -0.19421
      13 -> 19         0.36651
      13 -> 21         0.16892
      13 -> 22        -0.17090

 Excited State  10:      Singlet-A      6.9490 eV  178.42 nm  f=0.0025  <S**2>=0.000
      12 -> 17         0.57178
      12 -> 18        -0.14563
      12 -> 20         0.20911
      12 -> 23         0.10005
      13 -> 17        -0.23039

 Excited State  11:      Singlet-A      7.2003 eV  172.19 nm  f=0.0145  <S**2>=0.000
       9 -> 15         0.20448
      10 -> 14         0.54302
      10 -> 15        -0.21352
      11 -> 14        -0.25210

 Excited State  12:      Singlet-A      7.4367 eV  166.72 nm  f=0.0006  <S**2>=0.000
       8 -> 14        -0.10306
       9 -> 14        -0.16530
      11 -> 14         0.22989
      11 -> 15         0.50671
      12 -> 18         0.16313
      12 -> 19        -0.10612
      12 -> 20         0.10830
      13 -> 19        -0.18704
      13 -> 20         0.13706

 Excited State  13:      Singlet-A      7.5832 eV  163.50 nm  f=0.0002  <S**2>=0.000
       9 -> 14        -0.19606
      11 -> 14         0.23212
      11 -> 15         0.20803
      12 -> 18        -0.21452
      12 -> 19         0.13765
      12 -> 20        -0.14140
      12 -> 22        -0.11640
      13 -> 17        -0.11983
      13 -> 18        -0.16178
      13 -> 19         0.34194
      13 -> 20        -0.19651
      13 -> 21        -0.11364
      13 -> 22        -0.10309
      13 -> 24         0.11199

 Excited State  14:      Singlet-A      7.7586 eV  159.80 nm  f=0.0012  <S**2>=0.000
       9 -> 14         0.11039
      10 -> 14         0.27501
      11 -> 14         0.43638
      11 -> 15        -0.22818
      12 -> 19        -0.18988
      12 -> 20        -0.10197
      13 -> 18         0.15653
      13 -> 22         0.21806

 Excited State  15:      Singlet-A      7.7721 eV  159.53 nm  f=0.0040  <S**2>=0.000
      11 -> 14        -0.18895
      11 -> 15         0.17849
      12 -> 20        -0.12743
      13 -> 17         0.10090
      13 -> 18         0.23018
      13 -> 19         0.17172
      13 -> 20        -0.26817
      13 -> 22         0.37597
      13 -> 23        -0.22790

 The electronic state is 1-A.
 Alpha  occ. eigenvalues --   -1.61520  -1.23820  -1.12995  -0.84172  -0.80498
 Alpha  occ. eigenvalues --   -0.69786  -0.62506  -0.57444  -0.51948  -0.49527
 Alpha  occ. eigenvalues --   -0.48894  -0.39182  -0.35662
 Alpha virt. eigenvalues --    0.04246   0.06366   0.09296   0.13618   0.15614
 Alpha virt. eigenvalues --    0.16108   0.18096   0.18503   0.19428   0.20656
 Alpha virt. eigenvalues --    0.23454

 Mulliken charges:
               1
     1  C   -0.190768
     2  C   -0.105717
     3  O   -0.076384
     4  C   -0.054616
     5  C   -0.260651
     6  H    0.157549
     7  H    0.180953
     8  H    0.190926
     9  H    0.158709
 Sum of Mulliken charges =   0.00000

 Dipole moment (field-independent basis, Debye):
    X=             -0.1281    Y=              0.1761    Z=             -0.0393  Tot=              0.2213
 N-N= 1.044866244362D+02 E-N=-1.726364439421D+02  KE=-1.668955928652D+01
 Orbital energies and kinetic energies (alpha):
                                 1                 2
   1         O                -1.615196         -1.347464
   2         O                -1.238201         -1.051372
   3         O                -1.129949         -0.979484
   4         O                -0.841723         -0.709625
   5         O                -0.804984         -0.722464
   6         O                -0.697864         -0.608712
   7         O                -0.625057         -0.502778

 Normal termination of Gaussian 09 at Tue Dec 15 16:24:49 2015.
