 Gaussian 09, Revision D.01,
 Gaussian 09:  ES64L-G09RevD.01 24-Apr-2013

 ------------------------------------------------------------
 #P AM1(Input,print) CIS(Singlets,NStates=15) pop(full) force
 ------------------------------------------------------------

 -----------------
 AM1-Reparam Input
 -----------------
 Symbolic Z-matrix:
 Charge =  0 Multiplicity = 1

                         Standard orientation:
 ---------------------------------------------------------------------
 Center     Atomic      Atomic             Coordinates (Angstroms)
 Number     Number       Type             X           Y           Z
 ---------------------------------------------------------------------
      1          6           0        0.998752    0.679922   -0.001949
      2          6           0        0.970490   -0.617294   -0.003461
      3          8           0       -0.401906   -1.116253   -0.007436
      4          6           0       -1.112923    0.025511    0.003450
      5          6           0       -0.424883    1.084749   -0.002005
      6          1           0       -0.759060    2.137273    0.008006
      7          1           0       -2.161964   -0.160181    0.024412
      8          1           0        1.666415   -1.403271    0.051075
      9          1           0        1.881249    1.318878   -0.000214
 ---------------------------------------------------------------------

 SCF Done:  E(RAM1) =   2.21557028186     A.U. after   14 cycles

 Excitation energies and oscillator strengths:

 Excited State   1:      Singlet-A      5.0772 eV  244.20 nm  f=0.3441  <S**2>=0.000
      13 -> 14         0.69642
 This state for optimization and/or second-order correction.
 Total Energy, E(CIS) =   2.40215515475
 Copying the excited state density for this state as the 1-particle RhoCI density.

 Excited State   2:      Singlet-A      5.3491 eV  231.78 nm  f=0.0012  <S**2>=0.000
      13 -> 15         0.68852

 Excited State   3:      Singlet-A      6.2407 eV  198.67 nm  f=0.0004  <S**2>=0.000
      13 -> 16         0.67050
      13 -> 17        -0.13018

 Excited State   4:      Singlet-A      6.9046 eV  179.57 nm  f=0.0003  <S**2>=0.000
      12 -> 14         0.70201

 Excited State   5:      Singlet-A      7.5417 eV  164.40 nm  f=0.0001  <S**2>=0.000
      13 -> 16         0.13472
      13 -> 17         0.25129
      13 -> 18         0.53911
      13 -> 20         0.22488
      13 -> 22        -0.24325

 Excited State   6:      Singlet-A      7.8228 eV  158.49 nm  f=0.0086  <S**2>=0.000
      11 -> 14         0.16407
      13 -> 17         0.61512
      13 -> 18        -0.20574
      13 -> 20        -0.17636

 Excited State   7:      Singlet-A      8.2405 eV  150.46 nm  f=0.0017  <S**2>=0.000
      11 -> 14         0.67773
      13 -> 17        -0.14583

 Excited State   8:      Singlet-A      8.5830 eV  144.45 nm  f=0.0002  <S**2>=0.000
      13 -> 18        -0.32310
      13 -> 20         0.60312

 Excited State   9:      Singlet-A      8.6467 eV  143.39 nm  f=0.0109  <S**2>=0.000
      10 -> 14        -0.33872
      12 -> 15         0.15231
      13 -> 19         0.58311

 Excited State  10:      Singlet-A      8.9588 eV  138.39 nm  f=0.1152  <S**2>=0.000
      12 -> 15         0.60915
      12 -> 16        -0.16156
      12 -> 18         0.13160
      13 -> 19        -0.16061

 Excited State  11:      Singlet-A      9.2392 eV  134.19 nm  f=0.0263  <S**2>=0.000
      13 -> 18        -0.18636
      13 -> 20        -0.13438
      13 -> 21         0.47188
      13 -> 22        -0.45703

 Excited State  12:      Singlet-A      9.3696 eV  132.33 nm  f=0.0952  <S**2>=0.000
       8 -> 16        -0.10158
      10 -> 14         0.47812
      11 -> 15         0.10725
      11 -> 18         0.10675
      12 -> 16        -0.28796
      12 -> 18         0.10849
      13 -> 19         0.33461

 Excited State  13:      Singlet-A      9.5368 eV  130.01 nm  f=0.0552  <S**2>=0.000
      13 -> 18         0.12793
      13 -> 21         0.48506
      13 -> 22         0.46923

 Excited State  14:      Singlet-A      9.7818 eV  126.75 nm  f=0.0638  <S**2>=0.000
       9 -> 15        -0.11180
      10 -> 14         0.30484
      11 -> 15        -0.24211
      11 -> 17         0.18176
      12 -> 15         0.20724
      12 -> 16         0.35413
      12 -> 17        -0.19329
      12 -> 18        -0.22636

 Excited State  15:      Singlet-A     10.1093 eV  122.64 nm  f=0.0013  <S**2>=0.000
       7 -> 15        -0.15681
      10 -> 15         0.65957
      13 -> 15        -0.10250

 The electronic state is 1-A.
 Alpha  occ. eigenvalues --   -1.93445  -1.19930  -0.95032  -0.80516  -0.78258
 Alpha  occ. eigenvalues --   -0.69729  -0.66068  -0.53718  -0.52392  -0.44402
 Alpha  occ. eigenvalues --   -0.43120  -0.38911  -0.25492
 Alpha virt. eigenvalues --    0.13242   0.16667   0.20409   0.27679   0.28787
 Alpha virt. eigenvalues --    0.29464   0.31189   0.33140   0.34693   0.38576
 Alpha virt. eigenvalues --    0.41317

 Mulliken charges:
               1
     1  C   -0.103639
     2  C   -1.806147
     3  O    3.182813
     4  C   -1.813454
     5  C   -0.250243
     6  H    0.157524
     7  H    0.254119
     8  H    0.233370
     9  H    0.145657
 Sum of Mulliken charges =   0.00000

 Dipole moment (field-independent basis, Debye):
    X=             -4.4544    Y=            -11.3484    Z=              0.0347  Tot=             12.1914
 N-N= 1.042714256580D+02 E-N=-1.695420433659D+02  KE=-1.534937863392D+01
 Orbital energies and kinetic energies (alpha):
                                 1                 2
   1         O                -1.934451         -1.339416
   2         O                -1.199299         -1.062150
   3         O                -0.950318         -0.905534
   4         O                -0.805161         -0.587809
   5         O                -0.782584         -0.673054
   6         O                -0.697294         -0.567227
   7         O                -0.660682         -0.534221

 Normal termination of Gaussian 09 at Tue Dec 15 17:08:50 2015.
