 Gaussian 09, Revision D.01,
 Gaussian 09:  ES64L-G09RevD.01 24-Apr-2013

 ------------------------------------------------------------
 #P AM1(Input,print) CIS(Singlets,NStates=15) pop(full) force
 ------------------------------------------------------------

 -----------------
 AM1-Reparam Input
 -----------------
 Symbolic Z-matrix:
 Charge =  0 Multiplicity = 1

                         Standard orientation:
 ---------------------------------------------------------------------
 Center     Atomic      Atomic             Coordinates (Angstroms)
 Number     Number       Type             X           Y           Z
 ---------------------------------------------------------------------
      1          6           0        0.760338    0.887249   -0.009021
      2          6           0        1.077972   -0.418550    0.017701
      3          8           0       -0.077139   -1.163490   -0.014097
      4          6           0       -1.145988   -0.238772    0.027431
      5          6           0       -0.613710    0.982587   -0.024102
      6          1           0       -1.233499    1.867463    0.041784
      7          1           0       -2.067250   -0.683119   -0.020846
      8          1           0        1.969513   -0.900513   -0.005957
      9          1           0        1.476681    1.749002    0.025739
 ---------------------------------------------------------------------

 SCF Done:  E(RAM1) =   1.88127093055     A.U. after   13 cycles

 Excitation energies and oscillator strengths:

 Excited State   1:      Singlet-A      5.7388 eV  216.05 nm  f=0.2915  <S**2>=0.000
      11 -> 17        -0.11907
      13 -> 14         0.68402
 This state for optimization and/or second-order correction.
 Total Energy, E(CIS) =   2.09216799985
 Copying the excited state density for this state as the 1-particle RhoCI density.

 Excited State   2:      Singlet-A      6.7034 eV  184.96 nm  f=0.0042  <S**2>=0.000
      10 -> 15        -0.10344
      13 -> 15         0.63971
      13 -> 16         0.17111
      13 -> 17        -0.17548

 Excited State   3:      Singlet-A      6.8798 eV  180.22 nm  f=0.0006  <S**2>=0.000
      10 -> 16         0.10570
      12 -> 14        -0.21460
      13 -> 15        -0.17720
      13 -> 16         0.60567
      13 -> 19        -0.14346

 Excited State   4:      Singlet-A      6.9000 eV  179.69 nm  f=0.0018  <S**2>=0.000
      12 -> 14         0.66445
      13 -> 16         0.20447

 Excited State   5:      Singlet-A      7.5972 eV  163.20 nm  f=0.0045  <S**2>=0.000
      11 -> 14         0.69704

 Excited State   6:      Singlet-A      8.2266 eV  150.71 nm  f=0.0019  <S**2>=0.000
      10 -> 16         0.10811
      13 -> 16         0.11645
      13 -> 17         0.45934
      13 -> 18        -0.45633
      13 -> 22        -0.21115

 Excited State   7:      Singlet-A      8.3050 eV  149.29 nm  f=0.0061  <S**2>=0.000
      10 -> 15        -0.11136
      13 -> 15         0.13296
      13 -> 17         0.47929
      13 -> 18         0.43863
      13 -> 22         0.17775

 Excited State   8:      Singlet-A      8.9835 eV  138.01 nm  f=0.0286  <S**2>=0.000
       8 -> 16         0.10358
       9 -> 19        -0.10344
      10 -> 14         0.16374
      11 -> 15        -0.19333
      11 -> 16        -0.19193
      11 -> 17         0.28247
      12 -> 15        -0.23242
      12 -> 16         0.23775
      12 -> 18         0.33106
      12 -> 22         0.12101
      13 -> 14         0.11797

 Excited State   9:      Singlet-A      9.1274 eV  135.84 nm  f=0.0269  <S**2>=0.000
      10 -> 14         0.54528
      11 -> 18         0.10246
      12 -> 15         0.19103
      13 -> 19        -0.28397
      13 -> 21         0.13167

 Excited State  10:      Singlet-A      9.1355 eV  135.72 nm  f=0.0075  <S**2>=0.000
      10 -> 14         0.25442
      13 -> 18         0.10697
      13 -> 19         0.58628

 Excited State  11:      Singlet-A      9.5608 eV  129.68 nm  f=0.1654  <S**2>=0.000
       9 -> 16        -0.10805
      11 -> 16         0.29910
      12 -> 16         0.55957
      12 -> 17        -0.14472
      12 -> 19        -0.12142

 Excited State  12:      Singlet-A      9.6172 eV  128.92 nm  f=0.1143  <S**2>=0.000
      10 -> 14        -0.11034
      11 -> 15        -0.41160
      11 -> 17         0.13288
      11 -> 19        -0.11791
      12 -> 15         0.46826
      12 -> 17        -0.15987

 Excited State  13:      Singlet-A      9.7610 eV  127.02 nm  f=0.0302  <S**2>=0.000
      13 -> 18        -0.24510
      13 -> 19         0.17697
      13 -> 20         0.34955
      13 -> 22         0.50604

 Excited State  14:      Singlet-A      9.9618 eV  124.46 nm  f=0.0611  <S**2>=0.000
      10 -> 15         0.15321
      13 -> 18         0.10774
      13 -> 20         0.54086
      13 -> 22        -0.32821

 Excited State  15:      Singlet-A      9.9953 eV  124.04 nm  f=0.1164  <S**2>=0.000
       8 -> 16        -0.13284
       9 -> 15        -0.18973
      10 -> 14         0.24690
      11 -> 15        -0.19569
      11 -> 16         0.18496
      11 -> 18        -0.18802
      11 -> 19        -0.22460
      12 -> 15        -0.22754
      12 -> 16        -0.15453
      12 -> 17        -0.18144
      12 -> 18        -0.13641
      12 -> 20        -0.13237
      13 -> 20         0.16728
      13 -> 22        -0.10521

 The electronic state is 1-A.
 Alpha  occ. eigenvalues --   -1.93867  -1.23123  -0.99273  -0.81962  -0.80522
 Alpha  occ. eigenvalues --   -0.68922  -0.67198  -0.52461  -0.49607  -0.42221
 Alpha  occ. eigenvalues --   -0.39610  -0.37628  -0.27626
 Alpha virt. eigenvalues --    0.14969   0.20655   0.21158   0.26638   0.28417
 Alpha virt. eigenvalues --    0.31333   0.32869   0.34057   0.35903   0.43223
 Alpha virt. eigenvalues --    0.47403

 Mulliken charges:
               1
     1  C   -0.114801
     2  C   -1.934181
     3  O    3.132129
     4  C   -1.902302
     5  C   -0.082619
     6  H    0.153154
     7  H    0.286321
     8  H    0.309620
     9  H    0.152679
 Sum of Mulliken charges =   0.00000

 Dipole moment (field-independent basis, Debye):
    X=             -0.5063    Y=            -10.6130    Z=             -0.5658  Tot=             10.6401
 N-N= 1.044194150728D+02 E-N=-1.700967379182D+02  KE=-1.569915803758D+01
 Orbital energies and kinetic energies (alpha):
                                 1                 2
   1         O                -1.938673         -1.398797
   2         O                -1.231233         -1.092615
   3         O                -0.992732         -0.925665
   4         O                -0.819616         -0.712808
   5         O                -0.805219         -0.611301
   6         O                -0.689217         -0.577988
   7         O                -0.671983         -0.583092

 Normal termination of Gaussian 09 at Tue Dec 15 17:09:58 2015.
