 Gaussian 09, Revision D.01,
 Gaussian 09:  ES64L-G09RevD.01 24-Apr-2013

 ------------------------------------------------------------
 #P AM1(Input,print) CIS(Singlets,NStates=15) pop(full) force
 ------------------------------------------------------------

 -----------------
 AM1-Reparam Input
 -----------------
 Symbolic Z-matrix:
 Charge =  0 Multiplicity = 1

                         Standard orientation:
 ---------------------------------------------------------------------
 Center     Atomic      Atomic             Coordinates (Angstroms)
 Number     Number       Type             X           Y           Z
 ---------------------------------------------------------------------
      1          6           0        1.041420    0.649805   -0.038434
      2          6           0        0.885524   -0.662698    0.043344
      3          8           0       -0.430291   -1.099748   -0.015550
      4          6           0       -1.099306    0.047668   -0.016891
      5          6           0       -0.381449    1.131555    0.027832
      6          1           0       -0.679998    2.150430    0.006740
      7          1           0       -2.171500   -0.081625    0.031763
      8          1           0        1.677080   -1.468754   -0.000150
      9          1           0        1.939605    1.199960   -0.009059
 ---------------------------------------------------------------------

 SCF Done:  E(RAM1) =   2.10388859909     A.U. after   13 cycles

 Excitation energies and oscillator strengths:

 Excited State   1:      Singlet-A      4.9917 eV  248.38 nm  f=0.3467  <S**2>=0.000
      13 -> 14         0.69654
 This state for optimization and/or second-order correction.
 Total Energy, E(CIS) =   2.28732845206
 Copying the excited state density for this state as the 1-particle RhoCI density.

 Excited State   2:      Singlet-A      6.0856 eV  203.73 nm  f=0.0013  <S**2>=0.000
      13 -> 15         0.63045
      13 -> 16        -0.16422
      13 -> 18         0.24471

 Excited State   3:      Singlet-A      6.3775 eV  194.41 nm  f=0.0048  <S**2>=0.000
      13 -> 15         0.20022
      13 -> 16         0.62244
      13 -> 17         0.19101
      13 -> 18        -0.15447

 Excited State   4:      Singlet-A      6.4096 eV  193.43 nm  f=0.0010  <S**2>=0.000
      12 -> 14         0.70167

 Excited State   5:      Singlet-A      7.4342 eV  166.78 nm  f=0.0000  <S**2>=0.000
      13 -> 15        -0.14755
      13 -> 16         0.19804
      13 -> 18         0.53244
      13 -> 19        -0.31750
      13 -> 20        -0.19049

 Excited State   6:      Singlet-A      7.9268 eV  156.41 nm  f=0.0130  <S**2>=0.000
      10 -> 14         0.66577
      11 -> 14        -0.13861
      13 -> 17         0.15338

 Excited State   7:      Singlet-A      8.1394 eV  152.33 nm  f=0.0222  <S**2>=0.000
      10 -> 14        -0.16585
      13 -> 15        -0.14152
      13 -> 16        -0.10217
      13 -> 17         0.63788
      13 -> 18         0.12216

 Excited State   8:      Singlet-A      8.5752 eV  144.58 nm  f=0.0024  <S**2>=0.000
      13 -> 16         0.11861
      13 -> 17        -0.11921
      13 -> 18         0.30633
      13 -> 19         0.59292
      13 -> 20         0.11146

 Excited State   9:      Singlet-A      8.7162 eV  142.25 nm  f=0.1054  <S**2>=0.000
      10 -> 14         0.13682
      11 -> 14         0.66260

 Excited State  10:      Singlet-A      9.1486 eV  135.52 nm  f=0.1973  <S**2>=0.000
       9 -> 15         0.11200
      10 -> 17        -0.14003
      12 -> 15         0.42535
      12 -> 16        -0.32185
      12 -> 18         0.32778
      12 -> 19        -0.13434
      13 -> 21        -0.10591

 Excited State  11:      Singlet-A      9.3387 eV  132.76 nm  f=0.0048  <S**2>=0.000
      13 -> 18         0.12470
      13 -> 19        -0.19079
      13 -> 20         0.63861
      13 -> 21         0.18103

 Excited State  12:      Singlet-A      9.6106 eV  129.01 nm  f=0.0772  <S**2>=0.000
      12 -> 15         0.18456
      13 -> 20        -0.18014
      13 -> 21         0.63861

 Excited State  13:      Singlet-A      9.7145 eV  127.63 nm  f=0.0317  <S**2>=0.000
      10 -> 15         0.16333
      11 -> 14         0.11788
      12 -> 15         0.43571
      12 -> 16         0.38398
      12 -> 17         0.17551
      13 -> 21        -0.16069

 Excited State  14:      Singlet-A     10.0367 eV  123.53 nm  f=0.0941  <S**2>=0.000
       9 -> 16        -0.16201
      10 -> 15        -0.12740
      10 -> 17        -0.14189
      12 -> 15        -0.11673
      12 -> 16         0.37062
      12 -> 18         0.30521
      12 -> 19        -0.32544

 Excited State  15:      Singlet-A     10.2165 eV  121.36 nm  f=0.0042  <S**2>=0.000
       7 -> 15        -0.14438
      10 -> 15         0.11184
      11 -> 15         0.60296
      11 -> 16         0.21826
      11 -> 17         0.11745
      13 -> 15        -0.10392

 The electronic state is 1-A.
 Alpha  occ. eigenvalues --   -1.94262  -1.19793  -0.95843  -0.82376  -0.77469
 Alpha  occ. eigenvalues --   -0.69239  -0.65112  -0.52656  -0.52305  -0.44066
 Alpha  occ. eigenvalues --   -0.43733  -0.39090  -0.26673
 Alpha virt. eigenvalues --    0.11587   0.18410   0.19521   0.27496   0.27592
 Alpha virt. eigenvalues --    0.30730   0.32074   0.32364   0.35893   0.45537
 Alpha virt. eigenvalues --    0.48513

 Mulliken charges:
               1
     1  C   -0.188446
     2  C   -1.974050
     3  O    3.158709
     4  C   -1.962203
     5  C   -0.256298
     6  H    0.247953
     7  H    0.365151
     8  H    0.367050
     9  H    0.242133
 Sum of Mulliken charges =   0.00000

 Dipole moment (field-independent basis, Debye):
    X=             -4.0434    Y=            -10.4153    Z=             -0.3830  Tot=             11.1791
 N-N= 1.045717380148D+02 E-N=-1.701833794529D+02  KE=-1.550000781051D+01
 Orbital energies and kinetic energies (alpha):
                                 1                 2
   1         O                -1.942617         -1.391635
   2         O                -1.197927         -1.076750
   3         O                -0.958429         -0.889008
   4         O                -0.823758         -0.592716
   5         O                -0.774693         -0.661767
   6         O                -0.692387         -0.559197
   7         O                -0.651115         -0.524084

 Normal termination of Gaussian 09 at Tue Dec 15 17:07:21 2015.
