 Gaussian 09, Revision D.01,
 Gaussian 09:  ES64L-G09RevD.01 24-Apr-2013

 ------------------------------------------------------------
 #P AM1(Input,print) CIS(Singlets,NStates=15) pop(full) force
 ------------------------------------------------------------

 -----------------
 AM1-Reparam Input
 -----------------
 Symbolic Z-matrix:
 Charge =  0 Multiplicity = 1

                         Standard orientation:
 ---------------------------------------------------------------------
 Center     Atomic      Atomic             Coordinates (Angstroms)
 Number     Number       Type             X           Y           Z
 ---------------------------------------------------------------------
      1          6           0       -0.942754    0.721818   -0.008713
      2          6           0       -1.013396   -0.617276   -0.014587
      3          8           0        0.338747   -1.090956    0.005008
      4          6           0        1.173161   -0.066625    0.004058
      5          6           0        0.431732    1.096270   -0.017886
      6          1           0        0.818183    2.137040    0.053337
      7          1           0        2.240727   -0.294566    0.014654
      8          1           0       -1.820827   -1.306558    0.045322
      9          1           0       -1.840517    1.386614    0.069402
 ---------------------------------------------------------------------

 SCF Done:  E(RAM1) =   1.68135597206     A.U. after   13 cycles

 Excitation energies and oscillator strengths:

 Excited State   1:      Singlet-A      5.3368 eV  232.32 nm  f=0.3341  <S**2>=0.000
      13 -> 14         0.69354
 This state for optimization and/or second-order correction.
 Total Energy, E(CIS) =   1.87748126612
 Copying the excited state density for this state as the 1-particle RhoCI density.

 Excited State   2:      Singlet-A      6.1970 eV  200.07 nm  f=0.0044  <S**2>=0.000
      13 -> 15         0.64089
      13 -> 16         0.10041
      13 -> 17        -0.22328

 Excited State   3:      Singlet-A      6.7871 eV  182.68 nm  f=0.0040  <S**2>=0.000
      13 -> 15        -0.10528
      13 -> 16         0.59443
      13 -> 17        -0.15797
      13 -> 20         0.21247
      13 -> 21         0.17649

 Excited State   4:      Singlet-A      7.1123 eV  174.32 nm  f=0.0017  <S**2>=0.000
      12 -> 14         0.64529
      13 -> 16        -0.13695
      13 -> 18         0.11423
      13 -> 20         0.18757

 Excited State   5:      Singlet-A      7.4433 eV  166.57 nm  f=0.0001  <S**2>=0.000
      12 -> 14        -0.25095
      13 -> 16        -0.17927
      13 -> 17        -0.10051
      13 -> 18         0.16081
      13 -> 20         0.59211

 Excited State   6:      Singlet-A      7.6011 eV  163.11 nm  f=0.0148  <S**2>=0.000
      10 -> 14         0.10609
      13 -> 15         0.20150
      13 -> 16         0.12647
      13 -> 17         0.61717
      13 -> 21         0.11784

 Excited State   7:      Singlet-A      7.9633 eV  155.70 nm  f=0.0018  <S**2>=0.000
      10 -> 14         0.56246
      11 -> 14        -0.37185
      13 -> 17        -0.10606
      13 -> 19         0.11676

 Excited State   8:      Singlet-A      8.3321 eV  148.80 nm  f=0.0056  <S**2>=0.000
      10 -> 14        -0.10304
      13 -> 16         0.12548
      13 -> 18         0.63888
      13 -> 19         0.14822
      13 -> 20        -0.11932

 Excited State   9:      Singlet-A      8.4541 eV  146.66 nm  f=0.0016  <S**2>=0.000
      13 -> 17         0.11304
      13 -> 18        -0.17825
      13 -> 19         0.56706
      13 -> 20         0.15650
      13 -> 21        -0.29004

 Excited State  10:      Singlet-A      8.7329 eV  141.97 nm  f=0.0860  <S**2>=0.000
      10 -> 14         0.37526
      11 -> 14         0.55418

 Excited State  11:      Singlet-A      8.9646 eV  138.30 nm  f=0.0890  <S**2>=0.000
      13 -> 19         0.34109
      13 -> 21         0.58695

 Excited State  12:      Singlet-A      9.4503 eV  131.20 nm  f=0.0019  <S**2>=0.000
       8 -> 15        -0.11627
      10 -> 16         0.14939
      10 -> 17        -0.25906
      11 -> 16        -0.10449
      11 -> 17         0.14547
      12 -> 15        -0.28640
      12 -> 16         0.18593
      12 -> 18        -0.12365
      12 -> 20         0.35930

 Excited State  13:      Singlet-A      9.6521 eV  128.45 nm  f=0.0240  <S**2>=0.000
       7 -> 15        -0.13109
      10 -> 15         0.12442
      11 -> 15         0.59176
      11 -> 17        -0.13121
      12 -> 15        -0.20022
      13 -> 15        -0.13199

 Excited State  14:      Singlet-A      9.7810 eV  126.76 nm  f=0.1053  <S**2>=0.000
      10 -> 15         0.32160
      10 -> 17        -0.17520
      11 -> 14        -0.10710
      11 -> 15         0.11441
      12 -> 15         0.47949
      12 -> 16         0.12074
      12 -> 17        -0.11043
      12 -> 19         0.16722

 Excited State  15:      Singlet-A     10.1213 eV  122.50 nm  f=0.2093  <S**2>=0.000
       9 -> 15        -0.14587
      10 -> 15        -0.18660
      10 -> 19        -0.31139
      11 -> 19         0.14813
      12 -> 17         0.38876
      12 -> 18        -0.17048
      12 -> 19         0.22842
      12 -> 20        -0.14290

 The electronic state is 1-A.
 Alpha  occ. eigenvalues --   -1.90974  -1.21415  -0.99434  -0.82112  -0.79835
 Alpha  occ. eigenvalues --   -0.68349  -0.63100  -0.55564  -0.51915  -0.43490
 Alpha  occ. eigenvalues --   -0.42575  -0.40870  -0.27990
 Alpha virt. eigenvalues --    0.12358   0.17106   0.20729   0.23926   0.26495
 Alpha virt. eigenvalues --    0.27503   0.28477   0.29010   0.35909   0.44367
 Alpha virt. eigenvalues --    0.49878

 Mulliken charges:
               1
     1  C   -0.065021
     2  C   -1.940020
     3  O    3.197718
     4  C   -1.959645
     5  C   -0.211019
     6  H    0.187827
     7  H    0.313406
     8  H    0.301843
     9  H    0.174910
 Sum of Mulliken charges =   0.00000

 Dipole moment (field-independent basis, Debye):
    X=              3.0833    Y=             -9.5748    Z=              0.4032  Tot=             10.0671
 N-N= 1.035749573543D+02 E-N=-1.687405611809D+02  KE=-1.569413439247D+01
 Orbital energies and kinetic energies (alpha):
                                 1                 2
   1         O                -1.909742         -1.370374
   2         O                -1.214155         -1.086680
   3         O                -0.994339         -0.910220
   4         O                -0.821124         -0.650933
   5         O                -0.798353         -0.687162
   6         O                -0.683487         -0.576357
   7         O                -0.631005         -0.507608

 Normal termination of Gaussian 09 at Tue Dec 15 17:06:57 2015.
