 Gaussian 09, Revision D.01,
 Gaussian 09:  ES64L-G09RevD.01 24-Apr-2013

 ------------------------------------------------------------
 #P AM1(Input,print) CIS(Singlets,NStates=15) pop(full) force
 ------------------------------------------------------------

 -----------------
 AM1-Reparam Input
 -----------------
 Symbolic Z-matrix:
 Charge =  0 Multiplicity = 1

                         Standard orientation:
 ---------------------------------------------------------------------
 Center     Atomic      Atomic             Coordinates (Angstroms)
 Number     Number       Type             X           Y           Z
 ---------------------------------------------------------------------
      1          6           0       -1.113238    0.442806   -0.004783
      2          6           0       -0.750595   -0.836111    0.021280
      3          8           0        0.627596   -1.017490   -0.014962
      4          6           0        1.104850    0.268298    0.003039
      5          6           0        0.107970    1.210609   -0.013149
      6          1           0        0.178041    2.208215    0.024157
      7          1           0        2.205136    0.340432    0.057520
      8          1           0       -1.369346   -1.803414   -0.005826
      9          1           0       -2.128520    0.881079    0.005513
 ---------------------------------------------------------------------

 SCF Done:  E(RAM1) =   2.62069461357     A.U. after   13 cycles

 Excitation energies and oscillator strengths:

 Excited State   1:      Singlet-A      5.0367 eV  246.16 nm  f=0.3647  <S**2>=0.000
      13 -> 14         0.69964
 This state for optimization and/or second-order correction.
 Total Energy, E(CIS) =   2.80579013940
 Copying the excited state density for this state as the 1-particle RhoCI density.

 Excited State   2:      Singlet-A      5.9265 eV  209.20 nm  f=0.0000  <S**2>=0.000
      13 -> 15         0.66265
      13 -> 17         0.14129
      13 -> 19        -0.11276

 Excited State   3:      Singlet-A      6.3122 eV  196.42 nm  f=0.0021  <S**2>=0.000
      11 -> 15         0.11751
      13 -> 15         0.10039
      13 -> 16         0.67211
      13 -> 18         0.11043

 Excited State   4:      Singlet-A      6.4669 eV  191.72 nm  f=0.0005  <S**2>=0.000
      12 -> 14         0.69897

 Excited State   5:      Singlet-A      7.5194 eV  164.88 nm  f=0.0054  <S**2>=0.000
      10 -> 14         0.68880
      11 -> 14        -0.11315

 Excited State   6:      Singlet-A      7.6984 eV  161.05 nm  f=0.0002  <S**2>=0.000
      13 -> 15        -0.13140
      13 -> 17         0.65723
      13 -> 18         0.13105
      13 -> 21        -0.11502

 Excited State   7:      Singlet-A      8.4352 eV  146.98 nm  f=0.1148  <S**2>=0.000
      10 -> 14         0.11296
      11 -> 14         0.68538

 Excited State   8:      Singlet-A      8.9808 eV  138.05 nm  f=0.0116  <S**2>=0.000
      11 -> 15        -0.29077
      12 -> 15         0.10657
      13 -> 17        -0.12840
      13 -> 18         0.60308

 Excited State   9:      Singlet-A      9.0626 eV  136.81 nm  f=0.1597  <S**2>=0.000
       9 -> 16        -0.15242
      10 -> 18        -0.12447
      12 -> 15         0.56461
      12 -> 17         0.26135
      13 -> 18        -0.11064

 Excited State  10:      Singlet-A      9.2902 eV  133.46 nm  f=0.0034  <S**2>=0.000
      11 -> 15        -0.10299
      11 -> 16         0.27694
      13 -> 19         0.62429

 Excited State  11:      Singlet-A      9.6714 eV  128.20 nm  f=0.0898  <S**2>=0.000
      10 -> 15         0.23541
      10 -> 16         0.19245
      10 -> 18         0.17830
      12 -> 15         0.27708
      12 -> 16         0.42809
      12 -> 17        -0.26655

 Excited State  12:      Singlet-A      9.8629 eV  125.71 nm  f=0.1497  <S**2>=0.000
      10 -> 15         0.14982
      10 -> 16        -0.36797
      10 -> 18        -0.13848
      12 -> 15        -0.14987
      12 -> 16         0.40521
      12 -> 17         0.24703
      12 -> 19         0.11506

 Excited State  13:      Singlet-A      9.9187 eV  125.00 nm  f=0.0012  <S**2>=0.000
       7 -> 16        -0.11052
      11 -> 15         0.57299
      13 -> 16        -0.16288
      13 -> 18         0.27992
      13 -> 19         0.15370

 Excited State  14:      Singlet-A     10.0087 eV  123.88 nm  f=0.0015  <S**2>=0.000
       7 -> 15        -0.12936
      11 -> 15         0.14008
      11 -> 16         0.58165
      13 -> 15        -0.15715
      13 -> 19        -0.24324

 Excited State  15:      Singlet-A     10.2210 eV  121.30 nm  f=0.0088  <S**2>=0.000
       8 -> 16         0.20166
       9 -> 15         0.26815
      10 -> 15         0.45421
      10 -> 17        -0.10334
      10 -> 19        -0.21025
      12 -> 16        -0.20775
      12 -> 18         0.17275

 The electronic state is 1-A.
 Alpha  occ. eigenvalues --   -1.83422  -1.12028  -0.85484  -0.78553  -0.74382
 Alpha  occ. eigenvalues --   -0.66030  -0.62066  -0.54511  -0.53320  -0.44227
 Alpha  occ. eigenvalues --   -0.43655  -0.41083  -0.28484
 Alpha virt. eigenvalues --    0.09952   0.16424   0.17560   0.26198   0.28882
 Alpha virt. eigenvalues --    0.30573   0.37203   0.41779   0.47330   0.55638
 Alpha virt. eigenvalues --    0.58523

 Mulliken charges:
               1
     1  C   -0.163979
     2  C   -1.980642
     3  O    3.427862
     4  C   -1.991036
     5  C   -0.192028
     6  H    0.171049
     7  H    0.267985
     8  H    0.278763
     9  H    0.182025
 Sum of Mulliken charges =   0.00000

 Dipole moment (field-independent basis, Debye):
    X=              6.1351    Y=            -10.7465    Z=             -0.3065  Tot=             12.3782
 N-N= 1.035736580374D+02 E-N=-1.690470517198D+02  KE=-1.431396058840D+01
 Orbital energies and kinetic energies (alpha):
                                 1                 2
   1         O                -1.834217         -1.223846
   2         O                -1.120276         -0.980605
   3         O                -0.854843         -0.796851
   4         O                -0.785528         -0.522258
   5         O                -0.743820         -0.601873
   6         O                -0.660302         -0.556888
   7         O                -0.620663         -0.494239

 Normal termination of Gaussian 09 at Tue Dec 15 17:07:41 2015.
