 Gaussian 09, Revision D.01,
 Gaussian 09:  ES64L-G09RevD.01 24-Apr-2013

 ------------------------------------------------------------
 #P AM1(Input,print) CIS(Singlets,NStates=15) pop(full) force
 ------------------------------------------------------------

 -----------------
 AM1-Reparam Input
 -----------------
 Symbolic Z-matrix:
 Charge =  0 Multiplicity = 1

                         Standard orientation:
 ---------------------------------------------------------------------
 Center     Atomic      Atomic             Coordinates (Angstroms)
 Number     Number       Type             X           Y           Z
 ---------------------------------------------------------------------
      1          6           0       -0.649419    0.961871   -0.002631
      2          6           0       -1.095568   -0.246318    0.001723
      3          8           0       -0.104229   -1.154401    0.000617
      4          6           0        1.085947   -0.418762   -0.000511
      5          6           0        0.768999    0.916622    0.000003
      6          1           0        1.440928    1.691179    0.031100
      7          1           0        2.021488   -0.928274   -0.019471
      8          1           0       -2.054341   -0.701881    0.012815
      9          1           0       -1.233998    1.893702   -0.020884
 ---------------------------------------------------------------------

 SCF Done:  E(RAM1) =   1.11587899964     A.U. after   14 cycles

 Excitation energies and oscillator strengths:

 Excited State   1:      Singlet-A      5.5354 eV  223.98 nm  f=0.1966  <S**2>=0.000
      12 -> 15         0.14676
      13 -> 14         0.67821
 This state for optimization and/or second-order correction.
 Total Energy, E(CIS) =   1.31930159385
 Copying the excited state density for this state as the 1-particle RhoCI density.

 Excited State   2:      Singlet-A      6.4627 eV  191.85 nm  f=0.0028  <S**2>=0.000
      13 -> 16         0.64934
      13 -> 17         0.20159
      13 -> 19         0.15973

 Excited State   3:      Singlet-A      6.8209 eV  181.77 nm  f=0.0208  <S**2>=0.000
      12 -> 14        -0.33799
      13 -> 15         0.57452
      13 -> 17         0.18453

 Excited State   4:      Singlet-A      6.8667 eV  180.56 nm  f=0.0023  <S**2>=0.000
      12 -> 14         0.11541
      13 -> 15        -0.15776
      13 -> 16        -0.18976
      13 -> 17         0.61233
      13 -> 18        -0.11892
      13 -> 21         0.12691

 Excited State   5:      Singlet-A      7.3357 eV  169.02 nm  f=0.0010  <S**2>=0.000
       9 -> 14        -0.14143
      11 -> 14         0.68459

 Excited State   6:      Singlet-A      7.9453 eV  156.05 nm  f=0.0093  <S**2>=0.000
      10 -> 14         0.64315
      11 -> 15        -0.18116
      12 -> 14        -0.11631

 Excited State   7:      Singlet-A      8.0599 eV  153.83 nm  f=0.2477  <S**2>=0.000
      10 -> 14         0.12531
      12 -> 14         0.57947
      13 -> 15         0.32522

 Excited State   8:      Singlet-A      8.1226 eV  152.64 nm  f=0.0000  <S**2>=0.000
      12 -> 16        -0.14007
      13 -> 18         0.63555
      13 -> 19         0.11056
      13 -> 24         0.16912

 Excited State   9:      Singlet-A      8.4856 eV  146.11 nm  f=0.0003  <S**2>=0.000
      13 -> 19         0.23209
      13 -> 20         0.62351
      13 -> 23         0.11919

 Excited State  10:      Singlet-A      8.5563 eV  144.90 nm  f=0.0203  <S**2>=0.000
       6 -> 15        -0.10236
       9 -> 15         0.23055
      10 -> 14         0.20685
      10 -> 15        -0.16475
      11 -> 15         0.58326
      12 -> 15         0.10744

 Excited State  11:      Singlet-A      8.7028 eV  142.46 nm  f=0.0006  <S**2>=0.000
      12 -> 16         0.57413
      12 -> 17         0.31375
      12 -> 19         0.10115
      13 -> 18         0.14442

 Excited State  12:      Singlet-A      8.7410 eV  141.84 nm  f=0.2011  <S**2>=0.000
       9 -> 16         0.11174
      12 -> 15         0.62579
      13 -> 14        -0.13961

 Excited State  13:      Singlet-A      8.9806 eV  138.06 nm  f=0.0055  <S**2>=0.000
       7 -> 16         0.10222
      12 -> 16        -0.25482
      12 -> 17         0.47889
      13 -> 19         0.35879
      13 -> 20        -0.21390

 Excited State  14:      Singlet-A      9.3873 eV  132.08 nm  f=0.0361  <S**2>=0.000
       9 -> 16         0.20105
      10 -> 17        -0.18948
      11 -> 16         0.58386
      11 -> 19         0.14070

 Excited State  15:      Singlet-A      9.3973 eV  131.94 nm  f=0.0025  <S**2>=0.000
       9 -> 14         0.13484
      11 -> 16         0.10269
      12 -> 16        -0.16077
      12 -> 17         0.25411
      13 -> 16         0.11910
      13 -> 19        -0.31569
      13 -> 20         0.10825
      13 -> 21         0.45937

 The electronic state is 1-A.
 Alpha  occ. eigenvalues --   -1.82511  -1.20806  -0.99822  -0.87669  -0.81314
 Alpha  occ. eigenvalues --   -0.74402  -0.72089  -0.60575  -0.56017  -0.51948
 Alpha  occ. eigenvalues --   -0.49490  -0.47306  -0.37992
 Alpha virt. eigenvalues --    0.03924   0.09266   0.10120   0.11708   0.18253
 Alpha virt. eigenvalues --    0.19465   0.20150   0.22161   0.26787   0.27598
 Alpha virt. eigenvalues --    0.28034

 Mulliken charges:
               1
     1  C   -0.169968
     2  C   -1.208711
     3  O    2.120212
     4  C   -1.250426
     5  C   -0.102625
     6  H    0.099737
     7  H    0.196961
     8  H    0.194181
     9  H    0.120639
 Sum of Mulliken charges =   0.00000

 Dipole moment (field-independent basis, Debye):
    X=             -1.0214    Y=             -7.2726    Z=             -0.0045  Tot=              7.3440
 N-N= 1.047518070674D+02 E-N=-1.718079907132D+02  KE=-1.502501886131D+01
 Orbital energies and kinetic energies (alpha):
                                 1                 2
   1         O                -1.825112         -1.244119
   2         O                -1.208058         -0.981480
   3         O                -0.998219         -0.836422
   4         O                -0.876687         -0.620755
   5         O                -0.813144         -0.676748
   6         O                -0.744024         -0.596227
   7         O                -0.720892         -0.519042

 Normal termination of Gaussian 09 at Tue Dec 15 17:05:31 2015.
