 Gaussian 09, Revision D.01,
 Gaussian 09:  ES64L-G09RevD.01 24-Apr-2013

 ------------------------------------------------------------
 #P AM1(Input,print) CIS(Singlets,NStates=15) pop(full) force
 ------------------------------------------------------------

 -----------------
 AM1-Reparam Input
 -----------------
 Symbolic Z-matrix:
 Charge =  0 Multiplicity = 1

                         Standard orientation:
 ---------------------------------------------------------------------
 Center     Atomic      Atomic             Coordinates (Angstroms)
 Number     Number       Type             X           Y           Z
 ---------------------------------------------------------------------
      1          6           0        0.559627    1.015389   -0.006607
      2          6           0        1.137285   -0.187972   -0.011430
      3          8           0        0.185658   -1.112927   -0.013445
      4          6           0       -1.030920   -0.500435    0.009945
      5          6           0       -0.857226    0.843068    0.026187
      6          1           0       -1.665486    1.532788   -0.070999
      7          1           0       -1.887181   -1.162659   -0.006423
      8          1           0        2.129413   -0.494770    0.098703
      9          1           0        1.085399    2.007760   -0.022291
 ---------------------------------------------------------------------

 SCF Done:  E(RAM1) =   1.70868409564     A.U. after   14 cycles

 Excitation energies and oscillator strengths:

 Excited State   1:      Singlet-A      5.3535 eV  231.59 nm  f=0.3318  <S**2>=0.000
      13 -> 14         0.69267
 This state for optimization and/or second-order correction.
 Total Energy, E(CIS) =   1.90542221772
 Copying the excited state density for this state as the 1-particle RhoCI density.

 Excited State   2:      Singlet-A      6.3617 eV  194.89 nm  f=0.0089  <S**2>=0.000
      11 -> 16        -0.10093
      13 -> 15         0.64011
      13 -> 17         0.26352

 Excited State   3:      Singlet-A      6.5833 eV  188.33 nm  f=0.0002  <S**2>=0.000
      11 -> 15        -0.12082
      13 -> 16         0.63903
      13 -> 19         0.17150
      13 -> 20         0.16008

 Excited State   4:      Singlet-A      7.0539 eV  175.77 nm  f=0.0007  <S**2>=0.000
      12 -> 14         0.66555
      13 -> 20        -0.14012
      13 -> 21        -0.10459

 Excited State   5:      Singlet-A      7.4154 eV  167.20 nm  f=0.0027  <S**2>=0.000
      12 -> 14         0.19351
      13 -> 15        -0.11586
      13 -> 16        -0.13801
      13 -> 17         0.29462
      13 -> 18         0.12384
      13 -> 20         0.45013
      13 -> 21         0.33059

 Excited State   6:      Singlet-A      7.7279 eV  160.44 nm  f=0.0145  <S**2>=0.000
      10 -> 14        -0.11413
      13 -> 15        -0.20773
      13 -> 17         0.56346
      13 -> 18        -0.11359
      13 -> 20        -0.21675
      13 -> 21        -0.21122

 Excited State   7:      Singlet-A      8.0843 eV  153.36 nm  f=0.0020  <S**2>=0.000
      10 -> 14         0.64171
      11 -> 14         0.24294
      13 -> 17         0.12400

 Excited State   8:      Singlet-A      8.3974 eV  147.65 nm  f=0.0011  <S**2>=0.000
      13 -> 16        -0.17854
      13 -> 18        -0.44658
      13 -> 19         0.48708
      13 -> 20         0.11255

 Excited State   9:      Singlet-A      8.4856 eV  146.11 nm  f=0.0111  <S**2>=0.000
      13 -> 18         0.50331
      13 -> 19         0.45849
      13 -> 21        -0.15695

 Excited State  10:      Singlet-A      8.7507 eV  141.68 nm  f=0.0925  <S**2>=0.000
      10 -> 14        -0.24375
      11 -> 14         0.63108
      12 -> 15        -0.11771

 Excited State  11:      Singlet-A      9.0352 eV  137.22 nm  f=0.0818  <S**2>=0.000
      13 -> 19         0.10996
      13 -> 20        -0.41967
      13 -> 21         0.53902

 Excited State  12:      Singlet-A      9.4229 eV  131.58 nm  f=0.0078  <S**2>=0.000
       8 -> 15         0.14902
       9 -> 16         0.10928
       9 -> 19         0.11616
      10 -> 15        -0.20365
      10 -> 17        -0.27700
      12 -> 16         0.34433
      12 -> 17         0.17646
      12 -> 18        -0.11125
      12 -> 20         0.23391
      12 -> 21         0.24108

 Excited State  13:      Singlet-A      9.7295 eV  127.43 nm  f=0.0688  <S**2>=0.000
      11 -> 15        -0.33076
      12 -> 15         0.46297
      12 -> 16        -0.25577
      12 -> 17         0.12415
      12 -> 18         0.13566

 Excited State  14:      Singlet-A      9.8687 eV  125.63 nm  f=0.0499  <S**2>=0.000
      10 -> 15        -0.10958
      11 -> 15         0.51558
      11 -> 16         0.10898
      11 -> 17         0.12934
      12 -> 15         0.30718
      12 -> 18         0.12842
      13 -> 16         0.12485

 Excited State  15:      Singlet-A      9.9814 eV  124.22 nm  f=0.3235  <S**2>=0.000
       8 -> 15         0.11116
       8 -> 16         0.14874
       9 -> 15         0.10248
      10 -> 15         0.20008
      10 -> 17         0.13846
      10 -> 19        -0.14289
      11 -> 15        -0.10546
      12 -> 15         0.12898
      12 -> 16         0.40318
      12 -> 17        -0.24120
      12 -> 18         0.15230
      12 -> 19         0.21845

 The electronic state is 1-A.
 Alpha  occ. eigenvalues --   -1.92754  -1.22579  -1.01042  -0.82757  -0.80538
 Alpha  occ. eigenvalues --   -0.68963  -0.64533  -0.55264  -0.52025  -0.44028
 Alpha  occ. eigenvalues --   -0.42975  -0.40865  -0.28234
 Alpha virt. eigenvalues --    0.12220   0.18193   0.18824   0.24203   0.26604
 Alpha virt. eigenvalues --    0.28075   0.28403   0.28878   0.37559   0.46131
 Alpha virt. eigenvalues --    0.51441

 Mulliken charges:
               1
     1  C   -0.155376
     2  C   -1.944922
     3  O    3.188748
     4  C   -1.948019
     5  C   -0.114750
     6  H    0.182451
     7  H    0.299112
     8  H    0.312124
     9  H    0.180633
 Sum of Mulliken charges =   0.00000

 Dipole moment (field-independent basis, Debye):
    X=              1.6727    Y=             -9.7848    Z=             -0.0667  Tot=              9.9269
 N-N= 1.044199770319D+02 E-N=-1.701137425577D+02  KE=-1.577769887305D+01
 Orbital energies and kinetic energies (alpha):
                                 1                 2
   1         O                -1.927542         -1.404716
   2         O                -1.225793         -1.093125
   3         O                -1.010417         -0.920696
   4         O                -0.827570         -0.632476
   5         O                -0.805378         -0.710798
   6         O                -0.689627         -0.575454
   7         O                -0.645329         -0.517943

 Normal termination of Gaussian 09 at Tue Dec 15 17:06:58 2015.
