 Gaussian 09, Revision D.01,
 Gaussian 09:  ES64L-G09RevD.01 24-Apr-2013

 ------------------------------------------------------------
 #P AM1(Input,print) CIS(Singlets,NStates=15) pop(full) force
 ------------------------------------------------------------

 -----------------
 AM1-Reparam Input
 -----------------
 Symbolic Z-matrix:
 Charge =  0 Multiplicity = 1

                         Standard orientation:
 ---------------------------------------------------------------------
 Center     Atomic      Atomic             Coordinates (Angstroms)
 Number     Number       Type             X           Y           Z
 ---------------------------------------------------------------------
      1          6           0       -0.649419    0.961871   -0.002631
      2          6           0       -1.095568   -0.246318    0.001723
      3          8           0       -0.104229   -1.154401    0.000617
      4          6           0        1.085947   -0.418762   -0.000511
      5          6           0        0.768999    0.916622    0.000003
      6          1           0        1.440928    1.691179    0.031100
      7          1           0        2.021488   -0.928274   -0.019471
      8          1           0       -2.054341   -0.701881    0.012815
      9          1           0       -1.233998    1.893702   -0.020884
 ---------------------------------------------------------------------

 SCF Done:  E(RAM1) =   1.88354549811     A.U. after   14 cycles

 Excitation energies and oscillator strengths:

 Excited State   1:      Singlet-A      5.6244 eV  220.44 nm  f=0.3238  <S**2>=0.000
      13 -> 14         0.69011
 This state for optimization and/or second-order correction.
 Total Energy, E(CIS) =   2.09023720881
 Copying the excited state density for this state as the 1-particle RhoCI density.

 Excited State   2:      Singlet-A      6.2029 eV  199.88 nm  f=0.0007  <S**2>=0.000
      10 -> 15         0.11954
      13 -> 15         0.67824

 Excited State   3:      Singlet-A      6.6921 eV  185.27 nm  f=0.0003  <S**2>=0.000
      12 -> 14         0.69221
      13 -> 16         0.10510

 Excited State   4:      Singlet-A      6.7432 eV  183.87 nm  f=0.0024  <S**2>=0.000
      10 -> 16        -0.11240
      12 -> 14        -0.11185
      13 -> 16         0.64972
      13 -> 17        -0.16807
      13 -> 19         0.12523

 Excited State   5:      Singlet-A      7.7519 eV  159.94 nm  f=0.0060  <S**2>=0.000
      11 -> 14         0.68888
      13 -> 17        -0.12016

 Excited State   6:      Singlet-A      8.0820 eV  153.41 nm  f=0.0003  <S**2>=0.000
      10 -> 16         0.10598
      13 -> 16        -0.13137
      13 -> 17        -0.43491
      13 -> 18         0.45938
      13 -> 22         0.24432

 Excited State   7:      Singlet-A      8.2062 eV  151.09 nm  f=0.0100  <S**2>=0.000
      11 -> 14         0.11016
      13 -> 15         0.11354
      13 -> 17         0.49059
      13 -> 18         0.43048
      13 -> 19         0.11304
      13 -> 22         0.13296

 Excited State   8:      Singlet-A      8.7277 eV  142.06 nm  f=0.0352  <S**2>=0.000
       8 -> 15        -0.15098
      10 -> 14        -0.22072
      11 -> 17         0.13743
      12 -> 15         0.53490
      12 -> 16        -0.14882
      12 -> 17         0.11344
      12 -> 18        -0.20723

 Excited State   9:      Singlet-A      9.0014 eV  137.74 nm  f=0.0021  <S**2>=0.000
      10 -> 16         0.10773
      13 -> 16        -0.10763
      13 -> 18        -0.11861
      13 -> 19         0.66855

 Excited State  10:      Singlet-A      9.0511 eV  136.98 nm  f=0.0608  <S**2>=0.000
       8 -> 16        -0.10863
      10 -> 14         0.53958
      11 -> 15        -0.10378
      11 -> 17         0.11849
      11 -> 18         0.14668
      12 -> 16        -0.26381
      12 -> 18        -0.17325
      13 -> 21         0.11067

 Excited State  11:      Singlet-A      9.2210 eV  134.46 nm  f=0.0767  <S**2>=0.000
       9 -> 15         0.16112
      10 -> 14         0.26895
      11 -> 15         0.29650
      11 -> 17        -0.16190
      12 -> 15         0.38592
      12 -> 16         0.14199
      12 -> 17        -0.24723
      12 -> 18         0.12390

 Excited State  12:      Singlet-A      9.7197 eV  127.56 nm  f=0.0180  <S**2>=0.000
      13 -> 18        -0.25810
      13 -> 20         0.30408
      13 -> 22         0.54568

 Excited State  13:      Singlet-A      9.8277 eV  126.16 nm  f=0.1809  <S**2>=0.000
      11 -> 16        -0.36019
      11 -> 17         0.17689
      12 -> 16         0.47524
      12 -> 18        -0.21879
      12 -> 19         0.11971

 Excited State  14:      Singlet-A      9.8903 eV  125.36 nm  f=0.0602  <S**2>=0.000
      10 -> 15        -0.37667
      11 -> 15         0.12930
      13 -> 20         0.49901
      13 -> 22        -0.15906

 Excited State  15:      Singlet-A      9.9116 eV  125.09 nm  f=0.0749  <S**2>=0.000
       8 -> 15         0.15987
       8 -> 16        -0.10046
       9 -> 15         0.16120
       9 -> 16         0.12904
      10 -> 14        -0.21977
      10 -> 15         0.13352
      11 -> 15         0.29957
      11 -> 16        -0.19549
      11 -> 19        -0.20708
      12 -> 15        -0.11165
      12 -> 16        -0.19788
      12 -> 17        -0.15559
      12 -> 18        -0.14140
      13 -> 20        -0.16679

 The electronic state is 1-A.
 Alpha  occ. eigenvalues --   -1.94589  -1.22935  -0.99153  -0.81746  -0.80248
 Alpha  occ. eigenvalues --   -0.69376  -0.67319  -0.51803  -0.49342  -0.42236
 Alpha  occ. eigenvalues --   -0.40676  -0.37281  -0.27102
 Alpha virt. eigenvalues --    0.14541   0.18218   0.21175   0.27146   0.29130
 Alpha virt. eigenvalues --    0.31260   0.33344   0.35417   0.35761   0.44589
 Alpha virt. eigenvalues --    0.48749

 Mulliken charges:
               1
     1  C   -0.109283
     2  C   -1.887483
     3  O    3.125518
     4  C   -1.929498
     5  C   -0.101943
     6  H    0.152960
     7  H    0.305505
     8  H    0.294312
     9  H    0.149912
 Sum of Mulliken charges =   0.00000

 Dipole moment (field-independent basis, Debye):
    X=             -1.4374    Y=            -10.5625    Z=             -0.0063  Tot=             10.6599
 N-N= 1.045802382302D+02 E-N=-1.704070153996D+02  KE=-1.571026204583D+01
 Orbital energies and kinetic energies (alpha):
                                 1                 2
   1         O                -1.945889         -1.415317
   2         O                -1.229353         -1.094101
   3         O                -0.991528         -0.920967
   4         O                -0.817463         -0.655088
   5         O                -0.802475         -0.662514
   6         O                -0.693759         -0.578118
   7         O                -0.673188         -0.582557

 Normal termination of Gaussian 09 at Tue Dec 15 17:09:54 2015.
