 Gaussian 09, Revision D.01,
 Gaussian 09:  ES64L-G09RevD.01 24-Apr-2013

 ------------------------------------------------------------
 #P AM1(Input,print) CIS(Singlets,NStates=15) pop(full) force
 ------------------------------------------------------------

 -----------------
 AM1-Reparam Input
 -----------------
 Symbolic Z-matrix:
 Charge =  0 Multiplicity = 1

                         Standard orientation:
 ---------------------------------------------------------------------
 Center     Atomic      Atomic             Coordinates (Angstroms)
 Number     Number       Type             X           Y           Z
 ---------------------------------------------------------------------
      1          6           0        0.784739    0.890012    0.024979
      2          6           0        1.094651   -0.427110   -0.003319
      3          8           0       -0.098608   -1.146301   -0.008261
      4          6           0       -1.154740   -0.277523    0.017410
      5          6           0       -0.611548    1.025134   -0.026362
      6          1           0       -1.258019    1.925486   -0.014861
      7          1           0       -2.069470   -0.704131    0.026416
      8          1           0        1.965159   -1.006822   -0.021285
      9          1           0        1.472580    1.692791   -0.000433
 ---------------------------------------------------------------------

 SCF Done:  E(RAM1) =  0.181030037317E-01 A.U. after   13 cycles

 Excitation energies and oscillator strengths:

 Excited State   1:      Singlet-A      4.2855 eV  289.31 nm  f=0.1086  <S**2>=0.000
      12 -> 15         0.18677
      13 -> 14         0.67257
 This state for optimization and/or second-order correction.
 Total Energy, E(CIS) =  0.175593229889
 Copying the excited state density for this state as the 1-particle RhoCI density.

 Excited State   2:      Singlet-A      4.7427 eV  261.42 nm  f=0.0003  <S**2>=0.000
      13 -> 16         0.68998

 Excited State   3:      Singlet-A      4.9362 eV  251.17 nm  f=0.0089  <S**2>=0.000
      12 -> 14        -0.41041
      13 -> 15         0.56546

 Excited State   4:      Singlet-A      5.6934 eV  217.77 nm  f=0.0007  <S**2>=0.000
      12 -> 18         0.16881
      13 -> 17         0.26649
      13 -> 18         0.51479
      13 -> 21         0.14826
      13 -> 22         0.19906
      13 -> 23        -0.17660

 Excited State   5:      Singlet-A      5.9673 eV  207.77 nm  f=0.0012  <S**2>=0.000
       7 -> 16        -0.19519
      12 -> 16         0.65641
      12 -> 22        -0.13010

 Excited State   6:      Singlet-A      6.0494 eV  204.95 nm  f=0.0094  <S**2>=0.000
      12 -> 17        -0.15406
      12 -> 19        -0.11409
      12 -> 20         0.13918
      12 -> 23         0.11944
      13 -> 17         0.39813
      13 -> 18        -0.20041
      13 -> 19         0.26084
      13 -> 20        -0.17126
      13 -> 22        -0.18115
      13 -> 23        -0.21482

 Excited State   7:      Singlet-A      6.1046 eV  203.10 nm  f=0.3531  <S**2>=0.000
      12 -> 14         0.52773
      13 -> 15         0.39005

 Excited State   8:      Singlet-A      6.4703 eV  191.62 nm  f=0.1267  <S**2>=0.000
      12 -> 15         0.64830
      13 -> 14        -0.16337
      13 -> 19        -0.13911

 Excited State   9:      Singlet-A      6.5697 eV  188.72 nm  f=0.0136  <S**2>=0.000
      12 -> 15         0.16851
      13 -> 17        -0.26872
      13 -> 18         0.14069
      13 -> 19         0.57559

 Excited State  10:      Singlet-A      6.7887 eV  182.63 nm  f=0.0031  <S**2>=0.000
      10 -> 14         0.11296
      10 -> 15        -0.14062
      11 -> 14         0.62077
      11 -> 15         0.20649

 Excited State  11:      Singlet-A      7.2107 eV  171.94 nm  f=0.0010  <S**2>=0.000
      12 -> 17         0.35900
      12 -> 18        -0.26953
      12 -> 19        -0.27888
      12 -> 20         0.16237
      12 -> 21        -0.16580
      12 -> 23        -0.16188
      13 -> 17         0.10011
      13 -> 19         0.10183
      13 -> 20         0.17849
      13 -> 21        -0.11532
      13 -> 22        -0.17151
      13 -> 24         0.10422

 Excited State  12:      Singlet-A      7.2425 eV  171.19 nm  f=0.0011  <S**2>=0.000
      10 -> 14         0.14113
      12 -> 17         0.15240
      12 -> 19         0.42390
      12 -> 22        -0.10456
      13 -> 17         0.26730
      13 -> 18        -0.20901
      13 -> 19         0.16040
      13 -> 20         0.24812
      13 -> 22         0.14058

 Excited State  13:      Singlet-A      7.4082 eV  167.36 nm  f=0.0005  <S**2>=0.000
       9 -> 14         0.17616
       9 -> 15        -0.22182
      10 -> 14         0.52270
      10 -> 15        -0.16919
      11 -> 14        -0.13642
      11 -> 15        -0.16855
      12 -> 18         0.10348

 Excited State  14:      Singlet-A      7.6125 eV  162.87 nm  f=0.0037  <S**2>=0.000
       9 -> 15         0.14075
      12 -> 17         0.22056
      12 -> 18         0.25033
      12 -> 21        -0.17522
      12 -> 22         0.16389
      12 -> 23        -0.16497
      12 -> 24         0.10837
      13 -> 17        -0.15879
      13 -> 18        -0.25030
      13 -> 22         0.28028
      13 -> 23        -0.18635
      13 -> 24        -0.14475

 Excited State  15:      Singlet-A      7.6866 eV  161.30 nm  f=0.0001  <S**2>=0.000
      10 -> 14         0.14525
      12 -> 17        -0.18270
      12 -> 18        -0.25051
      13 -> 20        -0.17493
      13 -> 21        -0.20368
      13 -> 22         0.45154
      13 -> 23        -0.11106
      13 -> 24         0.18959

 The electronic state is 1-A.
 Alpha  occ. eigenvalues --   -1.54997  -1.23136  -1.10049  -0.82740  -0.81683
 Alpha  occ. eigenvalues --   -0.68504  -0.59419  -0.57301  -0.50992  -0.50755
 Alpha  occ. eigenvalues --   -0.49479  -0.39731  -0.34057
 Alpha virt. eigenvalues --    0.02420   0.06342   0.09535   0.14247   0.14757
 Alpha virt. eigenvalues --    0.15596   0.17732   0.18603   0.19413   0.20772
 Alpha virt. eigenvalues --    0.22091

 Mulliken charges:
               1
     1  C   -0.181554
     2  C   -0.096258
     3  O   -0.103760
     4  C   -0.093084
     5  C   -0.211088
     6  H    0.159922
     7  H    0.184904
     8  H    0.188167
     9  H    0.152751
 Sum of Mulliken charges =   0.00000

 Dipole moment (field-independent basis, Debye):
    X=              0.0114    Y=              0.3935    Z=             -0.0081  Tot=              0.3937
 N-N= 1.033152045570D+02 E-N=-1.707929788017D+02  KE=-1.654433832329D+01
 Orbital energies and kinetic energies (alpha):
                                 1                 2
   1         O                -1.549974         -1.303565
   2         O                -1.231362         -1.046885
   3         O                -1.100488         -0.963955
   4         O                -0.827398         -0.735094
   5         O                -0.816826         -0.704963
   6         O                -0.685044         -0.602544
   7         O                -0.594191         -0.482145

 Normal termination of Gaussian 09 at Tue Dec 15 16:19:42 2015.
