 Gaussian 09, Revision D.01,
 Gaussian 09:  ES64L-G09RevD.01 24-Apr-2013

 ------------------------------------------------------------
 #P AM1(Input,print) CIS(Singlets,NStates=15) pop(full) force
 ------------------------------------------------------------

 -----------------
 AM1-Reparam Input
 -----------------
 Symbolic Z-matrix:
 Charge =  0 Multiplicity = 1

                         Standard orientation:
 ---------------------------------------------------------------------
 Center     Atomic      Atomic             Coordinates (Angstroms)
 Number     Number       Type             X           Y           Z
 ---------------------------------------------------------------------
      1          6           0        0.793690    0.909031   -0.010062
      2          6           0        1.055359   -0.510029    0.011774
      3          8           0       -0.149891   -1.129275   -0.013064
      4          6           0       -1.121935   -0.230682   -0.006400
      5          6           0       -0.571771    1.008855    0.009104
      6          1           0       -1.136870    2.020088    0.001615
      7          1           0       -2.183792   -0.585309    0.049894
      8          1           0        1.969325   -1.125736    0.039170
      9          1           0        1.618412    1.662100   -0.012663
 ---------------------------------------------------------------------

 SCF Done:  E(RAM1) =   1.64921677965     A.U. after   14 cycles

 Excitation energies and oscillator strengths:

 Excited State   1:      Singlet-A      5.7550 eV  215.44 nm  f=0.3138  <S**2>=0.000
      13 -> 14         0.68924
 This state for optimization and/or second-order correction.
 Total Energy, E(CIS) =   1.86070969971
 Copying the excited state density for this state as the 1-particle RhoCI density.

 Excited State   2:      Singlet-A      6.6095 eV  187.58 nm  f=0.0064  <S**2>=0.000
      11 -> 15         0.10713
      13 -> 15         0.60889
      13 -> 16         0.19395
      13 -> 17        -0.24223

 Excited State   3:      Singlet-A      7.0205 eV  176.60 nm  f=0.0021  <S**2>=0.000
      11 -> 15        -0.13368
      13 -> 15        -0.22451
      13 -> 16         0.57991
      13 -> 17        -0.17539
      13 -> 20         0.14186
      13 -> 21        -0.13739

 Excited State   4:      Singlet-A      7.3435 eV  168.83 nm  f=0.0012  <S**2>=0.000
      11 -> 14        -0.11181
      12 -> 14         0.66426
      13 -> 21        -0.14485

 Excited State   5:      Singlet-A      7.8433 eV  158.08 nm  f=0.0066  <S**2>=0.000
      10 -> 14        -0.26266
      11 -> 16        -0.14288
      12 -> 14         0.11893
      13 -> 15         0.10256
      13 -> 16         0.17481
      13 -> 17         0.39740
      13 -> 18        -0.15566
      13 -> 19        -0.20077
      13 -> 21         0.35107

 Excited State   6:      Singlet-A      8.0224 eV  154.55 nm  f=0.0089  <S**2>=0.000
      12 -> 14         0.13491
      13 -> 15        -0.12485
      13 -> 17        -0.42914
      13 -> 18        -0.10475
      13 -> 19        -0.10116
      13 -> 21         0.47829

 Excited State   7:      Singlet-A      8.0821 eV  153.41 nm  f=0.0008  <S**2>=0.000
      10 -> 14         0.63996
      13 -> 17         0.20859
      13 -> 21         0.15684

 Excited State   8:      Singlet-A      8.5357 eV  145.25 nm  f=0.0056  <S**2>=0.000
      11 -> 15        -0.10678
      13 -> 18         0.64564
      13 -> 20        -0.10854
      13 -> 21         0.17315

 Excited State   9:      Singlet-A      8.6376 eV  143.54 nm  f=0.0873  <S**2>=0.000
      11 -> 14         0.67685
      12 -> 14         0.11480

 Excited State  10:      Singlet-A      8.7497 eV  141.70 nm  f=0.0057  <S**2>=0.000
      11 -> 16         0.11182
      13 -> 16        -0.12501
      13 -> 18         0.14636
      13 -> 19        -0.39298
      13 -> 20         0.52324

 Excited State  11:      Singlet-A      9.1658 eV  135.27 nm  f=0.0873  <S**2>=0.000
      13 -> 19         0.51319
      13 -> 20         0.41076
      13 -> 21         0.18940

 Excited State  12:      Singlet-A      9.3902 eV  132.04 nm  f=0.1178  <S**2>=0.000
       8 -> 15        -0.11647
      10 -> 15        -0.27394
      10 -> 16        -0.12004
      10 -> 17         0.28742
      10 -> 21        -0.12254
      12 -> 16         0.25721
      12 -> 17        -0.27181
      12 -> 18        -0.14717
      12 -> 21        -0.17411
      13 -> 14        -0.11643

 Excited State  13:      Singlet-A      9.5295 eV  130.11 nm  f=0.0024  <S**2>=0.000
      11 -> 15         0.55687
      11 -> 16         0.21924
      11 -> 17        -0.17089
      12 -> 15         0.12185
      13 -> 15        -0.13643
      13 -> 16         0.17030

 Excited State  14:      Singlet-A      9.6896 eV  127.96 nm  f=0.1100  <S**2>=0.000
      11 -> 15        -0.14297
      12 -> 15         0.57628
      12 -> 18         0.23414
      12 -> 19        -0.16541

 Excited State  15:      Singlet-A     10.0125 eV  123.83 nm  f=0.0228  <S**2>=0.000
       7 -> 15         0.10374
      11 -> 15        -0.21523
      11 -> 16         0.49491
      12 -> 15        -0.12806
      12 -> 16         0.20637
      12 -> 17         0.11055
      12 -> 19        -0.11081
      13 -> 15         0.13101
      13 -> 16         0.12618
      13 -> 17         0.10370

 The electronic state is 1-A.
 Alpha  occ. eigenvalues --   -1.91650  -1.22025  -0.98096  -0.81392  -0.79994
 Alpha  occ. eigenvalues --   -0.67846  -0.63731  -0.54970  -0.51846  -0.43502
 Alpha  occ. eigenvalues --   -0.41925  -0.41614  -0.30085
 Alpha virt. eigenvalues --    0.12605   0.17023   0.19164   0.22929   0.25029
 Alpha virt. eigenvalues --    0.26939   0.27707   0.29106   0.38571   0.46916
 Alpha virt. eigenvalues --    0.52606

 Mulliken charges:
               1
     1  C   -0.110300
     2  C   -1.997693
     3  O    3.193600
     4  C   -1.967541
     5  C   -0.107174
     6  H    0.176869
     7  H    0.319724
     8  H    0.308308
     9  H    0.184207
 Sum of Mulliken charges =   0.00000

 Dipole moment (field-independent basis, Debye):
    X=             -1.7185    Y=             -9.2459    Z=             -0.0527  Tot=              9.4044
 N-N= 1.037486839057D+02 E-N=-1.691243733589D+02  KE=-1.570102743196D+01
 Orbital energies and kinetic energies (alpha):
                                 1                 2
   1         O                -1.916497         -1.398475
   2         O                -1.220251         -1.092112
   3         O                -0.980962         -0.886600
   4         O                -0.813921         -0.631762
   5         O                -0.799935         -0.697596
   6         O                -0.678460         -0.590975
   7         O                -0.637313         -0.514634

 Normal termination of Gaussian 09 at Tue Dec 15 17:06:52 2015.
