 Gaussian 09, Revision D.01,
 Gaussian 09:  ES64L-G09RevD.01 24-Apr-2013

 ------------------------------------------------------------
 #P AM1(Input,print) CIS(Singlets,NStates=15) pop(full) force
 ------------------------------------------------------------

 -----------------
 AM1-Reparam Input
 -----------------
 Symbolic Z-matrix:
 Charge =  0 Multiplicity = 1

                         Standard orientation:
 ---------------------------------------------------------------------
 Center     Atomic      Atomic             Coordinates (Angstroms)
 Number     Number       Type             X           Y           Z
 ---------------------------------------------------------------------
      1          6           0        0.840675    0.877418   -0.029393
      2          6           0        1.038816   -0.456998    0.034124
      3          8           0       -0.116515   -1.147392   -0.019207
      4          6           0       -1.156456   -0.208652   -0.009037
      5          6           0       -0.596202    1.016042    0.020733
      6          1           0       -1.148709    1.900270    0.001793
      7          1           0       -2.129475   -0.596731    0.043148
      8          1           0        1.885026   -1.071493    0.022402
      9          1           0        1.564279    1.580225   -0.012250
 ---------------------------------------------------------------------

 SCF Done:  E(RAM1) =   2.56308821427     A.U. after   14 cycles

 Excitation energies and oscillator strengths:

 Excited State   1:      Singlet-A      5.2522 eV  236.06 nm  f=0.3478  <S**2>=0.000
      13 -> 14         0.69534
 This state for optimization and/or second-order correction.
 Total Energy, E(CIS) =   2.75610414305
 Copying the excited state density for this state as the 1-particle RhoCI density.

 Excited State   2:      Singlet-A      6.2280 eV  199.07 nm  f=0.0019  <S**2>=0.000
      11 -> 15         0.10797
      13 -> 15         0.66568
      13 -> 17         0.16878

 Excited State   3:      Singlet-A      6.7040 eV  184.94 nm  f=0.0023  <S**2>=0.000
      11 -> 16        -0.10843
      13 -> 16         0.65325
      13 -> 17         0.10833
      13 -> 18         0.16521

 Excited State   4:      Singlet-A      6.8363 eV  181.36 nm  f=0.0006  <S**2>=0.000
       9 -> 14        -0.11195
      12 -> 14         0.69217

 Excited State   5:      Singlet-A      7.8040 eV  158.87 nm  f=0.0028  <S**2>=0.000
      10 -> 14        -0.16104
      13 -> 15         0.12121
      13 -> 17        -0.33233
      13 -> 18         0.50528
      13 -> 19        -0.10613
      13 -> 20         0.12976
      13 -> 21        -0.22203

 Excited State   6:      Singlet-A      7.9347 eV  156.26 nm  f=0.0055  <S**2>=0.000
      10 -> 14         0.65745
      11 -> 14        -0.13495
      13 -> 18         0.18016

 Excited State   7:      Singlet-A      8.3073 eV  149.25 nm  f=0.0132  <S**2>=0.000
      10 -> 14        -0.12141
      11 -> 16         0.10642
      13 -> 15        -0.10785
      13 -> 16        -0.12631
      13 -> 17         0.57245
      13 -> 18         0.27564
      13 -> 19        -0.13937

 Excited State   8:      Singlet-A      8.7954 eV  140.96 nm  f=0.0942  <S**2>=0.000
      10 -> 14         0.14070
      11 -> 14         0.66216

 Excited State   9:      Singlet-A      8.8741 eV  139.72 nm  f=0.0035  <S**2>=0.000
      11 -> 14         0.10219
      13 -> 16        -0.11872
      13 -> 18         0.11582
      13 -> 19         0.65457

 Excited State  10:      Singlet-A      9.3999 eV  131.90 nm  f=0.0321  <S**2>=0.000
       8 -> 15         0.13505
       9 -> 15        -0.10033
      10 -> 16         0.14386
      10 -> 17         0.16544
      10 -> 18         0.10292
      12 -> 15         0.49620
      12 -> 16        -0.16816
      12 -> 17         0.15287
      12 -> 18        -0.24630

 Excited State  11:      Singlet-A      9.6435 eV  128.57 nm  f=0.0006  <S**2>=0.000
      13 -> 18         0.28535
      13 -> 20        -0.32168
      13 -> 21         0.54101

 Excited State  12:      Singlet-A      9.8481 eV  125.90 nm  f=0.1313  <S**2>=0.000
       9 -> 15        -0.13364
      10 -> 15         0.35960
      10 -> 16         0.15073
      10 -> 17         0.21483
      11 -> 15        -0.11225
      12 -> 15        -0.35503
      12 -> 18        -0.21729
      12 -> 19         0.16101

 Excited State  13:      Singlet-A      9.9020 eV  125.21 nm  f=0.0991  <S**2>=0.000
       9 -> 16         0.10861
      10 -> 16         0.17898
      12 -> 15         0.10470
      12 -> 16         0.60713
      12 -> 17         0.15856
      12 -> 19         0.10304

 Excited State  14:      Singlet-A     10.0183 eV  123.76 nm  f=0.0870  <S**2>=0.000
       9 -> 14        -0.13286
      11 -> 15         0.29553
      13 -> 20         0.48823
      13 -> 21         0.35406

 Excited State  15:      Singlet-A     10.0463 eV  123.41 nm  f=0.0099  <S**2>=0.000
       9 -> 14         0.65378
      12 -> 14         0.10286
      13 -> 20         0.19830

 The electronic state is 1-A.
 Alpha  occ. eigenvalues --   -1.73812  -1.16203  -0.96618  -0.81766  -0.76842
 Alpha  occ. eigenvalues --   -0.68088  -0.64394  -0.55539  -0.50387  -0.44527
 Alpha  occ. eigenvalues --   -0.44105  -0.40780  -0.28526
 Alpha virt. eigenvalues --    0.11214   0.17338   0.19436   0.25859   0.28082
 Alpha virt. eigenvalues --    0.29093   0.32119   0.32488   0.38442   0.47666
 Alpha virt. eigenvalues --    0.52206

 Mulliken charges:
               1
     1  C   -0.097563
     2  C   -1.917526
     3  O    3.229060
     4  C   -1.905187
     5  C   -0.046768
     6  H    0.117847
     7  H    0.248171
     8  H    0.250674
     9  H    0.121293
 Sum of Mulliken charges =   0.00000

 Dipole moment (field-independent basis, Debye):
    X=             -0.8458    Y=            -10.8278    Z=             -0.3476  Tot=             10.8664
 N-N= 1.039583499574D+02 E-N=-1.688786986492D+02  KE=-1.508009771857D+01
 Orbital energies and kinetic energies (alpha):
                                 1                 2
   1         O                -1.738116         -1.228711
   2         O                -1.162032         -1.016986
   3         O                -0.966177         -0.881109
   4         O                -0.817659         -0.624537
   5         O                -0.768417         -0.689162
   6         O                -0.680881         -0.571202
   7         O                -0.643937         -0.520636

 Normal termination of Gaussian 09 at Tue Dec 15 17:06:25 2015.
