 Gaussian 09, Revision D.01,
 Gaussian 09:  ES64L-G09RevD.01 24-Apr-2013

 ------------------------------------------------------------
 #P AM1(Input,print) CIS(Singlets,NStates=15) pop(full) force
 ------------------------------------------------------------

 -----------------
 AM1-Reparam Input
 -----------------
 Symbolic Z-matrix:
 Charge =  0 Multiplicity = 1

                         Standard orientation:
 ---------------------------------------------------------------------
 Center     Atomic      Atomic             Coordinates (Angstroms)
 Number     Number       Type             X           Y           Z
 ---------------------------------------------------------------------
      1          6           0       -0.520978    1.102256   -0.031309
      2          6           0       -1.158001   -0.172240   -0.009191
      3          8           0       -0.207656   -1.147392    0.007263
      4          6           0        1.042012   -0.528583   -0.022241
      5          6           0        0.868888    0.809823    0.035096
      6          1           0        1.608042    1.564539    0.007360
      7          1           0        1.895582   -1.141840   -0.003126
      8          1           0       -2.203763   -0.517997    0.079096
      9          1           0       -1.030141    2.006900    0.024441
 ---------------------------------------------------------------------

 SCF Done:  E(RAM1) =   1.11120614159     A.U. after   14 cycles

 Excitation energies and oscillator strengths:

 Excited State   1:      Singlet-A      5.6020 eV  221.32 nm  f=0.1995  <S**2>=0.000
      12 -> 15        -0.15582
      13 -> 14         0.67659
 This state for optimization and/or second-order correction.
 Total Energy, E(CIS) =   1.31707484740
 Copying the excited state density for this state as the 1-particle RhoCI density.

 Excited State   2:      Singlet-A      6.5375 eV  189.65 nm  f=0.0034  <S**2>=0.000
      13 -> 16         0.66952
      13 -> 17         0.10186
      13 -> 19         0.12772

 Excited State   3:      Singlet-A      6.8741 eV  180.37 nm  f=0.0067  <S**2>=0.000
      12 -> 14         0.40863
      13 -> 15         0.55190

 Excited State   4:      Singlet-A      7.1589 eV  173.19 nm  f=0.0003  <S**2>=0.000
      12 -> 14        -0.10359
      13 -> 17         0.63788
      13 -> 18        -0.16819
      13 -> 21         0.14485

 Excited State   5:      Singlet-A      7.3982 eV  167.59 nm  f=0.0068  <S**2>=0.000
       9 -> 14         0.16085
      11 -> 14         0.65926
      13 -> 15        -0.11085

 Excited State   6:      Singlet-A      7.9216 eV  156.51 nm  f=0.1698  <S**2>=0.000
      10 -> 14        -0.34997
      11 -> 14        -0.16089
      11 -> 15         0.11050
      12 -> 14         0.45364
      13 -> 15        -0.30927

 Excited State   7:      Singlet-A      7.9334 eV  156.28 nm  f=0.0799  <S**2>=0.000
      10 -> 14         0.56218
      11 -> 15        -0.11362
      12 -> 14         0.30244
      13 -> 15        -0.21664

 Excited State   8:      Singlet-A      8.2422 eV  150.43 nm  f=0.0001  <S**2>=0.000
      12 -> 16         0.47524
      13 -> 18         0.41713
      13 -> 19        -0.21081
      13 -> 24        -0.13846

 Excited State   9:      Singlet-A      8.4933 eV  145.98 nm  f=0.0077  <S**2>=0.000
      12 -> 15        -0.15732
      12 -> 16         0.45330
      13 -> 17        -0.16141
      13 -> 18        -0.34018
      13 -> 19         0.27680
      13 -> 24         0.11409

 Excited State  10:      Singlet-A      8.5291 eV  145.37 nm  f=0.0253  <S**2>=0.000
       9 -> 15        -0.24544
      10 -> 14         0.18114
      10 -> 15         0.15715
      11 -> 15         0.57714
      12 -> 15         0.13801

 Excited State  11:      Singlet-A      8.6033 eV  144.11 nm  f=0.2216  <S**2>=0.000
      11 -> 15        -0.11160
      12 -> 15         0.60214
      12 -> 16         0.13737
      13 -> 14         0.13754
      13 -> 20        -0.14617

 Excited State  12:      Singlet-A      8.6452 eV  143.41 nm  f=0.0160  <S**2>=0.000
      12 -> 15         0.14693
      13 -> 19         0.24506
      13 -> 20         0.60689
      13 -> 22         0.11229

 Excited State  13:      Singlet-A      9.0368 eV  137.20 nm  f=0.0112  <S**2>=0.000
       7 -> 16        -0.10253
      12 -> 17         0.58265
      13 -> 18        -0.20248
      13 -> 19        -0.20293
      13 -> 20         0.19221

 Excited State  14:      Singlet-A      9.3769 eV  132.22 nm  f=0.0321  <S**2>=0.000
       9 -> 16        -0.25624
      10 -> 16         0.32259
      10 -> 17        -0.11554
      11 -> 16         0.45228
      11 -> 17         0.17309
      11 -> 19         0.14019

 Excited State  15:      Singlet-A      9.4884 eV  130.67 nm  f=0.0005  <S**2>=0.000
       9 -> 14         0.62649
      10 -> 15         0.10858
      11 -> 14        -0.16077
      13 -> 21         0.14933

 The electronic state is 1-A.
 Alpha  occ. eigenvalues --   -1.80977  -1.18499  -0.97736  -0.87033  -0.81079
 Alpha  occ. eigenvalues --   -0.73871  -0.70355  -0.61015  -0.56135  -0.52318
 Alpha  occ. eigenvalues --   -0.50296  -0.46838  -0.38741
 Alpha virt. eigenvalues --    0.03322   0.08889   0.09844   0.11894   0.18172
 Alpha virt. eigenvalues --    0.19047   0.19778   0.21698   0.26689   0.26795
 Alpha virt. eigenvalues --    0.27256

 Mulliken charges:
               1
     1  C   -0.133658
     2  C   -1.260620
     3  O    2.141636
     4  C   -1.254543
     5  C   -0.100572
     6  H    0.108261
     7  H    0.194405
     8  H    0.201019
     9  H    0.104071
 Sum of Mulliken charges =   0.00000

 Dipole moment (field-independent basis, Debye):
    X=             -1.3091    Y=             -7.0653    Z=              0.3674  Tot=              7.1950
 N-N= 1.038734476071D+02 E-N=-1.702913436949D+02  KE=-1.493525095582D+01
 Orbital energies and kinetic energies (alpha):
                                 1                 2
   1         O                -1.809774         -1.218883
   2         O                -1.184990         -0.970920
   3         O                -0.977361         -0.805604
   4         O                -0.870325         -0.632637
   5         O                -0.810789         -0.665505
   6         O                -0.738713         -0.608081
   7         O                -0.703548         -0.506573

 Normal termination of Gaussian 09 at Tue Dec 15 17:05:30 2015.
