 Gaussian 09, Revision D.01,
 Gaussian 09:  ES64L-G09RevD.01 24-Apr-2013

 ------------------------------------------------------------
 #P AM1(Input,print) CIS(Singlets,NStates=15) pop(full) force
 ------------------------------------------------------------

 -----------------
 AM1-Reparam Input
 -----------------
 Symbolic Z-matrix:
 Charge =  0 Multiplicity = 1

                         Standard orientation:
 ---------------------------------------------------------------------
 Center     Atomic      Atomic             Coordinates (Angstroms)
 Number     Number       Type             X           Y           Z
 ---------------------------------------------------------------------
      1          6           0        0.906798    0.776835   -0.013504
      2          6           0        1.034385   -0.574751    0.020855
      3          8           0       -0.305036   -1.109669   -0.002194
      4          6           0       -1.147473   -0.105361   -0.002074
      5          6           0       -0.458687    1.060529   -0.015200
      6          1           0       -0.909003    2.133576    0.071905
      7          1           0       -2.221451   -0.316488    0.014679
      8          1           0        1.834847   -1.276483   -0.028184
      9          1           0        1.725766    1.393239    0.018693
 ---------------------------------------------------------------------

 SCF Done:  E(RAM1) =  -6.07385497197     A.U. after   14 cycles

 Excitation energies and oscillator strengths:

 Excited State   1:      Singlet-A      6.4205 eV  193.11 nm  f=0.0019  <S**2>=0.000
      13 -> 14         0.11774
      13 -> 15         0.60517
      13 -> 16         0.33425
 This state for optimization and/or second-order correction.
 Total Energy, E(CIS) =  -5.83790722885
 Copying the excited state density for this state as the 1-particle RhoCI density.

 Excited State   2:      Singlet-A      7.2087 eV  171.99 nm  f=0.2336  <S**2>=0.000
      10 -> 16        -0.10888
      13 -> 14         0.67018
      13 -> 15        -0.11145

 Excited State   3:      Singlet-A      7.4959 eV  165.40 nm  f=0.1529  <S**2>=0.000
      10 -> 14         0.14165
      13 -> 15        -0.32685
      13 -> 16         0.59807

 Excited State   4:      Singlet-A      8.5656 eV  144.75 nm  f=0.0053  <S**2>=0.000
      11 -> 14         0.13746
      12 -> 14         0.66192
      12 -> 16        -0.16731

 Excited State   5:      Singlet-A      8.9889 eV  137.93 nm  f=0.0031  <S**2>=0.000
      10 -> 14        -0.15503
      11 -> 14         0.61118
      12 -> 14        -0.12873
      13 -> 17         0.24008

 Excited State   6:      Singlet-A      9.0859 eV  136.46 nm  f=0.0007  <S**2>=0.000
      10 -> 15        -0.10965
      11 -> 14        -0.25154
      13 -> 17         0.62051
      13 -> 22        -0.10335

 Excited State   7:      Singlet-A      9.6495 eV  128.49 nm  f=0.0018  <S**2>=0.000
      10 -> 14         0.10432
      10 -> 15         0.55232
      10 -> 16         0.29540
      11 -> 15         0.17815
      12 -> 15        -0.12694
      13 -> 17         0.10750
      13 -> 20         0.12576

 Excited State   8:      Singlet-A     10.0231 eV  123.70 nm  f=0.0317  <S**2>=0.000
      10 -> 14        -0.11588
      10 -> 16         0.11450
      11 -> 15         0.14501
      12 -> 15         0.61286
      12 -> 16         0.19788

 Excited State   9:      Singlet-A     10.1516 eV  122.13 nm  f=0.0039  <S**2>=0.000
      11 -> 15        -0.10937
      11 -> 16         0.20529
      12 -> 14         0.15815
      12 -> 15        -0.19553
      12 -> 16         0.60001

 Excited State  10:      Singlet-A     10.3730 eV  119.53 nm  f=0.0057  <S**2>=0.000
      10 -> 16         0.10783
      13 -> 18         0.63216
      13 -> 19        -0.19429

 Excited State  11:      Singlet-A     10.4244 eV  118.94 nm  f=0.1726  <S**2>=0.000
       8 -> 15         0.10643
      10 -> 14        -0.35810
      10 -> 16        -0.30108
      11 -> 15         0.42604
      11 -> 16         0.10405

 Excited State  12:      Singlet-A     10.5378 eV  117.66 nm  f=0.0655  <S**2>=0.000
      10 -> 14        -0.16721
      10 -> 15        -0.32163
      10 -> 16         0.41281
      11 -> 15         0.12581
      11 -> 16         0.34342
      12 -> 15        -0.11874

 Excited State  13:      Singlet-A     10.8428 eV  114.35 nm  f=0.1835  <S**2>=0.000
      10 -> 14         0.41393
      10 -> 15        -0.20133
      11 -> 14         0.10846
      11 -> 15         0.42022
      11 -> 16        -0.16085
      12 -> 16         0.11247
      13 -> 16        -0.10067

 Excited State  14:      Singlet-A     10.9221 eV  113.52 nm  f=0.0985  <S**2>=0.000
      10 -> 14         0.26780
      10 -> 16        -0.24965
      11 -> 14         0.12852
      11 -> 16         0.49832
      12 -> 15         0.12032
      12 -> 16        -0.15169

 Excited State  15:      Singlet-A     11.1207 eV  111.49 nm  f=0.0035  <S**2>=0.000
      11 -> 16        -0.10081
      13 -> 20         0.51376
      13 -> 21         0.39707
      13 -> 22         0.14396
      13 -> 23        -0.15815

 The electronic state is 1-A.
 Alpha  occ. eigenvalues --   -4.10077  -1.32525  -0.96936  -0.95753  -0.89027
 Alpha  occ. eigenvalues --   -0.87895  -0.78118  -0.63420  -0.62227  -0.52085
 Alpha  occ. eigenvalues --   -0.51339  -0.49541  -0.38477
 Alpha virt. eigenvalues --    0.10336   0.10918   0.11286   0.19658   0.24933
 Alpha virt. eigenvalues --    0.26945   0.28613   0.30168   0.33619   0.35650
 Alpha virt. eigenvalues --    0.37030

 Mulliken charges:
               1
     1  C   -0.118493
     2  C   -1.360512
     3  O    2.500965
     4  C   -1.392548
     5  C   -0.238217
     6  H    0.135473
     7  H    0.196245
     8  H    0.162906
     9  H    0.114181
 Sum of Mulliken charges =   0.00000

 Dipole moment (field-independent basis, Debye):
    X=             -2.7877    Y=             -8.3634    Z=             -0.0716  Tot=              8.8161
 N-N= 1.049147026195D+02 E-N=-1.718791557409D+02  KE=-2.394955328359D+01
 Orbital energies and kinetic energies (alpha):
                                 1                 2
   1         O                -4.100774         -3.451159
   2         O                -1.325247         -1.238829
   3         O                -0.969360         -0.973610
   4         O                -0.957533         -0.901684
   5         O                -0.890269         -0.822510
   6         O                -0.878951         -0.816872
   7         O                -0.781179         -0.743381

 Normal termination of Gaussian 09 at Fri Dec 11 13:41:17 2015.
