 Gaussian 09, Revision D.01,
 Gaussian 09:  ES64L-G09RevD.01 24-Apr-2013

 ------------------------------------------------------------
 #P AM1(Input,print) CIS(Singlets,NStates=15) pop(full) force
 ------------------------------------------------------------

 -----------------
 AM1-Reparam Input
 -----------------
 Symbolic Z-matrix:
 Charge =  0 Multiplicity = 1

                         Standard orientation:
 ---------------------------------------------------------------------
 Center     Atomic      Atomic             Coordinates (Angstroms)
 Number     Number       Type             X           Y           Z
 ---------------------------------------------------------------------
      1          6           0       -0.600845    1.011082   -0.011114
      2          6           0       -1.134477   -0.269980   -0.037861
      3          8           0       -0.093479   -1.155839    0.034801
      4          6           0        1.096304   -0.450574   -0.034439
      5          6           0        0.759577    0.910126    0.013513
      6          1           0        1.468851    1.740545    0.047492
      7          1           0        1.958711   -0.939815   -0.005863
      8          1           0       -2.157857   -0.646201    0.045303
      9          1           0       -1.245235    1.888258    0.054067
 ---------------------------------------------------------------------

 SCF Done:  E(RAM1) =   2.08972584844     A.U. after   13 cycles

 Excitation energies and oscillator strengths:

 Excited State   1:      Singlet-A      5.8509 eV  211.91 nm  f=0.3191  <S**2>=0.000
      13 -> 14         0.69042
 This state for optimization and/or second-order correction.
 Total Energy, E(CIS) =   2.30474114030
 Copying the excited state density for this state as the 1-particle RhoCI density.

 Excited State   2:      Singlet-A      6.9252 eV  179.03 nm  f=0.0044  <S**2>=0.000
      13 -> 15         0.64534
      13 -> 16         0.17444
      13 -> 17        -0.15530

 Excited State   3:      Singlet-A      7.4105 eV  167.31 nm  f=0.0021  <S**2>=0.000
      13 -> 15        -0.15845
      13 -> 16         0.64098
      13 -> 19         0.14906

 Excited State   4:      Singlet-A      7.6203 eV  162.70 nm  f=0.0005  <S**2>=0.000
      12 -> 14         0.68952

 Excited State   5:      Singlet-A      7.9421 eV  156.11 nm  f=0.0051  <S**2>=0.000
      10 -> 14        -0.40970
      11 -> 14         0.56685

 Excited State   6:      Singlet-A      8.6485 eV  143.36 nm  f=0.0007  <S**2>=0.000
      13 -> 17        -0.22619
      13 -> 18         0.52289
      13 -> 22        -0.38181

 Excited State   7:      Singlet-A      8.8390 eV  140.27 nm  f=0.0067  <S**2>=0.000
      10 -> 16        -0.12492
      11 -> 16        -0.10196
      13 -> 15         0.10063
      13 -> 17         0.61890
      13 -> 18         0.21219
      13 -> 22        -0.11429

 Excited State   8:      Singlet-A      8.9996 eV  137.77 nm  f=0.0953  <S**2>=0.000
      10 -> 14         0.55124
      11 -> 14         0.39757
      13 -> 21        -0.10246

 Excited State   9:      Singlet-A      9.6145 eV  128.96 nm  f=0.0008  <S**2>=0.000
      10 -> 15         0.11972
      11 -> 15         0.12584
      13 -> 18         0.26571
      13 -> 19         0.52845
      13 -> 22         0.27340

 Excited State  10:      Singlet-A      9.8351 eV  126.06 nm  f=0.1135  <S**2>=0.000
      10 -> 15        -0.24071
      10 -> 16        -0.14238
      10 -> 17         0.18299
      11 -> 15         0.31675
      11 -> 16         0.18627
      11 -> 17        -0.24728
      12 -> 16         0.12815
      12 -> 18        -0.26921
      12 -> 22         0.10405
      13 -> 14         0.11582

 Excited State  11:      Singlet-A      9.9467 eV  124.65 nm  f=0.0014  <S**2>=0.000
      13 -> 18         0.31574
      13 -> 19        -0.36837
      13 -> 22         0.49211

 Excited State  12:      Singlet-A     10.2173 eV  121.35 nm  f=0.0801  <S**2>=0.000
      10 -> 15        -0.17006
      11 -> 15        -0.22950
      11 -> 16         0.16290
      12 -> 15        -0.11518
      13 -> 20         0.57709

 Excited State  13:      Singlet-A     10.2471 eV  120.99 nm  f=0.0679  <S**2>=0.000
      10 -> 16         0.15718
      11 -> 15         0.38336
      12 -> 15         0.41054
      13 -> 19        -0.11253
      13 -> 20         0.26740

 Excited State  14:      Singlet-A     10.2844 eV  120.56 nm  f=0.0103  <S**2>=0.000
      10 -> 15         0.40787
      11 -> 15         0.16945
      11 -> 16         0.15938
      12 -> 15        -0.38330
      12 -> 16        -0.11726
      13 -> 15        -0.12679
      13 -> 16         0.12990
      13 -> 19        -0.15368

 Excited State  15:      Singlet-A     10.5666 eV  117.34 nm  f=0.1233  <S**2>=0.000
      10 -> 15         0.17588
      10 -> 16         0.16580
      11 -> 16        -0.15648
      12 -> 16         0.57067
      12 -> 19         0.11267
      13 -> 21         0.10288

 The electronic state is 1-A.
 Alpha  occ. eigenvalues --   -1.93018  -1.19693  -0.92937  -0.80184  -0.79450
 Alpha  occ. eigenvalues --   -0.69636  -0.65381  -0.56253  -0.54472  -0.44314
 Alpha  occ. eigenvalues --   -0.43767  -0.43151  -0.31136
 Alpha virt. eigenvalues --    0.11832   0.17958   0.20262   0.25048   0.26837
 Alpha virt. eigenvalues --    0.29552   0.30187   0.31491   0.31969   0.39408
 Alpha virt. eigenvalues --    0.44089

 Mulliken charges:
               1
     1  C   -0.134957
     2  C   -1.920149
     3  O    3.230239
     4  C   -1.916542
     5  C   -0.121165
     6  H    0.161971
     7  H    0.262057
     8  H    0.275603
     9  H    0.162943
 Sum of Mulliken charges =   0.00000

 Dipole moment (field-independent basis, Debye):
    X=             -1.2203    Y=            -10.1595    Z=              1.2447  Tot=             10.3080
 N-N= 1.039223657432D+02 E-N=-1.688682592669D+02  KE=-1.532920436471D+01
 Orbital energies and kinetic energies (alpha):
                                 1                 2
   1         O                -1.930181         -1.349847
   2         O                -1.196925         -1.051419
   3         O                -0.929371         -0.880080
   4         O                -0.801844         -0.599931
   5         O                -0.794495         -0.657948
   6         O                -0.696361         -0.602991
   7         O                -0.653805         -0.529017

 Normal termination of Gaussian 09 at Tue Dec 15 17:08:38 2015.
