 Gaussian 09, Revision D.01,
 Gaussian 09:  ES64L-G09RevD.01 24-Apr-2013

 ------------------------------------------------------------
 #P AM1(Input,print) CIS(Singlets,NStates=15) pop(full) force
 ------------------------------------------------------------

 -----------------
 AM1-Reparam Input
 -----------------
 Symbolic Z-matrix:
 Charge =  0 Multiplicity = 1

                         Standard orientation:
 ---------------------------------------------------------------------
 Center     Atomic      Atomic             Coordinates (Angstroms)
 Number     Number       Type             X           Y           Z
 ---------------------------------------------------------------------
      1          6           0        0.959612    0.811778    0.014553
      2          6           0        0.988970   -0.599361   -0.004518
      3          8           0       -0.284980   -1.155866    0.008552
      4          6           0       -1.119805   -0.053989   -0.024754
      5          6           0       -0.525720    1.073199    0.000333
      6          1           0       -0.919785    2.022008   -0.017033
      7          1           0       -2.191863   -0.412602    0.069901
      8          1           0        1.864087   -1.278295   -0.035103
      9          1           0        1.709057    1.526061    0.000133
 ---------------------------------------------------------------------

 SCF Done:  E(RAM1) =   1.43720709279     A.U. after   13 cycles

 Excitation energies and oscillator strengths:

 Excited State   1:      Singlet-A      5.4405 eV  227.89 nm  f=0.0486  <S**2>=0.000
      13 -> 14        -0.33126
      13 -> 15         0.60160
 This state for optimization and/or second-order correction.
 Total Energy, E(CIS) =   1.63714040676
 Copying the excited state density for this state as the 1-particle RhoCI density.

 Excited State   2:      Singlet-A      5.6031 eV  221.28 nm  f=0.2652  <S**2>=0.000
      13 -> 14         0.60742
      13 -> 15         0.32678

 Excited State   3:      Singlet-A      6.0780 eV  203.99 nm  f=0.0012  <S**2>=0.000
      11 -> 16        -0.10418
      13 -> 16         0.65694
      13 -> 18        -0.16028
      13 -> 20         0.10855

 Excited State   4:      Singlet-A      7.0063 eV  176.96 nm  f=0.0003  <S**2>=0.000
      11 -> 14         0.23526
      12 -> 14         0.65324

 Excited State   5:      Singlet-A      7.5005 eV  165.30 nm  f=0.0015  <S**2>=0.000
      11 -> 16        -0.10199
      13 -> 16         0.16539
      13 -> 18         0.43320
      13 -> 19        -0.25620
      13 -> 21        -0.31634
      13 -> 22         0.29480

 Excited State   6:      Singlet-A      7.6838 eV  161.36 nm  f=0.0091  <S**2>=0.000
      13 -> 18         0.50450
      13 -> 19         0.36784
      13 -> 21         0.23978
      13 -> 22        -0.16789

 Excited State   7:      Singlet-A      7.9574 eV  155.81 nm  f=0.0075  <S**2>=0.000
      11 -> 14         0.39167
      12 -> 14        -0.13765
      13 -> 17         0.55370

 Excited State   8:      Singlet-A      8.4601 eV  146.55 nm  f=0.0044  <S**2>=0.000
      10 -> 14        -0.12093
      13 -> 19         0.10867
      13 -> 20         0.55246
      13 -> 22         0.37403

 Excited State   9:      Singlet-A      8.5138 eV  145.63 nm  f=0.0031  <S**2>=0.000
      10 -> 14        -0.24646
      11 -> 15        -0.10536
      13 -> 18        -0.13404
      13 -> 19         0.46574
      13 -> 20        -0.16445
      13 -> 21        -0.37327
      13 -> 22         0.10035

 Excited State  10:      Singlet-A      8.6640 eV  143.10 nm  f=0.0029  <S**2>=0.000
      10 -> 14         0.62454
      13 -> 19         0.23029
      13 -> 22         0.19422

 Excited State  11:      Singlet-A      8.7232 eV  142.13 nm  f=0.1069  <S**2>=0.000
       8 -> 15         0.10404
       9 -> 15        -0.10857
      11 -> 14         0.29205
      12 -> 14        -0.15543
      12 -> 15         0.46335
      13 -> 17        -0.29485

 Excited State  12:      Singlet-A      8.8920 eV  139.43 nm  f=0.0438  <S**2>=0.000
      11 -> 14         0.10841
      11 -> 15         0.49641
      13 -> 17        -0.12388
      13 -> 20        -0.22870
      13 -> 21         0.14481
      13 -> 22         0.30529
      13 -> 23        -0.10130

 Excited State  13:      Singlet-A      8.9668 eV  138.27 nm  f=0.0448  <S**2>=0.000
      11 -> 15         0.34979
      11 -> 16         0.26578
      12 -> 16        -0.20087
      13 -> 20         0.18501
      13 -> 21        -0.33877
      13 -> 22        -0.24176

 Excited State  14:      Singlet-A      9.1071 eV  136.14 nm  f=0.3913  <S**2>=0.000
       8 -> 15        -0.10073
      11 -> 14         0.41552
      12 -> 14        -0.12145
      12 -> 15        -0.39464
      12 -> 16         0.11989
      13 -> 17        -0.25717

 Excited State  15:      Singlet-A      9.2605 eV  133.89 nm  f=0.0131  <S**2>=0.000
      11 -> 15        -0.19255
      11 -> 16         0.50543
      12 -> 16        -0.23885
      13 -> 16         0.13035
      13 -> 20        -0.22155
      13 -> 21         0.13644
      13 -> 22         0.17217

 The electronic state is 1-A.
 Alpha  occ. eigenvalues --   -1.87600  -1.17757  -0.94347  -0.78620  -0.76581
 Alpha  occ. eigenvalues --   -0.67268  -0.60714  -0.48623  -0.47524  -0.41533
 Alpha  occ. eigenvalues --   -0.36782  -0.36111  -0.22702
 Alpha virt. eigenvalues --    0.17370   0.19589   0.22417   0.29051   0.30649
 Alpha virt. eigenvalues --    0.32319   0.34006   0.34507   0.35798   0.40047
 Alpha virt. eigenvalues --    0.44474

 Mulliken charges:
               1
     1  C   -0.105621
     2  C   -1.536735
     3  O    2.742396
     4  C   -1.449484
     5  C   -0.048603
     6  H    0.055865
     7  H    0.119271
     8  H    0.157738
     9  H    0.065173
 Sum of Mulliken charges =   0.00000

 Dipole moment (field-independent basis, Debye):
    X=             -2.8507    Y=             -9.8668    Z=              0.3056  Tot=             10.2749
 N-N= 1.029873267615D+02 E-N=-1.689873022696D+02  KE=-1.578971678810D+01
 Orbital energies and kinetic energies (alpha):
                                 1                 2
   1         O                -1.875999         -1.355370
   2         O                -1.177569         -1.076490
   3         O                -0.943467         -0.879101
   4         O                -0.786203         -0.632558
   5         O                -0.765810         -0.685908
   6         O                -0.672678         -0.628766
   7         O                -0.607143         -0.535173

 Normal termination of Gaussian 09 at Tue Dec 15 17:08:07 2015.
