 Gaussian 09, Revision D.01,
 Gaussian 09:  ES64L-G09RevD.01 24-Apr-2013

 ------------------------------------------------------------
 #P AM1(Input,print) CIS(Singlets,NStates=15) pop(full) force
 ------------------------------------------------------------

 -----------------
 AM1-Reparam Input
 -----------------
 Symbolic Z-matrix:
 Charge =  0 Multiplicity = 1

                         Standard orientation:
 ---------------------------------------------------------------------
 Center     Atomic      Atomic             Coordinates (Angstroms)
 Number     Number       Type             X           Y           Z
 ---------------------------------------------------------------------
      1          6           0       -0.376584    1.124644   -0.024671
      2          6           0       -1.163767    0.018786   -0.011134
      3          8           0       -0.392425   -1.095488    0.009137
      4          6           0        0.940801   -0.648277   -0.018496
      5          6           0        1.003911    0.667765    0.015701
      6          1           0        1.949612    1.267863    0.039996
      7          1           0        1.649509   -1.489261    0.007927
      8          1           0       -2.235078   -0.102056    0.071992
      9          1           0       -0.650812    2.109852    0.038586
 ---------------------------------------------------------------------

 SCF Done:  E(RAM1) =   1.85592863772     A.U. after   14 cycles

 Excitation energies and oscillator strengths:

 Excited State   1:      Singlet-A      5.4938 eV  225.68 nm  f=0.3353  <S**2>=0.000
      13 -> 14         0.69216
 This state for optimization and/or second-order correction.
 Total Energy, E(CIS) =   2.05782339049
 Copying the excited state density for this state as the 1-particle RhoCI density.

 Excited State   2:      Singlet-A      6.2883 eV  197.17 nm  f=0.0000  <S**2>=0.000
      10 -> 16         0.10437
      13 -> 15         0.67200
      13 -> 18        -0.11500
      13 -> 19        -0.12555

 Excited State   3:      Singlet-A      6.3678 eV  194.71 nm  f=0.0023  <S**2>=0.000
      10 -> 15         0.10314
      13 -> 16         0.66832
      13 -> 17        -0.16841

 Excited State   4:      Singlet-A      6.6095 eV  187.58 nm  f=0.0011  <S**2>=0.000
      12 -> 14         0.70053

 Excited State   5:      Singlet-A      7.7360 eV  160.27 nm  f=0.0087  <S**2>=0.000
      11 -> 14         0.66143
      13 -> 17        -0.20259

 Excited State   6:      Singlet-A      7.9423 eV  156.11 nm  f=0.0013  <S**2>=0.000
      11 -> 14         0.10953
      13 -> 15         0.11379
      13 -> 18         0.61494
      13 -> 22         0.25986

 Excited State   7:      Singlet-A      8.0361 eV  154.28 nm  f=0.0069  <S**2>=0.000
      11 -> 14         0.19806
      13 -> 16         0.14170
      13 -> 17         0.63807

 Excited State   8:      Singlet-A      8.7669 eV  141.42 nm  f=0.0477  <S**2>=0.000
       8 -> 15        -0.11418
       8 -> 16        -0.11545
      10 -> 14         0.27306
      11 -> 17        -0.18452
      12 -> 15         0.49631
      12 -> 18        -0.22096

 Excited State   9:      Singlet-A      8.8028 eV  140.85 nm  f=0.0039  <S**2>=0.000
      13 -> 18        -0.12142
      13 -> 19         0.66215
      13 -> 20        -0.11742

 Excited State  10:      Singlet-A      8.9985 eV  137.78 nm  f=0.0410  <S**2>=0.000
      10 -> 14         0.52565
      12 -> 15        -0.21055
      12 -> 16         0.27976
      12 -> 18         0.17300
      13 -> 21         0.11519

 Excited State  11:      Singlet-A      9.4548 eV  131.13 nm  f=0.0431  <S**2>=0.000
      10 -> 14        -0.25585
      11 -> 15        -0.23385
      12 -> 16         0.54835
      12 -> 17        -0.17381

 Excited State  12:      Singlet-A      9.5123 eV  130.34 nm  f=0.1886  <S**2>=0.000
       9 -> 15        -0.15352
      11 -> 15        -0.12789
      11 -> 16        -0.35200
      11 -> 17         0.26547
      12 -> 15         0.35358
      12 -> 18         0.28602

 Excited State  13:      Singlet-A      9.5878 eV  129.31 nm  f=0.0054  <S**2>=0.000
      10 -> 16         0.10500
      13 -> 18        -0.27294
      13 -> 20         0.14278
      13 -> 22         0.61214

 Excited State  14:      Singlet-A      9.7374 eV  127.33 nm  f=0.0853  <S**2>=0.000
      10 -> 15        -0.11992
      13 -> 19         0.11247
      13 -> 20         0.65693
      13 -> 22        -0.14623

 Excited State  15:      Singlet-A      9.9215 eV  124.97 nm  f=0.1053  <S**2>=0.000
       8 -> 15        -0.19247
       9 -> 16         0.20021
      10 -> 14        -0.21593
      10 -> 16         0.10248
      11 -> 15         0.41253
      11 -> 19        -0.21155
      12 -> 16         0.18501
      12 -> 17         0.21523
      12 -> 18         0.14812

 The electronic state is 1-A.
 Alpha  occ. eigenvalues --   -1.93681  -1.21175  -0.97845  -0.81026  -0.80160
 Alpha  occ. eigenvalues --   -0.68668  -0.66481  -0.51864  -0.49249  -0.42387
 Alpha  occ. eigenvalues --   -0.40769  -0.37133  -0.26557
 Alpha virt. eigenvalues --    0.14176   0.19100   0.19399   0.27037   0.29164
 Alpha virt. eigenvalues --    0.30952   0.33323   0.34912   0.35366   0.44035
 Alpha virt. eigenvalues --    0.48293

 Mulliken charges:
               1
     1  C   -0.161168
     2  C   -1.917524
     3  O    3.122330
     4  C   -1.875316
     5  C   -0.062540
     6  H    0.145281
     7  H    0.281056
     8  H    0.310279
     9  H    0.157603
 Sum of Mulliken charges =   0.00000

 Dipole moment (field-independent basis, Debye):
    X=             -3.4666    Y=            -10.2617    Z=              0.5952  Tot=             10.8478
 N-N= 1.039535686822D+02 E-N=-1.694128348707D+02  KE=-1.564252263706D+01
 Orbital energies and kinetic energies (alpha):
                                 1                 2
   1         O                -1.936805         -1.399140
   2         O                -1.211754         -1.081522
   3         O                -0.978454         -0.911475
   4         O                -0.810255         -0.630335
   5         O                -0.801603         -0.682667
   6         O                -0.686682         -0.577295
   7         O                -0.664814         -0.573285

 Normal termination of Gaussian 09 at Tue Dec 15 17:10:03 2015.
