 Gaussian 09, Revision D.01,
 Gaussian 09:  ES64L-G09RevD.01 24-Apr-2013

 ------------------------------------------------------------
 #P AM1(Input,print) CIS(Singlets,NStates=15) pop(full) force
 ------------------------------------------------------------

 -----------------
 AM1-Reparam Input
 -----------------
 Symbolic Z-matrix:
 Charge =  0 Multiplicity = 1

                         Standard orientation:
 ---------------------------------------------------------------------
 Center     Atomic      Atomic             Coordinates (Angstroms)
 Number     Number       Type             X           Y           Z
 ---------------------------------------------------------------------
      1          6           0        0.233851    1.154702    0.003250
      2          6           0        1.135344    0.102583   -0.003083
      3          8           0        0.513178   -1.038706   -0.012188
      4          6           0       -0.894355   -0.752286    0.020260
      5          6           0       -1.039467    0.578183   -0.021205
      6          1           0       -1.994764    1.099424   -0.005095
      7          1           0       -1.506241   -1.562490    0.034581
      8          1           0        2.247521    0.079366    0.026829
      9          1           0        0.535823    2.194256    0.045854
 ---------------------------------------------------------------------

 SCF Done:  E(RAM1) =   2.04806119974     A.U. after   14 cycles

 Excitation energies and oscillator strengths:

 Excited State   1:      Singlet-A      5.4770 eV  226.37 nm  f=0.3284  <S**2>=0.000
      13 -> 14         0.69306
 This state for optimization and/or second-order correction.
 Total Energy, E(CIS) =   2.24933817108
 Copying the excited state density for this state as the 1-particle RhoCI density.

 Excited State   2:      Singlet-A      6.5532 eV  189.20 nm  f=0.0081  <S**2>=0.000
      13 -> 15         0.64178
      13 -> 16         0.10036
      13 -> 17         0.24559

 Excited State   3:      Singlet-A      6.9965 eV  177.21 nm  f=0.0013  <S**2>=0.000
      12 -> 14         0.69438

 Excited State   4:      Singlet-A      7.3560 eV  168.55 nm  f=0.0079  <S**2>=0.000
      13 -> 16         0.63006
      13 -> 18         0.24589

 Excited State   5:      Singlet-A      7.6592 eV  161.88 nm  f=0.0069  <S**2>=0.000
      11 -> 14         0.69356

 Excited State   6:      Singlet-A      8.1646 eV  151.86 nm  f=0.0012  <S**2>=0.000
      13 -> 15         0.14050
      13 -> 16        -0.19739
      13 -> 17        -0.21823
      13 -> 18         0.33501
      13 -> 19         0.39147
      13 -> 20        -0.29225
      13 -> 21         0.12704

 Excited State   7:      Singlet-A      8.4851 eV  146.12 nm  f=0.0122  <S**2>=0.000
      13 -> 15        -0.19919
      13 -> 17         0.58971
      13 -> 18         0.11274
      13 -> 19         0.24193
      13 -> 21         0.10640

 Excited State   8:      Singlet-A      8.8353 eV  140.33 nm  f=0.0942  <S**2>=0.000
      10 -> 14         0.66853

 Excited State   9:      Singlet-A      9.3753 eV  132.25 nm  f=0.0020  <S**2>=0.000
      10 -> 16        -0.15375
      13 -> 16         0.12873
      13 -> 18        -0.46102
      13 -> 19         0.46908

 Excited State  10:      Singlet-A      9.5963 eV  129.20 nm  f=0.0505  <S**2>=0.000
       9 -> 15         0.17459
      10 -> 14         0.17043
      11 -> 15         0.30428
      11 -> 16         0.26955
      11 -> 17         0.21019
      11 -> 18         0.13084
      12 -> 15         0.20208
      12 -> 16        -0.10645
      12 -> 17         0.11414
      12 -> 18        -0.21153
      12 -> 19        -0.21030

 Excited State  11:      Singlet-A      9.7177 eV  127.59 nm  f=0.0050  <S**2>=0.000
      13 -> 18         0.24519
      13 -> 19         0.21054
      13 -> 20         0.61533

 Excited State  12:      Singlet-A      9.7491 eV  127.18 nm  f=0.0624  <S**2>=0.000
      11 -> 15        -0.37064
      11 -> 17        -0.15779
      12 -> 15         0.49619
      12 -> 17         0.22711

 Excited State  13:      Singlet-A     10.0418 eV  123.47 nm  f=0.0490  <S**2>=0.000
      10 -> 15         0.42743
      13 -> 21         0.50198

 Excited State  14:      Singlet-A     10.1205 eV  122.51 nm  f=0.0357  <S**2>=0.000
       7 -> 15        -0.10989
      10 -> 15         0.47444
      10 -> 16         0.12124
      13 -> 15        -0.11182
      13 -> 21        -0.44996

 Excited State  15:      Singlet-A     10.3889 eV  119.34 nm  f=0.1181  <S**2>=0.000
      11 -> 15         0.16017
      11 -> 16         0.13701
      11 -> 19         0.10965
      12 -> 15         0.13647
      12 -> 16         0.54341
      12 -> 18         0.22033
      12 -> 19         0.10332
      12 -> 20        -0.11841

 The electronic state is 1-A.
 Alpha  occ. eigenvalues --   -1.94309  -1.20560  -0.95709  -0.82167  -0.79122
 Alpha  occ. eigenvalues --   -0.68785  -0.65280  -0.55699  -0.53466  -0.44269
 Alpha  occ. eigenvalues --   -0.43317  -0.41537  -0.29824
 Alpha virt. eigenvalues --    0.11434   0.17316   0.22073   0.24830   0.28237
 Alpha virt. eigenvalues --    0.28887   0.30660   0.30913   0.35516   0.44220
 Alpha virt. eigenvalues --    0.48745

 Mulliken charges:
               1
     1  C   -0.286687
     2  C   -2.039116
     3  O    3.187562
     4  C   -1.985600
     5  C   -0.124916
     6  H    0.252534
     7  H    0.346761
     8  H    0.386950
     9  H    0.262513
 Sum of Mulliken charges =   0.00000

 Dipole moment (field-independent basis, Debye):
    X=              5.0442    Y=             -8.8901    Z=             -0.1385  Tot=             10.2223
 N-N= 1.044549970396D+02 E-N=-1.698212171854D+02  KE=-1.551176687238D+01
 Orbital energies and kinetic energies (alpha):
                                 1                 2
   1         O                -1.943094         -1.387446
   2         O                -1.205597         -1.072712
   3         O                -0.957086         -0.871588
   4         O                -0.821671         -0.596388
   5         O                -0.791220         -0.684231
   6         O                -0.687846         -0.568655
   7         O                -0.652798         -0.520873

 Normal termination of Gaussian 09 at Tue Dec 15 17:07:15 2015.
