 Gaussian 09, Revision D.01,
 Gaussian 09:  ES64L-G09RevD.01 24-Apr-2013

 ------------------------------------------------------------
 #P AM1(Input,print) CIS(Singlets,NStates=15) pop(full) force
 ------------------------------------------------------------

 -----------------
 AM1-Reparam Input
 -----------------
 Symbolic Z-matrix:
 Charge =  0 Multiplicity = 1

                         Standard orientation:
 ---------------------------------------------------------------------
 Center     Atomic      Atomic             Coordinates (Angstroms)
 Number     Number       Type             X           Y           Z
 ---------------------------------------------------------------------
      1          6           0       -0.885270    0.787392    0.015701
      2          6           0       -1.065905   -0.472591   -0.015346
      3          8           0        0.213108   -1.146504    0.022311
      4          6           0        1.169657   -0.156108   -0.021829
      5          6           0        0.536669    1.068398   -0.009674
      6          1           0        1.077165    1.969415    0.057703
      7          1           0        2.133243   -0.528447   -0.004625
      8          1           0       -1.874166   -1.175156   -0.029939
      9          1           0       -1.572016    1.543671   -0.014736
 ---------------------------------------------------------------------

 SCF Done:  E(RAM1) =  -4.67168816088     A.U. after   15 cycles

 Excitation energies and oscillator strengths:

 Excited State   1:      Singlet-A      6.3744 eV  194.50 nm  f=0.0043  <S**2>=0.000
      13 -> 15         0.25209
      13 -> 16         0.65496
 This state for optimization and/or second-order correction.
 Total Energy, E(CIS) =  -4.43743339291
 Copying the excited state density for this state as the 1-particle RhoCI density.

 Excited State   2:      Singlet-A      6.8494 eV  181.02 nm  f=0.1804  <S**2>=0.000
      13 -> 14         0.54916
      13 -> 15        -0.36857
      13 -> 16         0.13491

 Excited State   3:      Singlet-A      7.1225 eV  174.07 nm  f=0.1403  <S**2>=0.000
      11 -> 14        -0.10812
      13 -> 14         0.39629
      13 -> 15         0.50445
      13 -> 16        -0.20908

 Excited State   4:      Singlet-A      8.4083 eV  147.45 nm  f=0.0006  <S**2>=0.000
      12 -> 15         0.10911
      13 -> 17         0.67747

 Excited State   5:      Singlet-A      8.5817 eV  144.48 nm  f=0.0015  <S**2>=0.000
      11 -> 14        -0.16889
      11 -> 15         0.26107
      12 -> 14        -0.28430
      12 -> 15         0.52022
      13 -> 17        -0.14813

 Excited State   6:      Singlet-A      9.2106 eV  134.61 nm  f=0.0007  <S**2>=0.000
      10 -> 14         0.48138
      10 -> 15        -0.39082
      11 -> 14        -0.15826
      12 -> 14        -0.20373
      12 -> 15        -0.15384

 Excited State   7:      Singlet-A      9.4365 eV  131.39 nm  f=0.0117  <S**2>=0.000
      11 -> 14         0.12194
      11 -> 15         0.24504
      11 -> 16         0.52245
      12 -> 15        -0.12745
      12 -> 16        -0.31902

 Excited State   8:      Singlet-A      9.6504 eV  128.48 nm  f=0.1051  <S**2>=0.000
      10 -> 15        -0.11133
      11 -> 14        -0.35106
      11 -> 15         0.16307
      11 -> 16         0.18857
      12 -> 14         0.48896
      12 -> 15         0.11180
      13 -> 15        -0.10549

 Excited State   9:      Singlet-A      9.7449 eV  127.23 nm  f=0.0236  <S**2>=0.000
      10 -> 14         0.13449
      10 -> 15        -0.24443
      11 -> 14         0.44923
      12 -> 14         0.26636
      12 -> 15         0.27965
      12 -> 16        -0.17233

 Excited State  10:      Singlet-A      9.8380 eV  126.03 nm  f=0.0976  <S**2>=0.000
       9 -> 17        -0.12129
      11 -> 14         0.19757
      11 -> 15         0.47365
      12 -> 15        -0.10526
      12 -> 16         0.36758

 Excited State  11:      Singlet-A      9.9917 eV  124.09 nm  f=0.0055  <S**2>=0.000
      13 -> 18         0.67195

 Excited State  12:      Singlet-A     10.4948 eV  118.14 nm  f=0.2177  <S**2>=0.000
       9 -> 15         0.19956
       9 -> 16         0.10100
      10 -> 14        -0.22423
      10 -> 15        -0.21969
      10 -> 16        -0.13654
      11 -> 15        -0.13398
      11 -> 16         0.30971
      12 -> 14        -0.11514
      12 -> 16         0.36070

 Excited State  13:      Singlet-A     10.6098 eV  116.86 nm  f=0.1174  <S**2>=0.000
       9 -> 14         0.12591
       9 -> 15        -0.25607
       9 -> 16         0.15116
      10 -> 14         0.35311
      10 -> 15         0.26367
      11 -> 15        -0.11538
      11 -> 16         0.19430
      12 -> 15         0.17526
      12 -> 16         0.20324
      13 -> 19         0.10438

 Excited State  14:      Singlet-A     10.8102 eV  114.69 nm  f=0.0060  <S**2>=0.000
      10 -> 15        -0.11370
      13 -> 19         0.54369
      13 -> 20         0.36386

 Excited State  15:      Singlet-A     10.8335 eV  114.45 nm  f=0.0205  <S**2>=0.000
       9 -> 15         0.12957
      10 -> 16         0.55004
      11 -> 15        -0.12837
      12 -> 16         0.10501
      12 -> 17        -0.12651
      13 -> 19         0.17618
      13 -> 20        -0.12048

 The electronic state is 1-A.
 Alpha  occ. eigenvalues --   -3.62320  -1.23110  -0.96609  -0.88597  -0.87948
 Alpha  occ. eigenvalues --   -0.83111  -0.78313  -0.67640  -0.60572  -0.57650
 Alpha  occ. eigenvalues --   -0.55709  -0.55431  -0.43444
 Alpha virt. eigenvalues --    0.03696   0.04921   0.06460   0.11788   0.17655
 Alpha virt. eigenvalues --    0.22142   0.23669   0.25966   0.32846   0.37206
 Alpha virt. eigenvalues --    0.38594

 Mulliken charges:
               1
     1  C   -0.028719
     2  C   -0.828926
     3  O    1.864481
     4  C   -0.850657
     5  C   -0.122465
     6  H   -0.004205
     7  H   -0.007052
     8  H   -0.013038
     9  H   -0.009418
 Sum of Mulliken charges =   0.00000

 Dipole moment (field-independent basis, Debye):
    X=              1.1644    Y=             -7.3727    Z=              0.3256  Tot=              7.4712
 N-N= 1.052130194187D+02 E-N=-1.735253880228D+02  KE=-2.103497845724D+01
 Orbital energies and kinetic energies (alpha):
                                 1                 2
   1         O                -3.623198         -3.038171
   2         O                -1.231099         -1.021156
   3         O                -0.966092         -0.723473
   4         O                -0.885970         -0.693771
   5         O                -0.879477         -0.801555
   6         O                -0.831106         -0.838819
   7         O                -0.783129         -0.598261

 Normal termination of Gaussian 09 at Fri Dec 11 13:41:33 2015.
