 Gaussian 09, Revision D.01,
 Gaussian 09:  ES64L-G09RevD.01 24-Apr-2013

 ------------------------------------------------------------
 #P AM1(Input,print) CIS(Singlets,NStates=15) pop(full) force
 ------------------------------------------------------------

 -----------------
 AM1-Reparam Input
 -----------------
 Symbolic Z-matrix:
 Charge =  0 Multiplicity = 1

                         Standard orientation:
 ---------------------------------------------------------------------
 Center     Atomic      Atomic             Coordinates (Angstroms)
 Number     Number       Type             X           Y           Z
 ---------------------------------------------------------------------
      1          6           0       -0.791361    0.865569   -0.019063
      2          6           0       -1.080120   -0.487728    0.038010
      3          8           0        0.150444   -1.116339   -0.018479
      4          6           0        1.149966   -0.213091   -0.005149
      5          6           0        0.564242    0.995773    0.007387
      6          1           0        1.120018    1.939580    0.030739
      7          1           0        2.137831   -0.601887    0.036199
      8          1           0       -1.978883   -1.080538   -0.012795
      9          1           0       -1.538885    1.710418   -0.033425
 ---------------------------------------------------------------------

 SCF Done:  E(RAM1) =   2.10125816014     A.U. after   13 cycles

 Excitation energies and oscillator strengths:

 Excited State   1:      Singlet-A      5.7540 eV  215.48 nm  f=0.3194  <S**2>=0.000
      13 -> 14         0.69049
 This state for optimization and/or second-order correction.
 Total Energy, E(CIS) =   2.31271213443
 Copying the excited state density for this state as the 1-particle RhoCI density.

 Excited State   2:      Singlet-A      6.8401 eV  181.26 nm  f=0.0053  <S**2>=0.000
      10 -> 15         0.10232
      13 -> 15         0.64667
      13 -> 16         0.15913
      13 -> 17        -0.16592

 Excited State   3:      Singlet-A      7.1837 eV  172.59 nm  f=0.0009  <S**2>=0.000
      10 -> 15        -0.10616
      10 -> 16        -0.10778
      13 -> 15        -0.15884
      13 -> 16         0.64089
      13 -> 19         0.15361

 Excited State   4:      Singlet-A      7.4477 eV  166.47 nm  f=0.0006  <S**2>=0.000
      12 -> 14         0.69677

 Excited State   5:      Singlet-A      7.9207 eV  156.53 nm  f=0.0085  <S**2>=0.000
      11 -> 14         0.69290

 Excited State   6:      Singlet-A      8.3901 eV  147.78 nm  f=0.0002  <S**2>=0.000
      13 -> 18         0.58951
      13 -> 21        -0.34948

 Excited State   7:      Singlet-A      8.5900 eV  144.33 nm  f=0.0088  <S**2>=0.000
      10 -> 16        -0.12561
      13 -> 15         0.12272
      13 -> 17         0.66319

 Excited State   8:      Singlet-A      9.1001 eV  136.24 nm  f=0.0782  <S**2>=0.000
      10 -> 14         0.67429
      13 -> 22        -0.11430

 Excited State   9:      Singlet-A      9.4724 eV  130.89 nm  f=0.0005  <S**2>=0.000
      10 -> 15         0.12756
      13 -> 18        -0.22198
      13 -> 19         0.57192
      13 -> 21        -0.27269

 Excited State  10:      Singlet-A      9.7574 eV  127.07 nm  f=0.0930  <S**2>=0.000
      11 -> 15        -0.31514
      11 -> 16        -0.13065
      11 -> 17         0.33246
      12 -> 16         0.21451
      12 -> 18         0.33107
      12 -> 21        -0.11092
      13 -> 14         0.10910

 Excited State  11:      Singlet-A      9.8123 eV  126.36 nm  f=0.0104  <S**2>=0.000
      13 -> 18         0.29243
      13 -> 19         0.33518
      13 -> 20        -0.13173
      13 -> 21         0.48687

 Excited State  12:      Singlet-A     10.0084 eV  123.88 nm  f=0.0865  <S**2>=0.000
      11 -> 15        -0.18361
      12 -> 15         0.59983
      12 -> 16        -0.12005
      13 -> 20         0.13680

 Excited State  13:      Singlet-A     10.0715 eV  123.10 nm  f=0.0981  <S**2>=0.000
      10 -> 16        -0.14104
      12 -> 15        -0.13744
      13 -> 20         0.63492
      13 -> 21         0.13446

 Excited State  14:      Singlet-A     10.3558 eV  119.72 nm  f=0.1259  <S**2>=0.000
      10 -> 15         0.26299
      11 -> 15         0.17022
      11 -> 16         0.32448
      12 -> 16         0.45647

 Excited State  15:      Singlet-A     10.4370 eV  118.79 nm  f=0.0277  <S**2>=0.000
      10 -> 15         0.54153
      10 -> 16         0.18103
      10 -> 20        -0.10224
      11 -> 16        -0.16521
      12 -> 16        -0.23846
      13 -> 15        -0.11770
      13 -> 16         0.11047

 The electronic state is 1-A.
 Alpha  occ. eigenvalues --   -1.94465  -1.20633  -0.93797  -0.80726  -0.79308
 Alpha  occ. eigenvalues --   -0.69033  -0.66930  -0.57054  -0.54573  -0.44844
 Alpha  occ. eigenvalues --   -0.43857  -0.42561  -0.30856
 Alpha virt. eigenvalues --    0.11751   0.17788   0.19174   0.24399   0.26144
 Alpha virt. eigenvalues --    0.29406   0.29914   0.31781   0.31925   0.39647
 Alpha virt. eigenvalues --    0.44847

 Mulliken charges:
               1
     1  C   -0.131735
     2  C   -1.916007
     3  O    3.234437
     4  C   -1.899623
     5  C   -0.164226
     6  H    0.168744
     7  H    0.270142
     8  H    0.271758
     9  H    0.166510
 Sum of Mulliken charges =   0.00000

 Dipole moment (field-independent basis, Debye):
    X=              1.5437    Y=             -9.9304    Z=             -0.4907  Tot=             10.0616
 N-N= 1.043567820003D+02 E-N=-1.695867637739D+02  KE=-1.535155428167D+01
 Orbital energies and kinetic energies (alpha):
                                 1                 2
   1         O                -1.944650         -1.372444
   2         O                -1.206329         -1.047736
   3         O                -0.937971         -0.875013
   4         O                -0.807265         -0.583839
   5         O                -0.793076         -0.672770
   6         O                -0.690328         -0.602260
   7         O                -0.669305         -0.535778

 Normal termination of Gaussian 09 at Tue Dec 15 17:09:19 2015.
