 Gaussian 09, Revision D.01,
 Gaussian 09:  ES64L-G09RevD.01 24-Apr-2013

 ------------------------------------------------------------
 #P AM1(Input,print) CIS(Singlets,NStates=15) pop(full) force
 ------------------------------------------------------------

 -----------------
 AM1-Reparam Input
 -----------------
 Symbolic Z-matrix:
 Charge =  0 Multiplicity = 1

                         Standard orientation:
 ---------------------------------------------------------------------
 Center     Atomic      Atomic             Coordinates (Angstroms)
 Number     Number       Type             X           Y           Z
 ---------------------------------------------------------------------
      1          6           0        0.620232    1.021634   -0.011508
      2          6           0       -0.753987    0.813278   -0.000132
      3          8           0       -1.092145   -0.443872    0.008531
      4          6           0        0.103143   -1.113403   -0.010312
      5          6           0        1.170354   -0.257542    0.001872
      6          1           0        2.244777   -0.537404    0.008794
      7          1           0        0.078390   -2.216367    0.013477
      8          1           0       -1.523544    1.522542   -0.021462
      9          1           0        1.099085    1.998400    0.051417
 ---------------------------------------------------------------------

 SCF Done:  E(RAM1) =   1.36941438780     A.U. after   13 cycles

 Excitation energies and oscillator strengths:

 Excited State   1:      Singlet-A      6.3023 eV  196.73 nm  f=0.3021  <S**2>=0.000
      13 -> 14         0.69306
 This state for optimization and/or second-order correction.
 Total Energy, E(CIS) =   1.60102090373
 Copying the excited state density for this state as the 1-particle RhoCI density.

 Excited State   2:      Singlet-A      6.5106 eV  190.44 nm  f=0.0005  <S**2>=0.000
      12 -> 16         0.11510
      13 -> 15         0.65064
      13 -> 17        -0.20217

 Excited State   3:      Singlet-A      6.8498 eV  181.00 nm  f=0.0002  <S**2>=0.000
      12 -> 15         0.16936
      12 -> 16         0.10989
      13 -> 16         0.64906
      13 -> 21         0.13072

 Excited State   4:      Singlet-A      7.7253 eV  160.49 nm  f=0.0004  <S**2>=0.000
      11 -> 14         0.68895

 Excited State   5:      Singlet-A      7.9010 eV  156.92 nm  f=0.0098  <S**2>=0.000
      10 -> 14         0.14489
      12 -> 16         0.12131
      13 -> 15         0.17524
      13 -> 17         0.64050

 Excited State   6:      Singlet-A      8.3266 eV  148.90 nm  f=0.0021  <S**2>=0.000
      10 -> 14         0.66861
      12 -> 14         0.12118
      13 -> 17        -0.13873

 Excited State   7:      Singlet-A      8.3728 eV  148.08 nm  f=0.0002  <S**2>=0.000
      12 -> 15         0.22418
      13 -> 18         0.47005
      13 -> 22        -0.44095

 Excited State   8:      Singlet-A      8.5283 eV  145.38 nm  f=0.0606  <S**2>=0.000
      10 -> 14        -0.12621
      12 -> 14         0.64779
      13 -> 19         0.22047

 Excited State   9:      Singlet-A      8.7666 eV  141.43 nm  f=0.0014  <S**2>=0.000
      12 -> 15         0.45482
      13 -> 17         0.11550
      13 -> 18        -0.38671
      13 -> 20         0.18850
      13 -> 21        -0.21231
      13 -> 22        -0.11801

 Excited State  10:      Singlet-A      9.0256 eV  137.37 nm  f=0.0062  <S**2>=0.000
      12 -> 15         0.37293
      12 -> 16        -0.18956
      13 -> 15         0.11991
      13 -> 16        -0.11707
      13 -> 18         0.25467
      13 -> 21         0.25468
      13 -> 22         0.37620

 Excited State  11:      Singlet-A      9.0952 eV  136.32 nm  f=0.0018  <S**2>=0.000
      13 -> 16         0.12996
      13 -> 18         0.19809
      13 -> 20         0.42931
      13 -> 21        -0.39491
      13 -> 22         0.28724

 Excited State  12:      Singlet-A      9.3560 eV  132.52 nm  f=0.0482  <S**2>=0.000
      12 -> 15         0.12193
      12 -> 16         0.47381
      13 -> 16        -0.11747
      13 -> 20        -0.32648
      13 -> 21        -0.24421
      13 -> 22         0.21574

 Excited State  13:      Singlet-A      9.6229 eV  128.84 nm  f=0.0209  <S**2>=0.000
       8 -> 15        -0.11070
       9 -> 15         0.13079
      10 -> 15         0.22398
      10 -> 17        -0.18573
      11 -> 16        -0.17272
      11 -> 18         0.10856
      12 -> 16         0.32632
      13 -> 15        -0.10234
      13 -> 19         0.15149
      13 -> 20         0.27764
      13 -> 21         0.27510

 Excited State  14:      Singlet-A      9.6591 eV  128.36 nm  f=0.0304  <S**2>=0.000
       8 -> 15        -0.13249
       9 -> 15         0.15779
      10 -> 15         0.28811
      10 -> 17        -0.23559
      11 -> 16        -0.23631
      11 -> 18         0.13362
      12 -> 16        -0.22850
      13 -> 20        -0.26419
      13 -> 21        -0.24714

 Excited State  15:      Singlet-A      9.7982 eV  126.54 nm  f=0.2271  <S**2>=0.000
       8 -> 16         0.13039
      10 -> 16        -0.13747
      11 -> 15         0.14009
      11 -> 16         0.19907
      12 -> 14        -0.22431
      13 -> 19         0.55059

 The electronic state is 1-A.
 Alpha  occ. eigenvalues --   -1.90264  -1.19588  -0.95036  -0.78814  -0.77213
 Alpha  occ. eigenvalues --   -0.67455  -0.62548  -0.48950  -0.47718  -0.39896
 Alpha  occ. eigenvalues --   -0.38514  -0.36323  -0.25790
 Alpha virt. eigenvalues --    0.18168   0.21326   0.22795   0.28373   0.30397
 Alpha virt. eigenvalues --    0.32043   0.33100   0.34225   0.36431   0.42411
 Alpha virt. eigenvalues --    0.47247

 Mulliken charges:
               1
     1  C   -0.071335
     2  C   -1.585337
     3  O    2.783308
     4  C   -1.567737
     5  C   -0.001578
     6  H    0.054978
     7  H    0.158025
     8  H    0.169692
     9  H    0.059983
 Sum of Mulliken charges =   0.00000

 Dipole moment (field-independent basis, Debye):
    X=             -8.7950    Y=             -3.4659    Z=              0.1977  Tot=              9.4553
 N-N= 1.038637856022D+02 E-N=-1.705205578102D+02  KE=-1.590605152499D+01
 Orbital energies and kinetic energies (alpha):
                                 1                 2
   1         O                -1.902643         -1.404363
   2         O                -1.195880         -1.087310
   3         O                -0.950356         -0.872208
   4         O                -0.788138         -0.636001
   5         O                -0.772134         -0.689880
   6         O                -0.674549         -0.623922
   7         O                -0.625477         -0.547375

 Normal termination of Gaussian 09 at Tue Dec 15 17:08:03 2015.
