 Gaussian 09, Revision D.01,
 Gaussian 09:  ES64L-G09RevD.01 24-Apr-2013

 ------------------------------------------------------------
 #P AM1(Input,print) CIS(Singlets,NStates=15) pop(full) force
 ------------------------------------------------------------

 -----------------
 AM1-Reparam Input
 -----------------
 Symbolic Z-matrix:
 Charge =  0 Multiplicity = 1

                         Standard orientation:
 ---------------------------------------------------------------------
 Center     Atomic      Atomic             Coordinates (Angstroms)
 Number     Number       Type             X           Y           Z
 ---------------------------------------------------------------------
      1          6           0       -0.611481    1.018234   -0.012699
      2          6           0       -1.096582   -0.170793    0.015960
      3          8           0       -0.181562   -1.109748   -0.010608
      4          6           0        1.017743   -0.505011    0.001332
      5          6           0        0.894040    0.834652    0.013340
      6          1           0        1.602161    1.597933   -0.015683
      7          1           0        1.865715   -1.158445   -0.001804
      8          1           0       -2.192187   -0.563814    0.011929
      9          1           0       -1.045513    1.939813   -0.017174
 ---------------------------------------------------------------------

 SCF Done:  E(RAM1) =   2.64660592595     A.U. after   13 cycles

 Excitation energies and oscillator strengths:

 Excited State   1:      Singlet-A      4.6878 eV  264.48 nm  f=0.3673  <S**2>=0.000
      13 -> 14         0.69942
 This state for optimization and/or second-order correction.
 Total Energy, E(CIS) =   2.81888045795
 Copying the excited state density for this state as the 1-particle RhoCI density.

 Excited State   2:      Singlet-A      5.4363 eV  228.07 nm  f=0.0003  <S**2>=0.000
      13 -> 15         0.65600
      13 -> 16        -0.14745
      13 -> 17         0.16837

 Excited State   3:      Singlet-A      6.0307 eV  205.59 nm  f=0.0000  <S**2>=0.000
      12 -> 14         0.70171

 Excited State   4:      Singlet-A      6.1107 eV  202.90 nm  f=0.0022  <S**2>=0.000
      13 -> 15         0.17393
      13 -> 16         0.65344
      13 -> 17        -0.12172
      13 -> 18         0.10144

 Excited State   5:      Singlet-A      7.2377 eV  171.30 nm  f=0.0003  <S**2>=0.000
      13 -> 15        -0.12359
      13 -> 16         0.14769
      13 -> 17         0.66104
      13 -> 21         0.10209

 Excited State   6:      Singlet-A      7.6567 eV  161.93 nm  f=0.0058  <S**2>=0.000
      10 -> 14         0.69064
      11 -> 14        -0.11535

 Excited State   7:      Singlet-A      8.4193 eV  147.26 nm  f=0.1234  <S**2>=0.000
      10 -> 14         0.11262
      11 -> 14         0.66795
      12 -> 15        -0.15169

 Excited State   8:      Singlet-A      8.7404 eV  141.85 nm  f=0.2771  <S**2>=0.000
      11 -> 14         0.15512
      12 -> 15         0.57945
      12 -> 16        -0.20292
      12 -> 17         0.23269

 Excited State   9:      Singlet-A      8.8823 eV  139.59 nm  f=0.0081  <S**2>=0.000
      11 -> 15        -0.17932
      13 -> 18         0.63674
      13 -> 19        -0.20107

 Excited State  10:      Singlet-A      9.2044 eV  134.70 nm  f=0.0019  <S**2>=0.000
      11 -> 16         0.21369
      13 -> 18         0.16441
      13 -> 19         0.63395

 Excited State  11:      Singlet-A      9.4312 eV  131.46 nm  f=0.0072  <S**2>=0.000
      10 -> 15         0.22990
      10 -> 18         0.13799
      12 -> 15         0.29103
      12 -> 16         0.41976
      12 -> 17        -0.32959
      12 -> 18         0.10765

 Excited State  12:      Singlet-A      9.8602 eV  125.74 nm  f=0.0046  <S**2>=0.000
       7 -> 15        -0.14510
      10 -> 15         0.11297
      11 -> 15         0.62872
      13 -> 15        -0.10679
      13 -> 18         0.18500

 Excited State  13:      Singlet-A      9.8824 eV  125.46 nm  f=0.0793  <S**2>=0.000
       8 -> 16        -0.10285
      10 -> 16        -0.26913
      10 -> 18        -0.12605
      12 -> 16         0.43684
      12 -> 17         0.38848
      12 -> 19         0.12298

 Excited State  14:      Singlet-A     10.2108 eV  121.42 nm  f=0.0004  <S**2>=0.000
       9 -> 14         0.55856
      11 -> 16        -0.37185

 Excited State  15:      Singlet-A     10.2687 eV  120.74 nm  f=0.0069  <S**2>=0.000
       8 -> 15        -0.21431
       9 -> 14         0.21197
       9 -> 15        -0.25602
       9 -> 16        -0.10258
      10 -> 15         0.41594
      10 -> 19        -0.13650
      11 -> 16         0.17915
      12 -> 16        -0.12936
      12 -> 17         0.14255
      12 -> 18         0.13859

 The electronic state is 1-A.
 Alpha  occ. eigenvalues --   -1.86725  -1.12807  -0.89095  -0.81029  -0.74213
 Alpha  occ. eigenvalues --   -0.67382  -0.64697  -0.55869  -0.54421  -0.46598
 Alpha  occ. eigenvalues --   -0.45893  -0.41489  -0.28636
 Alpha virt. eigenvalues --    0.07764   0.14023   0.17090   0.24467   0.28311
 Alpha virt. eigenvalues --    0.29552   0.36345   0.40022   0.50185   0.57676
 Alpha virt. eigenvalues --    0.61898

 Mulliken charges:
               1
     1  C   -0.219113
     2  C   -1.981124
     3  O    3.420433
     4  C   -1.985317
     5  C   -0.177738
     6  H    0.180043
     7  H    0.275319
     8  H    0.301692
     9  H    0.185804
 Sum of Mulliken charges =   0.00000

 Dipole moment (field-independent basis, Debye):
    X=             -2.3511    Y=            -11.1434    Z=             -0.3092  Tot=             11.3929
 N-N= 1.046403966648D+02 E-N=-1.706173461431D+02  KE=-1.439315559826D+01
 Orbital energies and kinetic energies (alpha):
                                 1                 2
   1         O                -1.867248         -1.283372
   2         O                -1.128068         -0.963920
   3         O                -0.890952         -0.792963
   4         O                -0.810290         -0.538032
   5         O                -0.742126         -0.625522
   6         O                -0.673822         -0.537045
   7         O                -0.646966         -0.498262

 Normal termination of Gaussian 09 at Tue Dec 15 17:07:33 2015.
