 Gaussian 09, Revision D.01,
 Gaussian 09:  ES64L-G09RevD.01 24-Apr-2013

 ------------------------------------------------------------
 #P AM1(Input,print) CIS(Singlets,NStates=15) pop(full) force
 ------------------------------------------------------------

 -----------------
 AM1-Reparam Input
 -----------------
 Symbolic Z-matrix:
 Charge =  0 Multiplicity = 1

                         Standard orientation:
 ---------------------------------------------------------------------
 Center     Atomic      Atomic             Coordinates (Angstroms)
 Number     Number       Type             X           Y           Z
 ---------------------------------------------------------------------
      1          6           0       -1.113238    0.442806   -0.004783
      2          6           0       -0.750595   -0.836111    0.021280
      3          8           0        0.627596   -1.017490   -0.014962
      4          6           0        1.104850    0.268298    0.003039
      5          6           0        0.107970    1.210609   -0.013149
      6          1           0        0.178041    2.208215    0.024157
      7          1           0        2.205136    0.340432    0.057520
      8          1           0       -1.369346   -1.803414   -0.005826
      9          1           0       -2.128520    0.881079    0.005513
 ---------------------------------------------------------------------

 SCF Done:  E(RAM1) =   2.55377974849     A.U. after   13 cycles

 Excitation energies and oscillator strengths:

 Excited State   1:      Singlet-A      5.3070 eV  233.62 nm  f=0.3549  <S**2>=0.000
      13 -> 14         0.69674
 This state for optimization and/or second-order correction.
 Total Energy, E(CIS) =   2.74880908164
 Copying the excited state density for this state as the 1-particle RhoCI density.

 Excited State   2:      Singlet-A      6.0830 eV  203.82 nm  f=0.0001  <S**2>=0.000
      11 -> 15         0.10631
      13 -> 15         0.66176
      13 -> 16        -0.12934
      13 -> 18         0.13735

 Excited State   3:      Singlet-A      6.2249 eV  199.17 nm  f=0.0015  <S**2>=0.000
      11 -> 16        -0.10346
      13 -> 15         0.13349
      13 -> 16         0.65568
      13 -> 17        -0.16348

 Excited State   4:      Singlet-A      6.8030 eV  182.25 nm  f=0.0007  <S**2>=0.000
      12 -> 14         0.69874

 Excited State   5:      Singlet-A      7.7996 eV  158.96 nm  f=0.0004  <S**2>=0.000
      13 -> 16         0.10294
      13 -> 17         0.34595
      13 -> 18         0.51109
      13 -> 20         0.13480
      13 -> 21        -0.25743

 Excited State   6:      Singlet-A      7.9616 eV  155.73 nm  f=0.0136  <S**2>=0.000
      10 -> 14         0.56077
      13 -> 17        -0.31137
      13 -> 18         0.25154

 Excited State   7:      Singlet-A      8.1445 eV  152.23 nm  f=0.0042  <S**2>=0.000
      10 -> 14         0.41010
      13 -> 17         0.48654
      13 -> 18        -0.25530

 Excited State   8:      Singlet-A      8.7452 eV  141.77 nm  f=0.0684  <S**2>=0.000
      11 -> 14         0.65093
      12 -> 15        -0.17882

 Excited State   9:      Singlet-A      8.7729 eV  141.33 nm  f=0.0036  <S**2>=0.000
      13 -> 19         0.67619
      13 -> 20        -0.12659

 Excited State  10:      Singlet-A      9.1025 eV  136.21 nm  f=0.1612  <S**2>=0.000
       8 -> 15        -0.12195
       8 -> 16        -0.14694
      10 -> 17         0.13046
      11 -> 14         0.16229
      12 -> 15         0.50118
      12 -> 16        -0.26884
      12 -> 18         0.20842

 Excited State  11:      Singlet-A      9.4643 eV  131.00 nm  f=0.0158  <S**2>=0.000
      11 -> 16         0.11961
      13 -> 17         0.10720
      13 -> 18         0.28616
      13 -> 20        -0.36632
      13 -> 21         0.49108

 Excited State  12:      Singlet-A      9.6342 eV  128.69 nm  f=0.0454  <S**2>=0.000
      10 -> 15         0.15862
      10 -> 18         0.10440
      11 -> 14         0.13995
      12 -> 15         0.36132
      12 -> 16         0.48003
      12 -> 17        -0.14225

 Excited State  13:      Singlet-A      9.7596 eV  127.04 nm  f=0.0262  <S**2>=0.000
       7 -> 15        -0.12928
      11 -> 15         0.56426
      11 -> 16         0.22121
      13 -> 15        -0.12684
      13 -> 20         0.24073

 Excited State  14:      Singlet-A      9.8024 eV  126.48 nm  f=0.0127  <S**2>=0.000
       7 -> 16         0.13010
      11 -> 15        -0.18358
      11 -> 16         0.59372
      13 -> 16         0.13797
      13 -> 21        -0.21093

 Excited State  15:      Singlet-A      9.8827 eV  125.46 nm  f=0.1365  <S**2>=0.000
       9 -> 15        -0.14573
      10 -> 15        -0.20123
      10 -> 16        -0.24882
      10 -> 17         0.23484
      12 -> 15        -0.13513
      12 -> 16         0.28276
      12 -> 17         0.16564
      12 -> 18         0.20774
      12 -> 19        -0.14718
      13 -> 20        -0.21689
      13 -> 21        -0.12452

 The electronic state is 1-A.
 Alpha  occ. eigenvalues --   -1.71952  -1.15682  -0.93124  -0.80123  -0.75517
 Alpha  occ. eigenvalues --   -0.67023  -0.63304  -0.52854  -0.49901  -0.43608
 Alpha  occ. eigenvalues --   -0.42763  -0.39626  -0.27449
 Alpha virt. eigenvalues --    0.12512   0.17090   0.17807   0.26661   0.28506
 Alpha virt. eigenvalues --    0.30104   0.32621   0.33862   0.38466   0.48388
 Alpha virt. eigenvalues --    0.51709

 Mulliken charges:
               1
     1  C   -0.042948
     2  C   -1.896481
     3  O    3.213100
     4  C   -1.910414
     5  C   -0.083667
     6  H    0.110944
     7  H    0.248733
     8  H    0.253070
     9  H    0.107663
 Sum of Mulliken charges =   0.00000

 Dipole moment (field-independent basis, Debye):
    X=              5.7494    Y=             -9.9107    Z=             -0.2942  Tot=             11.4614
 N-N= 1.033390339068D+02 E-N=-1.681187607988D+02  KE=-1.499322667205D+01
 Orbital energies and kinetic energies (alpha):
                                 1                 2
   1         O                -1.719519         -1.208811
   2         O                -1.156818         -1.027928
   3         O                -0.931239         -0.863816
   4         O                -0.801231         -0.609001
   5         O                -0.755166         -0.666956
   6         O                -0.670233         -0.583254
   7         O                -0.633041         -0.520895

 Normal termination of Gaussian 09 at Tue Dec 15 17:06:19 2015.
