 Gaussian 09, Revision D.01,
 Gaussian 09:  ES64L-G09RevD.01 24-Apr-2013

 ------------------------------------------------------------
 #P AM1(Input,print) CIS(Singlets,NStates=15) pop(full) force
 ------------------------------------------------------------

 -----------------
 AM1-Reparam Input
 -----------------
 Symbolic Z-matrix:
 Charge =  0 Multiplicity = 1

                         Standard orientation:
 ---------------------------------------------------------------------
 Center     Atomic      Atomic             Coordinates (Angstroms)
 Number     Number       Type             X           Y           Z
 ---------------------------------------------------------------------
      1          6           0        0.910887    0.802540   -0.001698
      2          6           0        0.997376   -0.549908    0.016192
      3          8           0       -0.229411   -1.131440    0.005287
      4          6           0       -1.140191   -0.141281   -0.031029
      5          6           0       -0.524155    1.083897    0.002240
      6          1           0       -0.998771    2.070282    0.039637
      7          1           0       -2.167242   -0.445418    0.063473
      8          1           0        1.798177   -1.214087   -0.038172
      9          1           0        1.739618    1.469259   -0.021473
 ---------------------------------------------------------------------

 SCF Done:  E(RAM1) =   2.81670422143     A.U. after   13 cycles

 Excitation energies and oscillator strengths:

 Excited State   1:      Singlet-A      5.2070 eV  238.11 nm  f=0.3459  <S**2>=0.000
      13 -> 14         0.69589
 This state for optimization and/or second-order correction.
 Total Energy, E(CIS) =   3.00805798721
 Copying the excited state density for this state as the 1-particle RhoCI density.

 Excited State   2:      Singlet-A      6.5161 eV  190.27 nm  f=0.0053  <S**2>=0.000
      11 -> 15        -0.10235
      13 -> 15         0.64342
      13 -> 17         0.21040
      13 -> 18         0.13212

 Excited State   3:      Singlet-A      6.5611 eV  188.97 nm  f=0.0021  <S**2>=0.000
      13 -> 16         0.63573
      13 -> 17         0.12756
      13 -> 18        -0.22329

 Excited State   4:      Singlet-A      6.7213 eV  184.47 nm  f=0.0002  <S**2>=0.000
       9 -> 14         0.12364
      12 -> 14         0.69130

 Excited State   5:      Singlet-A      7.7344 eV  160.30 nm  f=0.0002  <S**2>=0.000
      13 -> 16         0.18163
      13 -> 18         0.42903
      13 -> 19         0.13695
      13 -> 20         0.25345
      13 -> 21        -0.40110

 Excited State   6:      Singlet-A      7.7962 eV  159.03 nm  f=0.0120  <S**2>=0.000
      10 -> 14         0.63264
      13 -> 15        -0.10836
      13 -> 17         0.25585

 Excited State   7:      Singlet-A      7.9866 eV  155.24 nm  f=0.0120  <S**2>=0.000
      10 -> 14        -0.29184
      13 -> 15        -0.16761
      13 -> 17         0.59662

 Excited State   8:      Singlet-A      8.5439 eV  145.11 nm  f=0.0012  <S**2>=0.000
      13 -> 16        -0.13170
      13 -> 18        -0.35768
      13 -> 19         0.50539
      13 -> 20         0.17427
      13 -> 21        -0.20779

 Excited State   9:      Singlet-A      8.5590 eV  144.86 nm  f=0.1091  <S**2>=0.000
      11 -> 14         0.68506

 Excited State  10:      Singlet-A      8.9474 eV  138.57 nm  f=0.0056  <S**2>=0.000
      13 -> 18         0.31916
      13 -> 19         0.45977
      13 -> 20        -0.23529
      13 -> 21         0.35158

 Excited State  11:      Singlet-A      9.3507 eV  132.59 nm  f=0.0767  <S**2>=0.000
      13 -> 20         0.55232
      13 -> 21         0.38181

 Excited State  12:      Singlet-A      9.4261 eV  131.53 nm  f=0.0549  <S**2>=0.000
       8 -> 15        -0.12912
       9 -> 18        -0.12567
      10 -> 17         0.22210
      12 -> 15        -0.27938
      12 -> 16         0.37769
      12 -> 18        -0.26746
      12 -> 19        -0.10818
      12 -> 20        -0.10407
      12 -> 21         0.12735
      13 -> 20         0.15011

 Excited State  13:      Singlet-A      9.7665 eV  126.95 nm  f=0.0352  <S**2>=0.000
       9 -> 14        -0.27869
       9 -> 15        -0.10531
      10 -> 15         0.17368
      12 -> 15         0.49695
      12 -> 16         0.21647
      12 -> 17         0.15592

 Excited State  14:      Singlet-A      9.8277 eV  126.16 nm  f=0.0098  <S**2>=0.000
       9 -> 14         0.62056
      12 -> 14        -0.10823
      12 -> 15         0.23644

 Excited State  15:      Singlet-A      9.9286 eV  124.88 nm  f=0.1613  <S**2>=0.000
       9 -> 16        -0.14433
      10 -> 15        -0.22995
      10 -> 16        -0.28518
      10 -> 17        -0.24219
      12 -> 16         0.43214
      12 -> 19         0.20071
      12 -> 21        -0.11413

 The electronic state is 1-A.
 Alpha  occ. eigenvalues --   -1.72216  -1.10781  -0.92754  -0.79670  -0.75071
 Alpha  occ. eigenvalues --   -0.66300  -0.63525  -0.53829  -0.49538  -0.44080
 Alpha  occ. eigenvalues --   -0.43193  -0.40290  -0.28335
 Alpha virt. eigenvalues --    0.11027   0.18410   0.19070   0.24917   0.26993
 Alpha virt. eigenvalues --    0.28367   0.29567   0.29994   0.37714   0.46653
 Alpha virt. eigenvalues --    0.50721

 Mulliken charges:
               1
     1  C   -0.122522
     2  C   -1.945300
     3  O    3.209103
     4  C   -1.951963
     5  C   -0.141529
     6  H    0.178464
     7  H    0.301449
     8  H    0.294946
     9  H    0.177353
 Sum of Mulliken charges =   0.00000

 Dipole moment (field-independent basis, Debye):
    X=             -2.0294    Y=            -10.1263    Z=              0.2621  Tot=             10.3310
 N-N= 1.038972836483D+02 E-N=-1.689993651312D+02  KE=-1.477016297054D+01
 Orbital energies and kinetic energies (alpha):
                                 1                 2
   1         O                -1.722156         -1.217457
   2         O                -1.107814         -0.979032
   3         O                -0.927537         -0.840816
   4         O                -0.796701         -0.608402
   5         O                -0.750708         -0.681834
   6         O                -0.662998         -0.564736
   7         O                -0.635252         -0.517958

 Normal termination of Gaussian 09 at Tue Dec 15 17:06:02 2015.
