 Gaussian 09, Revision D.01,
 Gaussian 09:  ES64L-G09RevD.01 24-Apr-2013

 ------------------------------------------------------------
 #P AM1(Input,print) CIS(Singlets,NStates=15) pop(full) force
 ------------------------------------------------------------

 -----------------
 AM1-Reparam Input
 -----------------
 Symbolic Z-matrix:
 Charge =  0 Multiplicity = 1

                         Standard orientation:
 ---------------------------------------------------------------------
 Center     Atomic      Atomic             Coordinates (Angstroms)
 Number     Number       Type             X           Y           Z
 ---------------------------------------------------------------------
      1          6           0       -0.665865    0.957278    0.014724
      2          6           0       -1.132175   -0.269605   -0.006172
      3          8           0       -0.098945   -1.117611    0.002424
      4          6           0        1.108963   -0.423892   -0.004289
      5          6           0        0.776661    0.915995   -0.001533
      6          1           0        1.541009    1.678498   -0.014108
      7          1           0        2.043037   -1.016907    0.012523
      8          1           0       -2.092149   -0.719377   -0.010107
      9          1           0       -1.225847    1.920021   -0.024073
 ---------------------------------------------------------------------

 SCF Done:  E(RAM1) =   1.39219196992     A.U. after   13 cycles

 Excitation energies and oscillator strengths:

 Excited State   1:      Singlet-A      5.8412 eV  212.26 nm  f=0.3195  <S**2>=0.000
      13 -> 14         0.69338
 This state for optimization and/or second-order correction.
 Total Energy, E(CIS) =   1.60685140947
 Copying the excited state density for this state as the 1-particle RhoCI density.

 Excited State   2:      Singlet-A      6.1816 eV  200.57 nm  f=0.0007  <S**2>=0.000
      13 -> 15         0.66467
      13 -> 17        -0.15391

 Excited State   3:      Singlet-A      6.5706 eV  188.69 nm  f=0.0001  <S**2>=0.000
      13 -> 16         0.63537
      13 -> 17        -0.16965
      13 -> 21         0.12095
      13 -> 22        -0.14594

 Excited State   4:      Singlet-A      7.3621 eV  168.41 nm  f=0.0007  <S**2>=0.000
      11 -> 14         0.59226
      12 -> 14        -0.34730
      13 -> 22        -0.10449

 Excited State   5:      Singlet-A      7.4552 eV  166.31 nm  f=0.0059  <S**2>=0.000
      13 -> 15         0.11396
      13 -> 16         0.18419
      13 -> 17         0.63060
      13 -> 22         0.14561

 Excited State   6:      Singlet-A      7.8435 eV  158.07 nm  f=0.0035  <S**2>=0.000
      13 -> 17        -0.16966
      13 -> 19        -0.39781
      13 -> 22         0.51030

 Excited State   7:      Singlet-A      8.2747 eV  149.83 nm  f=0.0017  <S**2>=0.000
      10 -> 14         0.67356
      12 -> 14         0.11943

 Excited State   8:      Singlet-A      8.3705 eV  148.12 nm  f=0.0065  <S**2>=0.000
      10 -> 14        -0.15557
      11 -> 14         0.26033
      12 -> 14         0.44093
      13 -> 18        -0.43578

 Excited State   9:      Singlet-A      8.5141 eV  145.62 nm  f=0.0024  <S**2>=0.000
      13 -> 19         0.49244
      13 -> 21        -0.26388
      13 -> 22         0.37443

 Excited State  10:      Singlet-A      8.7225 eV  142.14 nm  f=0.0035  <S**2>=0.000
      13 -> 19         0.26578
      13 -> 20         0.14064
      13 -> 21         0.60861
      13 -> 22         0.11408

 Excited State  11:      Singlet-A      8.9944 eV  137.85 nm  f=0.0615  <S**2>=0.000
      12 -> 15         0.12518
      12 -> 16        -0.14678
      13 -> 20         0.63100
      13 -> 21        -0.14397
      13 -> 23        -0.10786

 Excited State  12:      Singlet-A      9.2032 eV  134.72 nm  f=0.1970  <S**2>=0.000
      11 -> 14         0.21508
      12 -> 14         0.37049
      13 -> 18         0.51918

 Excited State  13:      Singlet-A      9.3122 eV  133.14 nm  f=0.0006  <S**2>=0.000
      11 -> 15         0.29330
      12 -> 15         0.52645
      12 -> 16         0.14714
      12 -> 17        -0.10534
      13 -> 16         0.14405
      13 -> 20        -0.12235
      13 -> 22         0.13628

 Excited State  14:      Singlet-A      9.6405 eV  128.61 nm  f=0.1322  <S**2>=0.000
       8 -> 15        -0.16418
      10 -> 17         0.12874
      11 -> 15         0.48309
      11 -> 16        -0.19600
      11 -> 19        -0.15755
      12 -> 14        -0.12182
      12 -> 15        -0.26820
      12 -> 16         0.11916

 Excited State  15:      Singlet-A      9.7610 eV  127.02 nm  f=0.0013  <S**2>=0.000
      11 -> 15        -0.13060
      11 -> 16         0.22291
      12 -> 15        -0.10613
      12 -> 16         0.54710
      13 -> 15         0.10989
      13 -> 16         0.11925
      13 -> 20         0.19201
      13 -> 23         0.13270

 The electronic state is 1-A.
 Alpha  occ. eigenvalues --   -1.89812  -1.18332  -0.96968  -0.79180  -0.76831
 Alpha  occ. eigenvalues --   -0.67494  -0.62419  -0.51561  -0.48277  -0.40549
 Alpha  occ. eigenvalues --   -0.37945  -0.37762  -0.24808
 Alpha virt. eigenvalues --    0.16795   0.20792   0.22563   0.27721   0.30000
 Alpha virt. eigenvalues --    0.30229   0.32721   0.33325   0.34177   0.40022
 Alpha virt. eigenvalues --    0.46144

 Mulliken charges:
               1
     1  C   -0.091761
     2  C   -1.542613
     3  O    2.802583
     4  C   -1.566829
     5  C   -0.071326
     6  H    0.072852
     7  H    0.161689
     8  H    0.166042
     9  H    0.069364
 Sum of Mulliken charges =   0.00000

 Dipole moment (field-independent basis, Debye):
    X=             -1.1172    Y=             -9.2383    Z=              0.0797  Tot=              9.3060
 N-N= 1.035766916072D+02 E-N=-1.698778239523D+02  KE=-1.585238746260D+01
 Orbital energies and kinetic energies (alpha):
                                 1                 2
   1         O                -1.898116         -1.388925
   2         O                -1.183323         -1.056919
   3         O                -0.969680         -0.878549
   4         O                -0.791800         -0.641090
   5         O                -0.768313         -0.698745
   6         O                -0.674939         -0.616821
   7         O                -0.624194         -0.542453

 Normal termination of Gaussian 09 at Tue Dec 15 17:07:59 2015.
