 Gaussian 09, Revision D.01,
 Gaussian 09:  ES64L-G09RevD.01 24-Apr-2013

 ------------------------------------------------------------
 #P AM1(Input,print) CIS(Singlets,NStates=15) pop(full) force
 ------------------------------------------------------------

 -----------------
 AM1-Reparam Input
 -----------------
 Symbolic Z-matrix:
 Charge =  0 Multiplicity = 1

                         Standard orientation:
 ---------------------------------------------------------------------
 Center     Atomic      Atomic             Coordinates (Angstroms)
 Number     Number       Type             X           Y           Z
 ---------------------------------------------------------------------
      1          6           0       -0.649209    0.952741   -0.010527
      2          6           0       -1.125689   -0.286260   -0.018166
      3          8           0       -0.016815   -1.185070    0.020537
      4          6           0        1.071734   -0.378041   -0.018015
      5          6           0        0.715134    0.952553    0.003449
      6          1           0        1.405952    1.806359    0.024339
      7          1           0        1.996069   -0.867944    0.000200
      8          1           0       -2.049384   -0.749091    0.004314
      9          1           0       -1.289940    1.845278    0.066410
 ---------------------------------------------------------------------

 SCF Done:  E(RAM1) =   2.13788810739     A.U. after   13 cycles

 Excitation energies and oscillator strengths:

 Excited State   1:      Singlet-A      5.7682 eV  214.94 nm  f=0.3209  <S**2>=0.000
      13 -> 14         0.69131
 This state for optimization and/or second-order correction.
 Total Energy, E(CIS) =   2.34986530018
 Copying the excited state density for this state as the 1-particle RhoCI density.

 Excited State   2:      Singlet-A      6.6132 eV  187.48 nm  f=0.0023  <S**2>=0.000
      10 -> 15        -0.12209
      13 -> 15         0.66500
      13 -> 17        -0.14663

 Excited State   3:      Singlet-A      7.0887 eV  174.90 nm  f=0.0006  <S**2>=0.000
      10 -> 16         0.12480
      13 -> 16         0.66300

 Excited State   4:      Singlet-A      7.4164 eV  167.17 nm  f=0.0013  <S**2>=0.000
      12 -> 14         0.69634

 Excited State   5:      Singlet-A      8.1291 eV  152.52 nm  f=0.0068  <S**2>=0.000
      10 -> 14         0.20196
      11 -> 14         0.64215
      13 -> 17        -0.17117

 Excited State   6:      Singlet-A      8.3989 eV  147.62 nm  f=0.0025  <S**2>=0.000
      10 -> 15        -0.10792
      11 -> 14         0.15949
      13 -> 17         0.47824
      13 -> 18        -0.37830
      13 -> 22         0.25260

 Excited State   7:      Singlet-A      8.5797 eV  144.51 nm  f=0.0043  <S**2>=0.000
      10 -> 16         0.10809
      13 -> 17         0.43655
      13 -> 18         0.46445
      13 -> 22        -0.22320

 Excited State   8:      Singlet-A      9.1322 eV  135.77 nm  f=0.0381  <S**2>=0.000
      10 -> 14         0.60838
      11 -> 14        -0.18469
      12 -> 17         0.11437
      13 -> 19         0.19956

 Excited State   9:      Singlet-A      9.3527 eV  132.57 nm  f=0.0014  <S**2>=0.000
      10 -> 15        -0.10662
      13 -> 18         0.20196
      13 -> 19        -0.28517
      13 -> 20         0.51155
      13 -> 21         0.21848
      13 -> 22         0.15871

 Excited State  10:      Singlet-A      9.6897 eV  127.95 nm  f=0.0209  <S**2>=0.000
       9 -> 15        -0.16847
      11 -> 16        -0.18449
      11 -> 17         0.18606
      11 -> 18         0.14646
      12 -> 15         0.41710
      12 -> 17        -0.23141
      12 -> 18         0.20921
      13 -> 19         0.15405

 Excited State  11:      Singlet-A      9.7939 eV  126.59 nm  f=0.0199  <S**2>=0.000
      13 -> 18         0.29145
      13 -> 19         0.19912
      13 -> 20        -0.23876
      13 -> 21         0.19566
      13 -> 22         0.51214

 Excited State  12:      Singlet-A     10.0663 eV  123.17 nm  f=0.0700  <S**2>=0.000
      10 -> 14        -0.13505
      10 -> 15         0.23107
      11 -> 15        -0.17553
      13 -> 19         0.38787
      13 -> 20         0.20166
      13 -> 21         0.34855
      13 -> 22        -0.18362

 Excited State  13:      Singlet-A     10.1277 eV  122.42 nm  f=0.1218  <S**2>=0.000
      10 -> 14        -0.17159
      10 -> 15        -0.29313
      11 -> 15         0.18717
      11 -> 16         0.10468
      12 -> 16        -0.14145
      13 -> 19         0.35090
      13 -> 20         0.21716
      13 -> 21        -0.28872

 Excited State  14:      Singlet-A     10.1624 eV  122.00 nm  f=0.2043  <S**2>=0.000
      11 -> 15        -0.21505
      12 -> 16         0.51643
      12 -> 17        -0.11110
      13 -> 20         0.16160
      13 -> 21        -0.22608
      13 -> 22         0.12430

 Excited State  15:      Singlet-A     10.2357 eV  121.13 nm  f=0.0475  <S**2>=0.000
      10 -> 14        -0.10415
      11 -> 15         0.39182
      11 -> 17        -0.11020
      12 -> 15         0.24107
      12 -> 16         0.36539
      12 -> 18        -0.12107
      13 -> 21         0.23099
      13 -> 22        -0.10134

 The electronic state is 1-A.
 Alpha  occ. eigenvalues --   -1.93071  -1.20958  -0.93243  -0.80284  -0.79447
 Alpha  occ. eigenvalues --   -0.69349  -0.65769  -0.55143  -0.53500  -0.43869
 Alpha  occ. eigenvalues --   -0.43178  -0.40925  -0.29221
 Alpha virt. eigenvalues --    0.13419   0.18336   0.20480   0.25930   0.27843
 Alpha virt. eigenvalues --    0.30256   0.30548   0.32112   0.33876   0.39027
 Alpha virt. eigenvalues --    0.42470

 Mulliken charges:
               1
     1  C   -0.092564
     2  C   -1.858674
     3  O    3.208113
     4  C   -1.896129
     5  C   -0.179662
     6  H    0.159353
     7  H    0.261957
     8  H    0.246547
     9  H    0.151060
 Sum of Mulliken charges =   0.00000

 Dipole moment (field-independent basis, Debye):
    X=              0.0207    Y=            -11.2609    Z=              0.6566  Tot=             11.2801
 N-N= 1.042277140732D+02 E-N=-1.694561593439D+02  KE=-1.536431835563D+01
 Orbital energies and kinetic energies (alpha):
                                 1                 2
   1         O                -1.930713         -1.343203
   2         O                -1.209581         -1.070413
   3         O                -0.932434         -0.890142
   4         O                -0.802838         -0.623688
   5         O                -0.794474         -0.636224
   6         O                -0.693493         -0.598104
   7         O                -0.657685         -0.535350

 Normal termination of Gaussian 09 at Tue Dec 15 17:09:24 2015.
