 Gaussian 09, Revision D.01,
 Gaussian 09:  ES64L-G09RevD.01 24-Apr-2013

 ------------------------------------------------------------
 #P AM1(Input,print) CIS(Singlets,NStates=15) pop(full) force
 ------------------------------------------------------------

 -----------------
 AM1-Reparam Input
 -----------------
 Symbolic Z-matrix:
 Charge =  0 Multiplicity = 1

                         Standard orientation:
 ---------------------------------------------------------------------
 Center     Atomic      Atomic             Coordinates (Angstroms)
 Number     Number       Type             X           Y           Z
 ---------------------------------------------------------------------
      1          6           0       -0.580822    0.998465   -0.038253
      2          6           0       -1.094022   -0.221458    0.050986
      3          8           0       -0.151048   -1.125212   -0.037750
      4          6           0        1.033067   -0.491337    0.032976
      5          6           0        0.801596    0.893040    0.012313
      6          1           0        1.655578    1.614624   -0.044816
      7          1           0        1.897739   -1.124745   -0.014281
      8          1           0       -2.165750   -0.502364   -0.007960
      9          1           0       -1.138090    1.941924    0.020924
 ---------------------------------------------------------------------

 SCF Done:  E(RAM1) =   1.72617976641     A.U. after   13 cycles

 Excitation energies and oscillator strengths:

 Excited State   1:      Singlet-A      5.6873 eV  218.00 nm  f=0.3352  <S**2>=0.000
      13 -> 14         0.68984
 This state for optimization and/or second-order correction.
 Total Energy, E(CIS) =   1.93518292262
 Copying the excited state density for this state as the 1-particle RhoCI density.

 Excited State   2:      Singlet-A      7.2248 eV  171.61 nm  f=0.0045  <S**2>=0.000
      12 -> 14        -0.47744
      13 -> 15         0.48291

 Excited State   3:      Singlet-A      7.2403 eV  171.24 nm  f=0.0011  <S**2>=0.000
      12 -> 14         0.51280
      13 -> 15         0.45822

 Excited State   4:      Singlet-A      7.5518 eV  164.18 nm  f=0.0022  <S**2>=0.000
      10 -> 16        -0.10995
      13 -> 15        -0.11376
      13 -> 16         0.64547
      13 -> 17        -0.13174
      13 -> 19        -0.14165

 Excited State   5:      Singlet-A      7.8513 eV  157.92 nm  f=0.0045  <S**2>=0.000
      11 -> 14         0.69474
      13 -> 16         0.10051

 Excited State   6:      Singlet-A      9.1610 eV  135.34 nm  f=0.0003  <S**2>=0.000
      10 -> 16         0.11402
      13 -> 16        -0.11934
      13 -> 17        -0.29757
      13 -> 18         0.54593
      13 -> 19        -0.10474
      13 -> 21        -0.25440

 Excited State   7:      Singlet-A      9.3264 eV  132.94 nm  f=0.0111  <S**2>=0.000
      10 -> 14         0.13230
      13 -> 15         0.10445
      13 -> 17         0.58135
      13 -> 18         0.27299
      13 -> 19        -0.13244
      13 -> 21        -0.10647

 Excited State   8:      Singlet-A      9.3925 eV  132.00 nm  f=0.0948  <S**2>=0.000
      10 -> 14         0.66951
      13 -> 17        -0.12206

 Excited State   9:      Singlet-A      9.8756 eV  125.55 nm  f=0.0016  <S**2>=0.000
      13 -> 18         0.21405
      13 -> 19         0.63414

 Excited State  10:      Singlet-A      9.9177 eV  125.01 nm  f=0.0392  <S**2>=0.000
       8 -> 16         0.10522
       9 -> 15         0.12134
      11 -> 15         0.28465
      11 -> 16         0.17802
      11 -> 17        -0.26158
      12 -> 15        -0.10865
      12 -> 16         0.30637
      12 -> 17        -0.13730
      12 -> 18         0.27386
      13 -> 14        -0.10861

 Excited State  11:      Singlet-A     10.1181 eV  122.54 nm  f=0.1440  <S**2>=0.000
      11 -> 15         0.17095
      12 -> 15         0.64584
      12 -> 19         0.10554

 Excited State  12:      Singlet-A     10.6213 eV  116.73 nm  f=0.1507  <S**2>=0.000
      11 -> 16         0.51829
      11 -> 17        -0.12365
      11 -> 19        -0.14394
      12 -> 16        -0.38976
      12 -> 17         0.12386

 Excited State  13:      Singlet-A     10.7943 eV  114.86 nm  f=0.0656  <S**2>=0.000
      10 -> 15         0.13679
      13 -> 18        -0.18147
      13 -> 20         0.55655
      13 -> 21        -0.32955

 Excited State  14:      Singlet-A     10.8211 eV  114.58 nm  f=0.0348  <S**2>=0.000
       8 -> 16         0.18282
       9 -> 15        -0.15947
      10 -> 14        -0.10982
      10 -> 15         0.14003
      11 -> 15        -0.22178
      11 -> 16         0.13954
      11 -> 18        -0.18202
      11 -> 19        -0.19826
      12 -> 15         0.10213
      12 -> 16         0.32075
      12 -> 17         0.18066
      12 -> 19        -0.14361
      12 -> 20        -0.12849
      13 -> 21         0.14846

 Excited State  15:      Singlet-A     10.9031 eV  113.71 nm  f=0.0416  <S**2>=0.000
       9 -> 14         0.14509
      10 -> 15        -0.13151
      10 -> 16        -0.17417
      13 -> 18         0.17416
      13 -> 19        -0.10361
      13 -> 20         0.36277
      13 -> 21         0.46165

 The electronic state is 1-A.
 Alpha  occ. eigenvalues --   -1.92455  -1.18803  -0.92748  -0.82379  -0.77816
 Alpha  occ. eigenvalues --   -0.70301  -0.68464  -0.57007  -0.54874  -0.46789
 Alpha  occ. eigenvalues --   -0.44228  -0.42489  -0.31670
 Alpha virt. eigenvalues --    0.10909   0.17731   0.19427   0.26237   0.28016
 Alpha virt. eigenvalues --    0.29667   0.31927   0.35423   0.36523   0.44888
 Alpha virt. eigenvalues --    0.49061

 Mulliken charges:
               1
     1  C   -0.173712
     2  C   -2.045194
     3  O    3.297028
     4  C   -2.043480
     5  C   -0.143534
     6  H    0.209518
     7  H    0.327606
     8  H    0.359827
     9  H    0.211940
 Sum of Mulliken charges =   0.00000

 Dipole moment (field-independent basis, Debye):
    X=             -1.8795    Y=             -9.8533    Z=             -1.3217  Tot=             10.1177
 N-N= 1.044159941917D+02 E-N=-1.702518355457D+02  KE=-1.552730030800D+01
 Orbital energies and kinetic energies (alpha):
                                 1                 2
   1         O                -1.924547         -1.407952
   2         O                -1.188032         -1.056216
   3         O                -0.927483         -0.884765
   4         O                -0.823791         -0.564115
   5         O                -0.778163         -0.692170
   6         O                -0.703013         -0.577116
   7         O                -0.684636         -0.559285

 Normal termination of Gaussian 09 at Tue Dec 15 17:09:46 2015.
