 Gaussian 09, Revision D.01,
 Gaussian 09:  ES64L-G09RevD.01 24-Apr-2013

 ------------------------------------------------------------
 #P AM1(Input,print) CIS(Singlets,NStates=15) pop(full) force
 ------------------------------------------------------------

 -----------------
 AM1-Reparam Input
 -----------------
 Symbolic Z-matrix:
 Charge =  0 Multiplicity = 1

                         Standard orientation:
 ---------------------------------------------------------------------
 Center     Atomic      Atomic             Coordinates (Angstroms)
 Number     Number       Type             X           Y           Z
 ---------------------------------------------------------------------
      1          6           0       -0.975310    0.715668   -0.009273
      2          6           0       -0.928919   -0.602198   -0.018064
      3          8           0        0.318882   -1.148367    0.018147
      4          6           0        1.166129   -0.012823   -0.013168
      5          6           0        0.405930    1.103118    0.015270
      6          1           0        0.802026    2.164230   -0.016746
      7          1           0        2.195371   -0.198491   -0.022500
      8          1           0       -1.727105   -1.367089   -0.003242
      9          1           0       -1.828327    1.365698    0.048715
 ---------------------------------------------------------------------

 SCF Done:  E(RAM1) =  -5.72855210970     A.U. after   13 cycles

 Excitation energies and oscillator strengths:

 Excited State   1:      Singlet-A      6.6036 eV  187.75 nm  f=0.3171  <S**2>=0.000
      13 -> 14         0.68198
      13 -> 15         0.11314
 This state for optimization and/or second-order correction.
 Total Energy, E(CIS) =  -5.48587254281
 Copying the excited state density for this state as the 1-particle RhoCI density.

 Excited State   2:      Singlet-A      6.9268 eV  178.99 nm  f=0.0168  <S**2>=0.000
      13 -> 14        -0.11116
      13 -> 15         0.68137

 Excited State   3:      Singlet-A      8.0145 eV  154.70 nm  f=0.0072  <S**2>=0.000
      13 -> 16        -0.24176
      13 -> 17         0.62920

 Excited State   4:      Singlet-A      8.0874 eV  153.30 nm  f=0.0435  <S**2>=0.000
      12 -> 14        -0.27269
      13 -> 16         0.58102
      13 -> 17         0.24972

 Excited State   5:      Singlet-A      8.5281 eV  145.38 nm  f=0.0009  <S**2>=0.000
      11 -> 14         0.69353

 Excited State   6:      Singlet-A      9.2773 eV  133.64 nm  f=0.0221  <S**2>=0.000
       9 -> 14        -0.10251
      10 -> 14         0.66308
      12 -> 14        -0.15753

 Excited State   7:      Singlet-A      9.5610 eV  129.68 nm  f=0.4033  <S**2>=0.000
      10 -> 14         0.12767
      12 -> 14         0.56064
      12 -> 15         0.23998
      13 -> 16         0.24269

 Excited State   8:      Singlet-A      9.6520 eV  128.45 nm  f=0.0738  <S**2>=0.000
      10 -> 14        -0.12487
      12 -> 14        -0.22938
      12 -> 15         0.43296
      13 -> 16        -0.10323
      13 -> 18         0.29354
      13 -> 19         0.17022
      13 -> 20        -0.29074
      13 -> 22         0.11249

 Excited State   9:      Singlet-A      9.9002 eV  125.23 nm  f=0.0093  <S**2>=0.000
      12 -> 15         0.46898
      12 -> 17        -0.10921
      13 -> 18        -0.31358
      13 -> 19        -0.12986
      13 -> 20         0.29889
      13 -> 22        -0.12488

 Excited State  10:      Singlet-A      9.9898 eV  124.11 nm  f=0.0122  <S**2>=0.000
      12 -> 17        -0.10749
      13 -> 19         0.62969
      13 -> 20         0.23269

 Excited State  11:      Singlet-A     10.4009 eV  119.20 nm  f=0.0154  <S**2>=0.000
      12 -> 17         0.24347
      13 -> 18         0.45775
      13 -> 20         0.43370
      13 -> 21         0.16221

 Excited State  12:      Singlet-A     10.6729 eV  116.17 nm  f=0.1276  <S**2>=0.000
      10 -> 15        -0.12148
      12 -> 16         0.66741

 Excited State  13:      Singlet-A     11.0815 eV  111.88 nm  f=0.0013  <S**2>=0.000
      12 -> 17        -0.25565
      12 -> 19        -0.10260
      13 -> 21         0.57776
      13 -> 22         0.16180
      13 -> 23        -0.13438
      13 -> 24         0.12204

 Excited State  14:      Singlet-A     11.1036 eV  111.66 nm  f=0.0068  <S**2>=0.000
       9 -> 14         0.45299
      10 -> 16        -0.10371
      11 -> 15         0.23096
      11 -> 16         0.44734

 Excited State  15:      Singlet-A     11.2665 eV  110.05 nm  f=0.0884  <S**2>=0.000
       9 -> 14        -0.15080
      10 -> 15        -0.16821
      10 -> 17        -0.12449
      11 -> 15         0.51590
      11 -> 16        -0.12006
      11 -> 17        -0.24751
      12 -> 17         0.20817

 The electronic state is 1-A.
 Alpha  occ. eigenvalues --   -4.05702  -1.44965  -1.08712  -1.05050  -1.00250
 Alpha  occ. eigenvalues --   -0.96638  -0.92115  -0.75203  -0.72684  -0.66905
 Alpha  occ. eigenvalues --   -0.64589  -0.61952  -0.50848
 Alpha virt. eigenvalues --   -0.07953  -0.01409  -0.00234   0.02686   0.08505
 Alpha virt. eigenvalues --    0.10240   0.10773   0.12544   0.14824   0.16089
 Alpha virt. eigenvalues --    0.17180

 Mulliken charges:
               1
     1  C   -0.432624
     2  C   -1.090971
     3  O    2.348883
     4  C   -1.091944
     5  C   -0.426027
     6  H    0.218923
     7  H    0.128254
     8  H    0.144472
     9  H    0.201034
 Sum of Mulliken charges =   0.00000

 Dipole moment (field-independent basis, Debye):
    X=              2.3226    Y=             -9.4345    Z=              0.3339  Tot=              9.7219
 N-N= 1.023437188510D+02 E-N=-1.633949029004D+02  KE=-2.383735795248D+01
 Orbital energies and kinetic energies (alpha):
                                 1                 2
   1         O                -4.057023         -3.244281
   2         O                -1.449652         -1.237399
   3         O                -1.087116         -0.995345
   4         O                -1.050497         -0.940433
   5         O                -1.002503         -0.783314
   6         O                -0.966379         -0.811279
   7         O                -0.921149         -0.761730

 Normal termination of Gaussian 09 at Fri Dec 11 13:41:31 2015.
