 Gaussian 09, Revision D.01,
 Gaussian 09:  ES64L-G09RevD.01 24-Apr-2013

 ------------------------------------------------------------
 #P AM1(Input,print) CIS(Singlets,NStates=15) pop(full) force
 ------------------------------------------------------------

 -----------------
 AM1-Reparam Input
 -----------------
 Symbolic Z-matrix:
 Charge =  0 Multiplicity = 1

                         Standard orientation:
 ---------------------------------------------------------------------
 Center     Atomic      Atomic             Coordinates (Angstroms)
 Number     Number       Type             X           Y           Z
 ---------------------------------------------------------------------
      1          6           0       -0.604638    1.068931   -0.015413
      2          6           0       -1.152340   -0.264023    0.032375
      3          8           0       -0.149541   -1.118586   -0.035039
      4          6           0        1.069541   -0.492961    0.036707
      5          6           0        0.853211    0.849429   -0.018215
      6          1           0        1.528250    1.653489    0.034645
      7          1           0        1.939498   -1.071980    0.000474
      8          1           0       -2.163899   -0.586992    0.032373
      9          1           0       -1.102162    1.985913    0.000107
 ---------------------------------------------------------------------

 SCF Done:  E(RAM1) =   1.65687487650     A.U. after   13 cycles

 Excitation energies and oscillator strengths:

 Excited State   1:      Singlet-A      5.2652 eV  235.48 nm  f=0.3643  <S**2>=0.000
      13 -> 14         0.69608
 This state for optimization and/or second-order correction.
 Total Energy, E(CIS) =   1.85036815305
 Copying the excited state density for this state as the 1-particle RhoCI density.

 Excited State   2:      Singlet-A      6.4277 eV  192.89 nm  f=0.0114  <S**2>=0.000
      13 -> 15         0.64091
      13 -> 17         0.26575

 Excited State   3:      Singlet-A      6.7757 eV  182.98 nm  f=0.0014  <S**2>=0.000
      12 -> 14        -0.36362
      13 -> 16         0.45183
      13 -> 18        -0.10349
      13 -> 19        -0.36611

 Excited State   4:      Singlet-A      6.8668 eV  180.56 nm  f=0.0028  <S**2>=0.000
      12 -> 14         0.58205
      13 -> 16         0.34427
      13 -> 19        -0.15438

 Excited State   5:      Singlet-A      7.3077 eV  169.66 nm  f=0.0007  <S**2>=0.000
      11 -> 15         0.10226
      12 -> 14        -0.13121
      13 -> 16         0.29743
      13 -> 18         0.44464
      13 -> 19         0.39401
      13 -> 21         0.14240

 Excited State   6:      Singlet-A      8.0461 eV  154.09 nm  f=0.0174  <S**2>=0.000
      10 -> 14         0.30026
      11 -> 16        -0.10134
      13 -> 15        -0.21055
      13 -> 17         0.55566
      13 -> 20        -0.13457

 Excited State   7:      Singlet-A      8.1998 eV  151.20 nm  f=0.0001  <S**2>=0.000
      10 -> 14         0.61842
      13 -> 17        -0.29574

 Excited State   8:      Singlet-A      8.4223 eV  147.21 nm  f=0.1150  <S**2>=0.000
      11 -> 14         0.67933

 Excited State   9:      Singlet-A      8.5105 eV  145.68 nm  f=0.0039  <S**2>=0.000
      10 -> 14        -0.11177
      11 -> 14        -0.10454
      11 -> 15        -0.11662
      13 -> 16        -0.19862
      13 -> 18         0.49927
      13 -> 19        -0.36934
      13 -> 20        -0.13066

 Excited State  10:      Singlet-A      8.7830 eV  141.16 nm  f=0.0016  <S**2>=0.000
      13 -> 18        -0.14805
      13 -> 20        -0.46296
      13 -> 21         0.49616

 Excited State  11:      Singlet-A      9.0325 eV  137.26 nm  f=0.0844  <S**2>=0.000
      13 -> 19        -0.13866
      13 -> 20         0.48063
      13 -> 21         0.46433

 Excited State  12:      Singlet-A      9.5004 eV  130.50 nm  f=0.0599  <S**2>=0.000
       9 -> 19         0.10985
      10 -> 15        -0.19081
      10 -> 17        -0.20163
      12 -> 15         0.17323
      12 -> 16        -0.27822
      12 -> 18         0.15567
      12 -> 19         0.41930
      12 -> 21         0.12656

 Excited State  13:      Singlet-A      9.7104 eV  127.68 nm  f=0.0023  <S**2>=0.000
      11 -> 15         0.62745
      11 -> 17         0.16156
      13 -> 15         0.10207
      13 -> 16        -0.13805

 Excited State  14:      Singlet-A      9.9318 eV  124.83 nm  f=0.0206  <S**2>=0.000
      10 -> 19         0.10149
      12 -> 15         0.57341
      12 -> 16         0.16412
      12 -> 17         0.18923
      12 -> 19        -0.14137
      12 -> 20         0.12853

 Excited State  15:      Singlet-A     10.2372 eV  121.11 nm  f=0.0422  <S**2>=0.000
       8 -> 15        -0.14769
      10 -> 15         0.14713
      10 -> 17         0.12168
      10 -> 20        -0.10164
      12 -> 16         0.29931
      12 -> 18         0.44557
      12 -> 19         0.24002
      12 -> 20         0.17036

 The electronic state is 1-A.
 Alpha  occ. eigenvalues --   -1.91468  -1.20065  -0.99915  -0.82575  -0.80896
 Alpha  occ. eigenvalues --   -0.69341  -0.63118  -0.56648  -0.52160  -0.46112
 Alpha  occ. eigenvalues --   -0.43125  -0.41926  -0.29157
 Alpha virt. eigenvalues --    0.10326   0.17965   0.19530   0.23854   0.25736
 Alpha virt. eigenvalues --    0.26588   0.27384   0.28279   0.37806   0.45830
 Alpha virt. eigenvalues --    0.52057

 Mulliken charges:
               1
     1  C   -0.176412
     2  C   -1.997508
     3  O    3.200792
     4  C   -1.945209
     5  C   -0.086636
     6  H    0.182085
     7  H    0.308278
     8  H    0.323076
     9  H    0.191533
 Sum of Mulliken charges =   0.00000

 Dipole moment (field-independent basis, Debye):
    X=             -1.1290    Y=             -9.1730    Z=             -0.9483  Tot=              9.2907
 N-N= 1.036343334974D+02 E-N=-1.687061139841D+02  KE=-1.571869517329D+01
 Orbital energies and kinetic energies (alpha):
                                 1                 2
   1         O                -1.914677         -1.386305
   2         O                -1.200654         -1.078001
   3         O                -0.999146         -0.901082
   4         O                -0.825753         -0.643416
   5         O                -0.808963         -0.715402
   6         O                -0.693414         -0.587869
   7         O                -0.631183         -0.501257

 Normal termination of Gaussian 09 at Tue Dec 15 17:06:57 2015.
