 Gaussian 09, Revision D.01,
 Gaussian 09:  ES64L-G09RevD.01 24-Apr-2013

 ------------------------------------------------------------
 #P AM1(Input,print) CIS(Singlets,NStates=15) pop(full) force
 ------------------------------------------------------------

 -----------------
 AM1-Reparam Input
 -----------------
 Symbolic Z-matrix:
 Charge =  0 Multiplicity = 1

                         Standard orientation:
 ---------------------------------------------------------------------
 Center     Atomic      Atomic             Coordinates (Angstroms)
 Number     Number       Type             X           Y           Z
 ---------------------------------------------------------------------
      1          6           0        0.784739    0.890012    0.024979
      2          6           0        1.094651   -0.427110   -0.003319
      3          8           0       -0.098608   -1.146301   -0.008261
      4          6           0       -1.154740   -0.277523    0.017410
      5          6           0       -0.611548    1.025134   -0.026362
      6          1           0       -1.258019    1.925486   -0.014861
      7          1           0       -2.069470   -0.704131    0.026416
      8          1           0        1.965159   -1.006822   -0.021285
      9          1           0        1.472580    1.692791   -0.000433
 ---------------------------------------------------------------------

 SCF Done:  E(RAM1) =   1.71836862616     A.U. after   13 cycles

 Excitation energies and oscillator strengths:

 Excited State   1:      Singlet-A      5.6052 eV  221.20 nm  f=0.3485  <S**2>=0.000
      13 -> 14         0.69122
 This state for optimization and/or second-order correction.
 Total Energy, E(CIS) =   1.92435516970
 Copying the excited state density for this state as the 1-particle RhoCI density.

 Excited State   2:      Singlet-A      7.2515 eV  170.98 nm  f=0.0004  <S**2>=0.000
      12 -> 14         0.70016

 Excited State   3:      Singlet-A      7.5042 eV  165.22 nm  f=0.0090  <S**2>=0.000
      11 -> 14         0.11656
      13 -> 15         0.63008
      13 -> 16         0.20565
      13 -> 17        -0.16908

 Excited State   4:      Singlet-A      7.7105 eV  160.80 nm  f=0.0002  <S**2>=0.000
      10 -> 15        -0.12034
      13 -> 15        -0.20521
      13 -> 16         0.62874
      13 -> 18         0.11532
      13 -> 19        -0.16221

 Excited State   5:      Singlet-A      7.8448 eV  158.05 nm  f=0.0052  <S**2>=0.000
      11 -> 14         0.69198
      13 -> 15        -0.12599

 Excited State   6:      Singlet-A      9.1443 eV  135.59 nm  f=0.0005  <S**2>=0.000
      13 -> 16        -0.11163
      13 -> 18         0.61062
      13 -> 22        -0.28441

 Excited State   7:      Singlet-A      9.4404 eV  131.33 nm  f=0.0910  <S**2>=0.000
      10 -> 14         0.67790

 Excited State   8:      Singlet-A      9.5138 eV  130.32 nm  f=0.0092  <S**2>=0.000
      10 -> 16        -0.15493
      13 -> 15         0.12961
      13 -> 17         0.65917

 Excited State   9:      Singlet-A     10.0736 eV  123.08 nm  f=0.0011  <S**2>=0.000
      10 -> 15        -0.11977
      13 -> 16         0.12370
      13 -> 18         0.10184
      13 -> 19         0.65994

 Excited State  10:      Singlet-A     10.1068 eV  122.67 nm  f=0.0596  <S**2>=0.000
       8 -> 15        -0.10201
       9 -> 16        -0.12406
      11 -> 15         0.34881
      11 -> 17        -0.28133
      12 -> 16        -0.27555
      12 -> 18        -0.33881
      13 -> 14         0.10969

 Excited State  11:      Singlet-A     10.6480 eV  116.44 nm  f=0.0099  <S**2>=0.000
      11 -> 16         0.33033
      11 -> 19        -0.12683
      12 -> 15         0.54855
      12 -> 16         0.11491
      12 -> 17        -0.16137

 Excited State  12:      Singlet-A     10.6838 eV  116.05 nm  f=0.2818  <S**2>=0.000
      11 -> 15         0.32669
      12 -> 15        -0.21146
      12 -> 16         0.51882
      12 -> 19        -0.13649
      13 -> 20        -0.10139

 Excited State  13:      Singlet-A     10.7159 eV  115.70 nm  f=0.0530  <S**2>=0.000
      12 -> 16         0.10000
      13 -> 18        -0.24628
      13 -> 19         0.10612
      13 -> 20         0.49676
      13 -> 22        -0.37825

 Excited State  14:      Singlet-A     10.9678 eV  113.04 nm  f=0.0577  <S**2>=0.000
      13 -> 18         0.15947
      13 -> 20         0.44312
      13 -> 22         0.49225

 Excited State  15:      Singlet-A     11.1072 eV  111.62 nm  f=0.0604  <S**2>=0.000
       8 -> 16         0.13587
       9 -> 15         0.14666
      10 -> 14        -0.12543
      11 -> 16        -0.27484
      11 -> 18         0.11402
      11 -> 19         0.20523
      12 -> 15         0.15147
      12 -> 16         0.10976
      12 -> 17         0.10372
      12 -> 20        -0.11456
      13 -> 21         0.45487

 The electronic state is 1-A.
 Alpha  occ. eigenvalues --   -1.90600  -1.17267  -0.92736  -0.82280  -0.79419
 Alpha  occ. eigenvalues --   -0.70163  -0.67325  -0.58146  -0.56370  -0.47326
 Alpha  occ. eigenvalues --   -0.44612  -0.42984  -0.31592
 Alpha virt. eigenvalues --    0.10370   0.19723   0.20159   0.26704   0.28237
 Alpha virt. eigenvalues --    0.30026   0.31874   0.32561   0.34656   0.40889
 Alpha virt. eigenvalues --    0.45142

 Mulliken charges:
               1
     1  C   -0.135628
     2  C   -2.018044
     3  O    3.312466
     4  C   -2.040107
     5  C   -0.190393
     6  H    0.216452
     7  H    0.320219
     8  H    0.324348
     9  H    0.210688
 Sum of Mulliken charges =   0.00000

 Dipole moment (field-independent basis, Debye):
    X=             -0.6972    Y=            -10.4798    Z=             -0.2354  Tot=             10.5056
 N-N= 1.036211896379D+02 E-N=-1.686922241511D+02  KE=-1.549703400262D+01
 Orbital energies and kinetic energies (alpha):
                                 1                 2
   1         O                -1.906003         -1.354945
   2         O                -1.172666         -1.044241
   3         O                -0.927358         -0.878853
   4         O                -0.822800         -0.588468
   5         O                -0.794195         -0.699924
   6         O                -0.701625         -0.598097
   7         O                -0.673246         -0.533095

 Normal termination of Gaussian 09 at Tue Dec 15 17:09:40 2015.
