 Gaussian 09, Revision D.01,
 Gaussian 09:  ES64L-G09RevD.01 24-Apr-2013

 ------------------------------------------------------------
 #P AM1(Input,print) CIS(Singlets,NStates=15) pop(full) force
 ------------------------------------------------------------

 -----------------
 AM1-Reparam Input
 -----------------
 Symbolic Z-matrix:
 Charge =  0 Multiplicity = 1

                         Standard orientation:
 ---------------------------------------------------------------------
 Center     Atomic      Atomic             Coordinates (Angstroms)
 Number     Number       Type             X           Y           Z
 ---------------------------------------------------------------------
      1          6           0        0.070270    1.220215    0.033094
      2          6           0        1.095662    0.248151    0.007007
      3          8           0        0.629743   -0.973439   -0.014514
      4          6           0       -0.702132   -0.852046    0.007143
      5          6           0       -1.140103    0.409482   -0.025611
      6          1           0       -2.147956    0.807186   -0.000010
      7          1           0       -1.313116   -1.781554    0.064889
      8          1           0        2.230622    0.359411   -0.013713
      9          1           0        0.250327    2.247660   -0.064854
 ---------------------------------------------------------------------

 SCF Done:  E(RAM1) =   1.68634811590     A.U. after   13 cycles

 Excitation energies and oscillator strengths:

 Excited State   1:      Singlet-A      5.3765 eV  230.60 nm  f=0.3487  <S**2>=0.000
      13 -> 14         0.69410
 This state for optimization and/or second-order correction.
 Total Energy, E(CIS) =   1.88393211709
 Copying the excited state density for this state as the 1-particle RhoCI density.

 Excited State   2:      Singlet-A      6.1716 eV  200.89 nm  f=0.0048  <S**2>=0.000
      13 -> 15         0.64441
      13 -> 16         0.11063
      13 -> 17         0.22389

 Excited State   3:      Singlet-A      6.3436 eV  195.45 nm  f=0.0010  <S**2>=0.000
      13 -> 16         0.65121
      13 -> 19         0.18594

 Excited State   4:      Singlet-A      7.0248 eV  176.50 nm  f=0.0010  <S**2>=0.000
      11 -> 14        -0.11170
      12 -> 14         0.67220

 Excited State   5:      Singlet-A      7.4876 eV  165.59 nm  f=0.0006  <S**2>=0.000
      12 -> 14        -0.14919
      13 -> 15         0.11030
      13 -> 16        -0.10291
      13 -> 17        -0.18531
      13 -> 19         0.40399
      13 -> 20        -0.34307
      13 -> 21         0.34016

 Excited State   6:      Singlet-A      7.6422 eV  162.24 nm  f=0.0245  <S**2>=0.000
      13 -> 15        -0.17953
      13 -> 17         0.63053
      13 -> 19         0.12141
      13 -> 21         0.15229

 Excited State   7:      Singlet-A      8.1708 eV  151.74 nm  f=0.0018  <S**2>=0.000
      10 -> 14         0.67384
      13 -> 19         0.10548
      13 -> 20         0.11206

 Excited State   8:      Singlet-A      8.3332 eV  148.78 nm  f=0.0028  <S**2>=0.000
      10 -> 14         0.13856
      13 -> 16         0.12948
      13 -> 18         0.54365
      13 -> 19        -0.32485
      13 -> 20        -0.16943
      13 -> 21         0.14501

 Excited State   9:      Singlet-A      8.5315 eV  145.33 nm  f=0.0839  <S**2>=0.000
      11 -> 14         0.63016
      12 -> 14         0.11075
      13 -> 18        -0.11584
      13 -> 19        -0.13389
      13 -> 21         0.11152

 Excited State  10:      Singlet-A      8.5978 eV  144.20 nm  f=0.0203  <S**2>=0.000
      11 -> 14         0.21704
      13 -> 18         0.39978
      13 -> 19         0.36250
      13 -> 20         0.23988
      13 -> 21        -0.29617

 Excited State  11:      Singlet-A      9.0066 eV  137.66 nm  f=0.0705  <S**2>=0.000
      13 -> 20         0.49196
      13 -> 21         0.46584

 Excited State  12:      Singlet-A      9.2634 eV  133.84 nm  f=0.0037  <S**2>=0.000
      11 -> 15         0.61859
      11 -> 17         0.12403
      12 -> 15         0.16830
      13 -> 15         0.12545
      13 -> 16        -0.10815

 Excited State  13:      Singlet-A      9.3126 eV  133.14 nm  f=0.1459  <S**2>=0.000
       8 -> 15        -0.19996
       8 -> 16        -0.10294
      10 -> 15        -0.17657
      10 -> 17        -0.19876
      12 -> 15        -0.17463
      12 -> 16         0.45737
      12 -> 19         0.12123
      12 -> 21         0.13455

 Excited State  14:      Singlet-A      9.6588 eV  128.36 nm  f=0.0445  <S**2>=0.000
       8 -> 15         0.10011
       8 -> 16        -0.11224
      11 -> 15        -0.17080
      11 -> 16         0.38318
      12 -> 15         0.38913
      12 -> 16         0.23421
      12 -> 21        -0.11583

 Excited State  15:      Singlet-A      9.7826 eV  126.74 nm  f=0.0524  <S**2>=0.000
       8 -> 16         0.12077
      11 -> 16         0.50924
      12 -> 15        -0.34770

 The electronic state is 1-A.
 Alpha  occ. eigenvalues --   -1.92230  -1.21251  -0.98246  -0.82595  -0.79017
 Alpha  occ. eigenvalues --   -0.68496  -0.63735  -0.53169  -0.51287  -0.44308
 Alpha  occ. eigenvalues --   -0.41975  -0.40709  -0.27867
 Alpha virt. eigenvalues --    0.12358   0.16751   0.17766   0.24893   0.27196
 Alpha virt. eigenvalues --    0.28221   0.28688   0.30122   0.39427   0.48415
 Alpha virt. eigenvalues --    0.52787

 Mulliken charges:
               1
     1  C   -0.155884
     2  C   -1.964458
     3  O    3.168765
     4  C   -1.933733
     5  C   -0.082556
     6  H    0.171227
     7  H    0.309411
     8  H    0.307775
     9  H    0.179455
 Sum of Mulliken charges =   0.00000

 Dipole moment (field-independent basis, Debye):
    X=              5.2791    Y=             -8.6386    Z=             -0.2945  Tot=             10.1282
 N-N= 1.040214644066D+02 E-N=-1.696382007753D+02  KE=-1.573435695426D+01
 Orbital energies and kinetic energies (alpha):
                                 1                 2
   1         O                -1.922299         -1.407737
   2         O                -1.212510         -1.100309
   3         O                -0.982456         -0.900668
   4         O                -0.825950         -0.633807
   5         O                -0.790172         -0.688857
   6         O                -0.684957         -0.586347
   7         O                -0.637346         -0.512763

 Normal termination of Gaussian 09 at Tue Dec 15 17:07:07 2015.
