 Gaussian 09, Revision D.01,
 Gaussian 09:  ES64L-G09RevD.01 24-Apr-2013

 ------------------------------------------------------------
 #P AM1(Input,print) CIS(Singlets,NStates=15) pop(full) force
 ------------------------------------------------------------

 -----------------
 AM1-Reparam Input
 -----------------
 Symbolic Z-matrix:
 Charge =  0 Multiplicity = 1

                         Standard orientation:
 ---------------------------------------------------------------------
 Center     Atomic      Atomic             Coordinates (Angstroms)
 Number     Number       Type             X           Y           Z
 ---------------------------------------------------------------------
      1          6           0        0.924730    0.802116   -0.001519
      2          6           0        0.978904   -0.505533   -0.017753
      3          8           0       -0.216221   -1.150469    0.005277
      4          6           0       -1.100722   -0.163239    0.001189
      5          6           0       -0.573084    1.091656    0.000874
      6          1           0       -1.070051    1.991082   -0.016060
      7          1           0       -2.123968   -0.465702    0.005121
      8          1           0        1.856634   -1.238558    0.028856
      9          1           0        1.688186    1.566931    0.043121
 ---------------------------------------------------------------------

 SCF Done:  E(RAM1) =   1.87127701652     A.U. after   13 cycles

 Excitation energies and oscillator strengths:

 Excited State   1:      Singlet-A      5.3165 eV  233.21 nm  f=0.3482  <S**2>=0.000
      13 -> 14         0.69454
 This state for optimization and/or second-order correction.
 Total Energy, E(CIS) =   2.06665563231
 Copying the excited state density for this state as the 1-particle RhoCI density.

 Excited State   2:      Singlet-A      5.7595 eV  215.27 nm  f=0.0004  <S**2>=0.000
      13 -> 15         0.66935
      13 -> 16        -0.13207
      13 -> 18        -0.12241

 Excited State   3:      Singlet-A      6.0683 eV  204.31 nm  f=0.0018  <S**2>=0.000
      13 -> 15         0.14120
      13 -> 16         0.66192
      13 -> 17        -0.15261

 Excited State   4:      Singlet-A      6.3754 eV  194.47 nm  f=0.0003  <S**2>=0.000
      12 -> 14         0.70281

 Excited State   5:      Singlet-A      7.6544 eV  161.98 nm  f=0.0001  <S**2>=0.000
      13 -> 16        -0.10528
      13 -> 17        -0.35627
      13 -> 18         0.52695
      13 -> 21        -0.24069

 Excited State   6:      Singlet-A      7.8963 eV  157.02 nm  f=0.0132  <S**2>=0.000
      10 -> 14         0.25308
      11 -> 14         0.51053
      13 -> 17        -0.32308
      13 -> 18        -0.24074

 Excited State   7:      Singlet-A      8.0724 eV  153.59 nm  f=0.0048  <S**2>=0.000
      10 -> 14         0.17507
      11 -> 14         0.37121
      13 -> 17         0.46720
      13 -> 18         0.30308

 Excited State   8:      Singlet-A      8.4467 eV  146.78 nm  f=0.1803  <S**2>=0.000
       8 -> 15        -0.15816
      10 -> 14         0.21333
      12 -> 15         0.56989
      12 -> 16        -0.12768
      12 -> 17         0.12909
      12 -> 18        -0.14470

 Excited State   9:      Singlet-A      8.6668 eV  143.06 nm  f=0.0011  <S**2>=0.000
      13 -> 19         0.67946
      13 -> 21         0.11893

 Excited State  10:      Singlet-A      8.8249 eV  140.49 nm  f=0.0806  <S**2>=0.000
       8 -> 16         0.12711
      10 -> 14         0.47710
      11 -> 14        -0.24020
      12 -> 16         0.36700
      12 -> 18         0.12025

 Excited State  11:      Singlet-A      9.2497 eV  134.04 nm  f=0.0732  <S**2>=0.000
      10 -> 14        -0.28613
      11 -> 14         0.14347
      11 -> 15        -0.15398
      12 -> 15         0.32351
      12 -> 16         0.43246
      12 -> 17        -0.18085

 Excited State  12:      Singlet-A      9.4323 eV  131.45 nm  f=0.0006  <S**2>=0.000
      13 -> 17        -0.11785
      13 -> 18         0.22926
      13 -> 21         0.63065

 Excited State  13:      Singlet-A      9.6070 eV  129.06 nm  f=0.0800  <S**2>=0.000
      10 -> 15        -0.22744
      10 -> 16         0.11327
      11 -> 15         0.19486
      12 -> 16         0.11193
      13 -> 20         0.57790

 Excited State  14:      Singlet-A      9.6389 eV  128.63 nm  f=0.0757  <S**2>=0.000
       9 -> 15        -0.10709
      10 -> 16        -0.12726
      10 -> 17         0.10546
      11 -> 16        -0.26959
      11 -> 17         0.19694
      12 -> 15         0.11147
      12 -> 16        -0.28119
      12 -> 17        -0.12997
      12 -> 18         0.32161
      12 -> 19        -0.11958
      12 -> 21        -0.11955
      13 -> 20         0.21863

 Excited State  15:      Singlet-A      9.7224 eV  127.52 nm  f=0.0180  <S**2>=0.000
       8 -> 15        -0.11061
      10 -> 15        -0.35739
      10 -> 16        -0.10153
      11 -> 15         0.43897
      12 -> 18         0.13365
      13 -> 20        -0.27769

 The electronic state is 1-A.
 Alpha  occ. eigenvalues --   -1.94943  -1.20296  -0.98036  -0.81636  -0.79148
 Alpha  occ. eigenvalues --   -0.68951  -0.67123  -0.50213  -0.48648  -0.42259
 Alpha  occ. eigenvalues --   -0.41986  -0.36661  -0.25742
 Alpha virt. eigenvalues --    0.13656   0.17324   0.18923   0.28163   0.29333
 Alpha virt. eigenvalues --    0.31061   0.33629   0.35315   0.37163   0.46436
 Alpha virt. eigenvalues --    0.50118

 Mulliken charges:
               1
     1  C   -0.071989
     2  C   -1.854444
     3  O    3.103540
     4  C   -1.902053
     5  C   -0.155493
     6  H    0.152201
     7  H    0.302487
     8  H    0.283718
     9  H    0.142034
 Sum of Mulliken charges =   0.00000

 Dipole moment (field-independent basis, Debye):
    X=             -1.7727    Y=            -10.7971    Z=              0.2791  Tot=             10.9452
 N-N= 1.041955782965D+02 E-N=-1.698751832224D+02  KE=-1.566059129847D+01
 Orbital energies and kinetic energies (alpha):
                                 1                 2
   1         O                -1.949431         -1.425436
   2         O                -1.202963         -1.080197
   3         O                -0.980360         -0.906869
   4         O                -0.816357         -0.621738
   5         O                -0.791478         -0.688467
   6         O                -0.689513         -0.571414
   7         O                -0.671227         -0.572495

 Normal termination of Gaussian 09 at Tue Dec 15 17:10:02 2015.
