 Gaussian 09, Revision D.01,
 Gaussian 09:  ES64L-G09RevD.01 24-Apr-2013

 ------------------------------------------------------------
 #P AM1(Input,print) CIS(Singlets,NStates=15) pop(full) force
 ------------------------------------------------------------

 -----------------
 AM1-Reparam Input
 -----------------
 Symbolic Z-matrix:
 Charge =  0 Multiplicity = 1

                         Standard orientation:
 ---------------------------------------------------------------------
 Center     Atomic      Atomic             Coordinates (Angstroms)
 Number     Number       Type             X           Y           Z
 ---------------------------------------------------------------------
      1          6           0       -0.743755    0.928976   -0.008493
      2          6           0       -1.092569   -0.362042   -0.008402
      3          8           0       -0.006767   -1.137432    0.000742
      4          6           0        1.131052   -0.315910   -0.016647
      5          6           0        0.702879    0.929417    0.010949
      6          1           0        1.371381    1.803845    0.032348
      7          1           0        2.052946   -0.811230    0.032611
      8          1           0       -1.994924   -0.820840    0.078009
      9          1           0       -1.360904    1.845042   -0.013350
 ---------------------------------------------------------------------

 SCF Done:  E(RAM1) =   2.07108720083     A.U. after   14 cycles

 Excitation energies and oscillator strengths:

 Excited State   1:      Singlet-A      5.2146 eV  237.76 nm  f=0.3501  <S**2>=0.000
      13 -> 14         0.69585
 This state for optimization and/or second-order correction.
 Total Energy, E(CIS) =   2.26271930471
 Copying the excited state density for this state as the 1-particle RhoCI density.

 Excited State   2:      Singlet-A      6.6076 eV  187.64 nm  f=0.0079  <S**2>=0.000
      12 -> 14         0.11098
      13 -> 15         0.63538
      13 -> 17         0.18532
      13 -> 18         0.16053

 Excited State   3:      Singlet-A      6.6469 eV  186.53 nm  f=0.0011  <S**2>=0.000
      12 -> 14         0.68490
      13 -> 15        -0.12528

 Excited State   4:      Singlet-A      6.9236 eV  179.08 nm  f=0.0060  <S**2>=0.000
      13 -> 15         0.12330
      13 -> 16         0.61224
      13 -> 18        -0.27540

 Excited State   5:      Singlet-A      7.6422 eV  162.24 nm  f=0.0068  <S**2>=0.000
      11 -> 14         0.67762
      13 -> 19         0.10786

 Excited State   6:      Singlet-A      7.7501 eV  159.98 nm  f=0.0001  <S**2>=0.000
      11 -> 14        -0.17739
      13 -> 16         0.22234
      13 -> 17         0.13113
      13 -> 18         0.43363
      13 -> 19         0.37990
      13 -> 20        -0.18362
      13 -> 21         0.11388

 Excited State   7:      Singlet-A      8.6474 eV  143.38 nm  f=0.0131  <S**2>=0.000
      10 -> 16         0.10734
      13 -> 15        -0.16105
      13 -> 17         0.64014
      13 -> 18        -0.11663

 Excited State   8:      Singlet-A      8.8676 eV  139.82 nm  f=0.1090  <S**2>=0.000
      10 -> 14         0.68158

 Excited State   9:      Singlet-A      8.9961 eV  137.82 nm  f=0.0002  <S**2>=0.000
      13 -> 16        -0.17464
      13 -> 18        -0.33822
      13 -> 19         0.56444

 Excited State  10:      Singlet-A      9.4209 eV  131.60 nm  f=0.0076  <S**2>=0.000
      13 -> 18         0.23551
      13 -> 20         0.64095
      13 -> 21        -0.11297

 Excited State  11:      Singlet-A      9.4421 eV  131.31 nm  f=0.0111  <S**2>=0.000
      11 -> 15        -0.13820
      11 -> 16        -0.17623
      11 -> 17        -0.18318
      11 -> 18         0.13022
      12 -> 15         0.29140
      12 -> 16        -0.22434
      12 -> 17         0.14735
      12 -> 18         0.37200
      12 -> 19         0.18760

 Excited State  12:      Singlet-A      9.7412 eV  127.28 nm  f=0.0748  <S**2>=0.000
      13 -> 20         0.12998
      13 -> 21         0.67720

 Excited State  13:      Singlet-A      9.9990 eV  124.00 nm  f=0.0189  <S**2>=0.000
      11 -> 15         0.28131
      11 -> 17         0.11795
      11 -> 18         0.10052
      12 -> 15         0.50262
      12 -> 16         0.22807
      12 -> 17         0.14284
      12 -> 18        -0.12353
      12 -> 19        -0.13169

 Excited State  14:      Singlet-A     10.1229 eV  122.48 nm  f=0.2805  <S**2>=0.000
      11 -> 15        -0.24443
      11 -> 16        -0.24420
      11 -> 17        -0.13012
      12 -> 15        -0.10891
      12 -> 16         0.51341
      12 -> 19         0.21143

 Excited State  15:      Singlet-A     10.5110 eV  117.96 nm  f=0.0149  <S**2>=0.000
       8 -> 15        -0.10020
       9 -> 15        -0.23510
      10 -> 15         0.27537
      11 -> 15         0.33273
      11 -> 16        -0.10602
      11 -> 19        -0.21825
      12 -> 15        -0.14050
      12 -> 17         0.16989
      12 -> 18         0.13372
      12 -> 19         0.17574
      12 -> 20        -0.12681

 The electronic state is 1-A.
 Alpha  occ. eigenvalues --   -1.94854  -1.20270  -0.97903  -0.82537  -0.79467
 Alpha  occ. eigenvalues --   -0.69283  -0.65636  -0.56424  -0.53933  -0.45154
 Alpha  occ. eigenvalues --   -0.43863  -0.40943  -0.28976
 Alpha virt. eigenvalues --    0.10609   0.19343   0.20734   0.25978   0.27166
 Alpha virt. eigenvalues --    0.28338   0.30102   0.30299   0.34975   0.43624
 Alpha virt. eigenvalues --    0.48502

 Mulliken charges:
               1
     1  C   -0.266164
     2  C   -2.007071
     3  O    3.193638
     4  C   -1.978715
     5  C   -0.194926
     6  H    0.260223
     7  H    0.357861
     8  H    0.370162
     9  H    0.264992
 Sum of Mulliken charges =   0.00000

 Dipole moment (field-independent basis, Debye):
    X=             -0.1204    Y=            -10.0224    Z=              0.4933  Tot=             10.0353
 N-N= 1.046886721296D+02 E-N=-1.701230321563D+02  KE=-1.552724214019D+01
 Orbital energies and kinetic energies (alpha):
                                 1                 2
   1         O                -1.948544         -1.392862
   2         O                -1.202705         -1.058458
   3         O                -0.979028         -0.886124
   4         O                -0.825375         -0.603630
   5         O                -0.794671         -0.692273
   6         O                -0.692835         -0.555813
   7         O                -0.656364         -0.524070

 Normal termination of Gaussian 09 at Tue Dec 15 17:07:29 2015.
