 Gaussian 09, Revision D.01,
 Gaussian 09:  ES64L-G09RevD.01 24-Apr-2013

 ------------------------------------------------------------
 #P AM1(Input,print) CIS(Singlets,NStates=15) pop(full) force
 ------------------------------------------------------------

 -----------------
 AM1-Reparam Input
 -----------------
 Symbolic Z-matrix:
 Charge =  0 Multiplicity = 1

                         Standard orientation:
 ---------------------------------------------------------------------
 Center     Atomic      Atomic             Coordinates (Angstroms)
 Number     Number       Type             X           Y           Z
 ---------------------------------------------------------------------
      1          6           0        0.657691    0.968838    0.044262
      2          6           0        1.142680   -0.235774   -0.032656
      3          8           0        0.098969   -1.115651    0.020825
      4          6           0       -1.072876   -0.403624   -0.016764
      5          6           0       -0.822255    0.845673   -0.004951
      6          1           0       -1.530414    1.715047   -0.027783
      7          1           0       -1.984058   -1.063644    0.006417
      8          1           0        2.122164   -0.697798   -0.032013
      9          1           0        1.169120    1.920926   -0.052563
 ---------------------------------------------------------------------

 SCF Done:  E(RAM1) =   2.63595154188     A.U. after   13 cycles

 Excitation energies and oscillator strengths:

 Excited State   1:      Singlet-A      4.6639 eV  265.84 nm  f=0.3666  <S**2>=0.000
      13 -> 14         0.69941
 This state for optimization and/or second-order correction.
 Total Energy, E(CIS) =   2.80734609314
 Copying the excited state density for this state as the 1-particle RhoCI density.

 Excited State   2:      Singlet-A      5.5335 eV  224.06 nm  f=0.0003  <S**2>=0.000
      13 -> 15         0.65824
      13 -> 16        -0.12224
      13 -> 17         0.15548
      13 -> 19        -0.12419

 Excited State   3:      Singlet-A      6.0687 eV  204.30 nm  f=0.0022  <S**2>=0.000
      13 -> 15         0.13439
      13 -> 16         0.66578
      13 -> 18        -0.10822

 Excited State   4:      Singlet-A      6.1408 eV  201.90 nm  f=0.0012  <S**2>=0.000
      12 -> 14         0.69552

 Excited State   5:      Singlet-A      7.1218 eV  174.09 nm  f=0.0002  <S**2>=0.000
      13 -> 15        -0.14675
      13 -> 17         0.67121
      13 -> 21        -0.10770

 Excited State   6:      Singlet-A      7.3572 eV  168.52 nm  f=0.0059  <S**2>=0.000
      11 -> 14         0.69863

 Excited State   7:      Singlet-A      8.5639 eV  144.78 nm  f=0.1057  <S**2>=0.000
      10 -> 14         0.67561

 Excited State   8:      Singlet-A      8.6804 eV  142.83 nm  f=0.0080  <S**2>=0.000
      10 -> 15         0.15931
      13 -> 18         0.65927

 Excited State   9:      Singlet-A      8.8421 eV  140.22 nm  f=0.1703  <S**2>=0.000
       8 -> 16        -0.10653
      11 -> 18         0.11823
      12 -> 15         0.57412
      12 -> 16        -0.14230
      12 -> 17         0.28001

 Excited State  10:      Singlet-A      9.0433 eV  137.10 nm  f=0.0006  <S**2>=0.000
      10 -> 16         0.15061
      13 -> 19         0.66717

 Excited State  11:      Singlet-A      9.4675 eV  130.96 nm  f=0.1051  <S**2>=0.000
      11 -> 15        -0.27173
      11 -> 16        -0.23994
      11 -> 18         0.20148
      12 -> 15        -0.29799
      12 -> 16        -0.22544
      12 -> 17         0.38590

 Excited State  12:      Singlet-A      9.5978 eV  129.18 nm  f=0.0771  <S**2>=0.000
      11 -> 15         0.20886
      11 -> 16        -0.27673
      12 -> 16         0.52617
      12 -> 17         0.20374

 Excited State  13:      Singlet-A     10.1520 eV  122.13 nm  f=0.0062  <S**2>=0.000
       7 -> 16        -0.11529
      10 -> 15         0.62962
      11 -> 15         0.11416
      13 -> 16        -0.10204
      13 -> 18        -0.15760

 Excited State  14:      Singlet-A     10.2720 eV  120.70 nm  f=0.0322  <S**2>=0.000
       8 -> 15         0.19949
       9 -> 15         0.13323
       9 -> 16         0.16271
      10 -> 15        -0.16469
      10 -> 16        -0.18959
      11 -> 15         0.40596
      11 -> 17        -0.12745
      11 -> 19        -0.18199
      12 -> 16        -0.22682
      12 -> 17         0.11384
      12 -> 18        -0.13988

 Excited State  15:      Singlet-A     10.3193 eV  120.15 nm  f=0.0020  <S**2>=0.000
       9 -> 14         0.61701
      10 -> 16         0.23890

 The electronic state is 1-A.
 Alpha  occ. eigenvalues --   -1.85634  -1.12861  -0.89481  -0.79811  -0.74648
 Alpha  occ. eigenvalues --   -0.66479  -0.64099  -0.56629  -0.54505  -0.45898
 Alpha  occ. eigenvalues --   -0.44460  -0.41010  -0.27955
 Alpha virt. eigenvalues --    0.08503   0.15594   0.17303   0.24493   0.27573
 Alpha virt. eigenvalues --    0.29771   0.36564   0.40277   0.47647   0.55162
 Alpha virt. eigenvalues --    0.59477

 Mulliken charges:
               1
     1  C   -0.251210
     2  C   -1.966207
     3  O    3.439942
     4  C   -1.955282
     5  C   -0.217055
     6  H    0.202139
     7  H    0.274342
     8  H    0.270134
     9  H    0.203197
 Sum of Mulliken charges =   0.00000

 Dipole moment (field-independent basis, Debye):
    X=              0.6563    Y=            -11.5539    Z=              0.5707  Tot=             11.5866
 N-N= 1.042963495221D+02 E-N=-1.700914121632D+02  KE=-1.435996841449D+01
 Orbital energies and kinetic energies (alpha):
                                 1                 2
   1         O                -1.856341         -1.256335
   2         O                -1.128613         -0.953192
   3         O                -0.894814         -0.799769
   4         O                -0.798112         -0.533140
   5         O                -0.746477         -0.629706
   6         O                -0.664788         -0.523005
   7         O                -0.640994         -0.502377

 Normal termination of Gaussian 09 at Tue Dec 15 17:07:36 2015.
