 Gaussian 09, Revision D.01,
 Gaussian 09:  ES64L-G09RevD.01 24-Apr-2013

 ------------------------------------------------------------
 #P AM1(Input,print) CIS(Singlets,NStates=15) pop(full) force
 ------------------------------------------------------------

 -----------------
 AM1-Reparam Input
 -----------------
 Symbolic Z-matrix:
 Charge =  0 Multiplicity = 1

                         Standard orientation:
 ---------------------------------------------------------------------
 Center     Atomic      Atomic             Coordinates (Angstroms)
 Number     Number       Type             X           Y           Z
 ---------------------------------------------------------------------
      1          6           0        0.284427    1.155142   -0.014745
      2          6           0       -1.009958    0.597668   -0.004234
      3          8           0       -0.898506   -0.785851    0.003526
      4          6           0        0.448782   -1.041636    0.009463
      5          6           0        1.206793    0.132270   -0.010155
      6          1           0        2.319277    0.109767    0.026051
      7          1           0        0.757952   -2.073515   -0.015654
      8          1           0       -1.915603    0.955824    0.004693
      9          1           0        0.446161    2.234072    0.074725
 ---------------------------------------------------------------------

 SCF Done:  E(RAM1) =   1.81686044348     A.U. after   14 cycles

 Excitation energies and oscillator strengths:

 Excited State   1:      Singlet-A      5.9708 eV  207.65 nm  f=0.2790  <S**2>=0.000
      11 -> 17         0.10637
      13 -> 14         0.68025
 This state for optimization and/or second-order correction.
 Total Energy, E(CIS) =   2.03628512167
 Copying the excited state density for this state as the 1-particle RhoCI density.

 Excited State   2:      Singlet-A      6.8471 eV  181.07 nm  f=0.0048  <S**2>=0.000
      10 -> 15         0.12793
      13 -> 15         0.63796
      13 -> 16         0.15863
      13 -> 17        -0.17339

 Excited State   3:      Singlet-A      7.1272 eV  173.96 nm  f=0.0046  <S**2>=0.000
      12 -> 14         0.69068

 Excited State   4:      Singlet-A      7.3020 eV  169.79 nm  f=0.0029  <S**2>=0.000
      10 -> 16        -0.11271
      13 -> 15        -0.15049
      13 -> 16         0.63680
      13 -> 19        -0.15730

 Excited State   5:      Singlet-A      7.6850 eV  161.33 nm  f=0.0034  <S**2>=0.000
      10 -> 14        -0.11271
      11 -> 14         0.68577

 Excited State   6:      Singlet-A      8.5391 eV  145.20 nm  f=0.0095  <S**2>=0.000
      10 -> 15         0.14779
      13 -> 15         0.13057
      13 -> 17         0.58372
      13 -> 18        -0.25299
      13 -> 19        -0.10694
      13 -> 22         0.14761

 Excited State   7:      Singlet-A      8.7699 eV  141.37 nm  f=0.0012  <S**2>=0.000
      10 -> 16        -0.13704
      13 -> 17         0.28092
      13 -> 18         0.56381
      13 -> 22        -0.26635

 Excited State   8:      Singlet-A      8.9893 eV  137.92 nm  f=0.0782  <S**2>=0.000
      10 -> 14         0.66301
      11 -> 14         0.10542
      12 -> 15        -0.11421

 Excited State   9:      Singlet-A      9.0883 eV  136.42 nm  f=0.0623  <S**2>=0.000
       9 -> 15         0.13568
       9 -> 19         0.10574
      11 -> 15        -0.24411
      11 -> 16        -0.27946
      11 -> 17         0.22676
      12 -> 15         0.33293
      12 -> 17        -0.14824
      12 -> 18         0.22055
      13 -> 14        -0.13619

 Excited State  10:      Singlet-A      9.3565 eV  132.51 nm  f=0.0021  <S**2>=0.000
      10 -> 15        -0.14576
      10 -> 16        -0.15344
      13 -> 18        -0.14673
      13 -> 19         0.61912
      13 -> 22        -0.10623

 Excited State  11:      Singlet-A      9.7423 eV  127.26 nm  f=0.0189  <S**2>=0.000
       9 -> 15        -0.12973
      11 -> 15         0.32736
      11 -> 16        -0.17059
      11 -> 17        -0.10373
      11 -> 19         0.16723
      12 -> 15         0.11747
      12 -> 16         0.45411
      12 -> 17        -0.20135
      12 -> 19        -0.12820

 Excited State  12:      Singlet-A      9.7962 eV  126.56 nm  f=0.2080  <S**2>=0.000
       8 -> 15        -0.12569
      11 -> 15         0.42195
      12 -> 15         0.35686
      12 -> 16        -0.28906
      12 -> 19         0.14712
      13 -> 19         0.10189

 Excited State  13:      Singlet-A      9.9035 eV  125.19 nm  f=0.0148  <S**2>=0.000
      10 -> 15         0.27260
      10 -> 16         0.12488
      12 -> 15        -0.14153
      13 -> 15        -0.10409
      13 -> 18         0.26690
      13 -> 19         0.20264
      13 -> 22         0.46613

 Excited State  14:      Singlet-A      9.9951 eV  124.04 nm  f=0.0437  <S**2>=0.000
       9 -> 15        -0.15212
      10 -> 14        -0.11355
      10 -> 15        -0.14548
      11 -> 15         0.15075
      11 -> 16        -0.12227
      11 -> 19         0.14160
      12 -> 15        -0.22625
      12 -> 16        -0.30154
      12 -> 17        -0.15030
      12 -> 18         0.32213
      12 -> 20         0.18548
      12 -> 22        -0.10790

 Excited State  15:      Singlet-A     10.0469 eV  123.40 nm  f=0.0335  <S**2>=0.000
      10 -> 15         0.48117
      12 -> 15        -0.11304
      13 -> 15        -0.11389
      13 -> 20         0.32166
      13 -> 22        -0.31002

 The electronic state is 1-A.
 Alpha  occ. eigenvalues --   -1.92762  -1.21117  -0.97046  -0.81171  -0.80360
 Alpha  occ. eigenvalues --   -0.67768  -0.66780  -0.51546  -0.49724  -0.41331
 Alpha  occ. eigenvalues --   -0.40246  -0.38708  -0.28998
 Alpha virt. eigenvalues --    0.14634   0.19568   0.21856   0.26369   0.28333
 Alpha virt. eigenvalues --    0.30702   0.32248   0.35255   0.35488   0.44371
 Alpha virt. eigenvalues --    0.48555

 Mulliken charges:
               1
     1  C   -0.065264
     2  C   -1.941135
     3  O    3.128290
     4  C   -1.947541
     5  C   -0.074428
     6  H    0.150139
     7  H    0.306476
     8  H    0.294513
     9  H    0.148950
 Sum of Mulliken charges =   0.00000

 Dipole moment (field-independent basis, Debye):
    X=             -7.4697    Y=             -7.2396    Z=              0.0560  Tot=             10.4025
 N-N= 1.037195531635D+02 E-N=-1.690145442568D+02  KE=-1.563970702372D+01
 Orbital energies and kinetic energies (alpha):
                                 1                 2
   1         O                -1.927619         -1.390689
   2         O                -1.211171         -1.086792
   3         O                -0.970465         -0.904961
   4         O                -0.811711         -0.699947
   5         O                -0.803597         -0.621125
   6         O                -0.677677         -0.571572
   7         O                -0.667804         -0.582147

 Normal termination of Gaussian 09 at Tue Dec 15 17:10:03 2015.
