 Gaussian 09, Revision D.01,
 Gaussian 09:  ES64L-G09RevD.01 24-Apr-2013

 ------------------------------------------------------------
 #P AM1(Input,print) CIS(Singlets,NStates=15) pop(full) force
 ------------------------------------------------------------

 -----------------
 AM1-Reparam Input
 -----------------
 Symbolic Z-matrix:
 Charge =  0 Multiplicity = 1

                         Standard orientation:
 ---------------------------------------------------------------------
 Center     Atomic      Atomic             Coordinates (Angstroms)
 Number     Number       Type             X           Y           Z
 ---------------------------------------------------------------------
      1          6           0        0.788970    0.885096   -0.003663
      2          6           0        1.102359   -0.368707    0.027840
      3          8           0       -0.079589   -1.151040   -0.021614
      4          6           0       -1.150744   -0.252078    0.029135
      5          6           0       -0.671583    0.959252   -0.022512
      6          1           0       -1.227418    1.853659    0.035861
      7          1           0       -2.037413   -0.689635   -0.014642
      8          1           0        2.007510   -1.003691   -0.013128
      9          1           0        1.480020    1.706611   -0.019980
 ---------------------------------------------------------------------

 SCF Done:  E(RAM1) =   1.92606208744     A.U. after   14 cycles

 Excitation energies and oscillator strengths:

 Excited State   1:      Singlet-A      5.3012 eV  233.88 nm  f=0.3316  <S**2>=0.000
      11 -> 17        -0.10053
      13 -> 14         0.69216
 This state for optimization and/or second-order correction.
 Total Energy, E(CIS) =   2.12087744747
 Copying the excited state density for this state as the 1-particle RhoCI density.

 Excited State   2:      Singlet-A      5.9737 eV  207.55 nm  f=0.0004  <S**2>=0.000
      10 -> 15         0.10381
      13 -> 15         0.67486
      13 -> 19        -0.10403

 Excited State   3:      Singlet-A      6.3284 eV  195.92 nm  f=0.0021  <S**2>=0.000
      13 -> 16         0.66718
      13 -> 17        -0.14313

 Excited State   4:      Singlet-A      6.4973 eV  190.82 nm  f=0.0005  <S**2>=0.000
      12 -> 14         0.70181

 Excited State   5:      Singlet-A      7.6199 eV  162.71 nm  f=0.0072  <S**2>=0.000
      11 -> 14         0.34820
      13 -> 15         0.10914
      13 -> 17         0.33719
      13 -> 18         0.45300
      13 -> 22        -0.18562

 Excited State   6:      Singlet-A      7.6949 eV  161.12 nm  f=0.0028  <S**2>=0.000
      11 -> 14         0.56024
      13 -> 18        -0.38004
      13 -> 22         0.15874

 Excited State   7:      Singlet-A      7.9290 eV  156.37 nm  f=0.0057  <S**2>=0.000
      11 -> 14        -0.24456
      13 -> 16         0.12770
      13 -> 17         0.59094
      13 -> 18        -0.22807

 Excited State   8:      Singlet-A      8.6595 eV  143.18 nm  f=0.0613  <S**2>=0.000
       8 -> 15        -0.13081
      10 -> 14         0.14904
      11 -> 17         0.16191
      12 -> 15         0.52148
      12 -> 16        -0.17541
      12 -> 18        -0.25021
      13 -> 19         0.12297

 Excited State   9:      Singlet-A      8.6788 eV  142.86 nm  f=0.0019  <S**2>=0.000
      13 -> 18        -0.11927
      13 -> 19         0.66564

 Excited State  10:      Singlet-A      8.9637 eV  138.32 nm  f=0.0078  <S**2>=0.000
       8 -> 16         0.10215
      10 -> 14         0.49790
      12 -> 16         0.31352
      12 -> 18         0.15796
      13 -> 20         0.23817

 Excited State  11:      Singlet-A      9.3351 eV  132.82 nm  f=0.0835  <S**2>=0.000
       9 -> 15        -0.12705
      10 -> 14        -0.20084
      11 -> 15         0.32527
      11 -> 17        -0.20359
      12 -> 15         0.35065
      12 -> 16         0.15198
      12 -> 18         0.25598
      13 -> 20        -0.21083

 Excited State  12:      Singlet-A      9.4789 eV  130.80 nm  f=0.1072  <S**2>=0.000
       9 -> 16        -0.11592
      10 -> 14        -0.11292
      11 -> 16        -0.29257
      11 -> 17         0.16224
      12 -> 16         0.47284
      12 -> 17        -0.15864
      12 -> 18        -0.21255
      13 -> 22        -0.14461

 Excited State  13:      Singlet-A      9.5033 eV  130.46 nm  f=0.0109  <S**2>=0.000
      13 -> 18         0.25271
      13 -> 22         0.62673

 Excited State  14:      Singlet-A      9.5387 eV  129.98 nm  f=0.0804  <S**2>=0.000
      10 -> 14        -0.10540
      13 -> 20         0.32640
      13 -> 21         0.58359

 Excited State  15:      Singlet-A      9.8409 eV  125.99 nm  f=0.0361  <S**2>=0.000
      10 -> 14        -0.20107
      12 -> 17        -0.22732
      13 -> 20         0.49457
      13 -> 21        -0.35524

 The electronic state is 1-A.
 Alpha  occ. eigenvalues --   -1.93907  -1.22066  -1.00049  -0.81712  -0.80828
 Alpha  occ. eigenvalues --   -0.68698  -0.67251  -0.52338  -0.49382  -0.42942
 Alpha  occ. eigenvalues --   -0.40344  -0.36492  -0.25505
 Alpha virt. eigenvalues --    0.14330   0.18808   0.20965   0.27752   0.29284
 Alpha virt. eigenvalues --    0.31624   0.32587   0.33776   0.35599   0.42221
 Alpha virt. eigenvalues --    0.46111

 Mulliken charges:
               1
     1  C   -0.112552
     2  C   -1.855349
     3  O    3.120864
     4  C   -1.875081
     5  C   -0.157635
     6  H    0.158836
     7  H    0.288678
     8  H    0.279601
     9  H    0.152636
 Sum of Mulliken charges =   0.00000

 Dipole moment (field-independent basis, Debye):
    X=             -0.4886    Y=            -11.2349    Z=             -0.7742  Tot=             11.2722
 N-N= 1.042747480268D+02 E-N=-1.697889326747D+02  KE=-1.567815605664D+01
 Orbital energies and kinetic energies (alpha):
                                 1                 2
   1         O                -1.939071         -1.388462
   2         O                -1.220655         -1.081631
   3         O                -1.000485         -0.930619
   4         O                -0.817124         -0.686730
   5         O                -0.808279         -0.642644
   6         O                -0.686978         -0.574838
   7         O                -0.672511         -0.575750

 Normal termination of Gaussian 09 at Tue Dec 15 17:09:58 2015.
