 Gaussian 09, Revision D.01,
 Gaussian 09:  ES64L-G09RevD.01 24-Apr-2013

 ------------------------------------------------------------
 #P AM1(Input,print) CIS(Singlets,NStates=15) pop(full) force
 ------------------------------------------------------------

 -----------------
 AM1-Reparam Input
 -----------------
 Symbolic Z-matrix:
 Charge =  0 Multiplicity = 1

                         Standard orientation:
 ---------------------------------------------------------------------
 Center     Atomic      Atomic             Coordinates (Angstroms)
 Number     Number       Type             X           Y           Z
 ---------------------------------------------------------------------
      1          6           0       -0.885270    0.787392    0.015701
      2          6           0       -1.065905   -0.472591   -0.015346
      3          8           0        0.213108   -1.146504    0.022311
      4          6           0        1.169657   -0.156108   -0.021829
      5          6           0        0.536669    1.068398   -0.009674
      6          1           0        1.077165    1.969415    0.057703
      7          1           0        2.133243   -0.528447   -0.004625
      8          1           0       -1.874166   -1.175156   -0.029939
      9          1           0       -1.572016    1.543671   -0.014736
 ---------------------------------------------------------------------

 SCF Done:  E(RAM1) =  -4.50762626767     A.U. after   14 cycles

 Excitation energies and oscillator strengths:

 Excited State   1:      Singlet-A      6.3342 eV  195.74 nm  f=0.2436  <S**2>=0.000
      13 -> 14         0.68623
 This state for optimization and/or second-order correction.
 Total Energy, E(CIS) =  -4.27484689133
 Copying the excited state density for this state as the 1-particle RhoCI density.

 Excited State   2:      Singlet-A      7.0728 eV  175.30 nm  f=0.0019  <S**2>=0.000
      13 -> 15         0.67362
      13 -> 16         0.17068

 Excited State   3:      Singlet-A      7.4585 eV  166.23 nm  f=0.0064  <S**2>=0.000
      13 -> 15        -0.16312
      13 -> 16         0.66959

 Excited State   4:      Singlet-A      7.9979 eV  155.02 nm  f=0.0004  <S**2>=0.000
       9 -> 14        -0.20442
      11 -> 14        -0.37264
      12 -> 14         0.55555

 Excited State   5:      Singlet-A      8.4225 eV  147.21 nm  f=0.0676  <S**2>=0.000
      10 -> 14         0.19563
      13 -> 17         0.65890

 Excited State   6:      Singlet-A      8.7282 eV  142.05 nm  f=0.0037  <S**2>=0.000
       9 -> 14        -0.25331
      10 -> 14         0.23316
      11 -> 14         0.53917
      12 -> 14         0.27169

 Excited State   7:      Singlet-A      9.3328 eV  132.85 nm  f=0.0006  <S**2>=0.000
       9 -> 14        -0.11358
      13 -> 19         0.66575

 Excited State   8:      Singlet-A      9.5661 eV  129.61 nm  f=0.0016  <S**2>=0.000
       9 -> 14         0.36165
      10 -> 14        -0.33870
      11 -> 14         0.19357
      12 -> 14         0.25859
      12 -> 16         0.10951
      13 -> 17         0.10641
      13 -> 18         0.22715
      13 -> 19         0.18038

 Excited State   9:      Singlet-A      9.6049 eV  129.08 nm  f=0.0019  <S**2>=0.000
       9 -> 14        -0.17958
      10 -> 14         0.12144
      10 -> 15         0.12688
      12 -> 14        -0.10253
      13 -> 18         0.63074

 Excited State  10:      Singlet-A      9.8570 eV  125.78 nm  f=0.0004  <S**2>=0.000
       9 -> 14         0.41737
       9 -> 16        -0.10794
      10 -> 14         0.35924
      11 -> 15         0.10228
      11 -> 19         0.11165
      12 -> 14         0.14193
      12 -> 15        -0.19009
      12 -> 16        -0.20396
      12 -> 19        -0.10428
      13 -> 17        -0.11813

 Excited State  11:      Singlet-A     10.3017 eV  120.35 nm  f=0.0196  <S**2>=0.000
       8 -> 15         0.10493
       9 -> 15         0.13932
       9 -> 16        -0.18153
       9 -> 19         0.11739
      10 -> 14        -0.11381
      10 -> 16         0.11132
      11 -> 15         0.38802
      11 -> 16         0.23701
      11 -> 21         0.10508
      12 -> 16         0.12236
      12 -> 19        -0.30576

 Excited State  12:      Singlet-A     10.7208 eV  115.65 nm  f=0.1716  <S**2>=0.000
       9 -> 15        -0.22909
      10 -> 14         0.18092
      12 -> 15         0.57632
      12 -> 16        -0.10977

 Excited State  13:      Singlet-A     10.7870 eV  114.94 nm  f=0.5430  <S**2>=0.000
       9 -> 15        -0.16149
       9 -> 16         0.12631
      10 -> 15         0.11835
      10 -> 17        -0.11612
      11 -> 15        -0.23993
      11 -> 16         0.47218
      12 -> 16        -0.21123
      12 -> 19        -0.16093

 Excited State  14:      Singlet-A     10.8704 eV  114.06 nm  f=0.4702  <S**2>=0.000
       9 -> 15        -0.16841
      10 -> 14         0.19007
      10 -> 15         0.39140
      10 -> 17        -0.10073
      12 -> 16         0.43226

 Excited State  15:      Singlet-A     10.9258 eV  113.48 nm  f=0.1461  <S**2>=0.000
       9 -> 15         0.31853
      10 -> 15         0.43460
      10 -> 16         0.23241
      10 -> 17         0.10782
      11 -> 15        -0.14224
      12 -> 15         0.13350
      12 -> 16        -0.19723

 The electronic state is 1-A.
 Alpha  occ. eigenvalues --   -3.77830  -1.26442  -0.97869  -0.92035  -0.88305
 Alpha  occ. eigenvalues --   -0.84770  -0.80713  -0.70571  -0.61956  -0.61052
 Alpha  occ. eigenvalues --   -0.59326  -0.56854  -0.45613
 Alpha virt. eigenvalues --   -0.00782   0.05086   0.06491   0.07928   0.14792
 Alpha virt. eigenvalues --    0.15237   0.22143   0.24686   0.34115   0.38861
 Alpha virt. eigenvalues --    0.40648

 Mulliken charges:
               1
     1  C   -0.047391
     2  C   -1.066476
     3  O    2.455173
     4  C   -1.080776
     5  C   -0.157667
     6  H   -0.015240
     7  H   -0.031418
     8  H   -0.028316
     9  H   -0.027889
 Sum of Mulliken charges =   0.00000

 Dipole moment (field-independent basis, Debye):
    X=              1.6120    Y=            -10.1340    Z=              0.4261  Tot=             10.2703
 N-N= 1.058359408727D+02 E-N=-1.728955080343D+02  KE=-2.172491732460D+01
 Orbital energies and kinetic energies (alpha):
                                 1                 2
   1         O                -3.778297         -3.041024
   2         O                -1.264425         -1.048657
   3         O                -0.978685         -0.740730
   4         O                -0.920346         -0.775464
   5         O                -0.883052         -0.780387
   6         O                -0.847696         -0.671021
   7         O                -0.807131         -0.753950

 Normal termination of Gaussian 09 at Fri Dec 11 13:41:30 2015.
