 Gaussian 09, Revision D.01,
 Gaussian 09:  ES64L-G09RevD.01 24-Apr-2013

 ------------------------------------------------------------
 #P AM1(Input,print) CIS(Singlets,NStates=15) pop(full) force
 ------------------------------------------------------------

 -----------------
 AM1-Reparam Input
 -----------------
 Symbolic Z-matrix:
 Charge =  0 Multiplicity = 1

                         Standard orientation:
 ---------------------------------------------------------------------
 Center     Atomic      Atomic             Coordinates (Angstroms)
 Number     Number       Type             X           Y           Z
 ---------------------------------------------------------------------
      1          6           0       -0.937434    0.729833   -0.021719
      2          6           0       -0.962978   -0.593631    0.027571
      3          8           0        0.283689   -1.138888   -0.009341
      4          6           0        1.131678   -0.042859    0.014813
      5          6           0        0.467148    1.095240   -0.003600
      6          1           0        0.883264    2.063284    0.038627
      7          1           0        2.221465   -0.377353   -0.046116
      8          1           0       -1.789787   -1.219029   -0.025289
      9          1           0       -1.774941    1.512701    0.005117
 ---------------------------------------------------------------------

 SCF Done:  E(RAM1) =   2.73033735465     A.U. after   14 cycles

 Excitation energies and oscillator strengths:

 Excited State   1:      Singlet-A      5.1543 eV  240.55 nm  f=0.3558  <S**2>=0.000
      13 -> 14         0.69652
 This state for optimization and/or second-order correction.
 Total Energy, E(CIS) =   2.91975398622
 Copying the excited state density for this state as the 1-particle RhoCI density.

 Excited State   2:      Singlet-A      5.5454 eV  223.58 nm  f=0.0011  <S**2>=0.000
      10 -> 15        -0.10991
      13 -> 15         0.67674
      13 -> 19        -0.10334

 Excited State   3:      Singlet-A      5.9462 eV  208.51 nm  f=0.0014  <S**2>=0.000
      10 -> 16         0.10108
      13 -> 16         0.66870
      13 -> 17        -0.10919
      13 -> 18        -0.10900

 Excited State   4:      Singlet-A      6.6725 eV  185.81 nm  f=0.0002  <S**2>=0.000
      12 -> 14         0.69546

 Excited State   5:      Singlet-A      7.2662 eV  170.63 nm  f=0.0030  <S**2>=0.000
      13 -> 15         0.10825
      13 -> 17         0.58345
      13 -> 18        -0.24520
      13 -> 19         0.12615
      13 -> 20         0.10645
      13 -> 21        -0.21326

 Excited State   6:      Singlet-A      7.5721 eV  163.74 nm  f=0.0075  <S**2>=0.000
      11 -> 14         0.10832
      13 -> 16         0.14200
      13 -> 17         0.32833
      13 -> 18         0.51087
      13 -> 19        -0.10336
      13 -> 20        -0.11032
      13 -> 21         0.25062

 Excited State   7:      Singlet-A      8.0172 eV  154.65 nm  f=0.0016  <S**2>=0.000
      10 -> 14         0.19608
      11 -> 14         0.65786
      13 -> 17        -0.10771

 Excited State   8:      Singlet-A      8.2117 eV  150.98 nm  f=0.0032  <S**2>=0.000
      13 -> 18         0.23850
      13 -> 19         0.64231

 Excited State   9:      Singlet-A      8.5815 eV  144.48 nm  f=0.1032  <S**2>=0.000
       8 -> 15         0.19677
      10 -> 14         0.24721
      12 -> 15         0.56000
      12 -> 16        -0.11543
      12 -> 18         0.11809

 Excited State  10:      Singlet-A      8.7624 eV  141.50 nm  f=0.0144  <S**2>=0.000
      13 -> 18        -0.30312
      13 -> 19         0.17516
      13 -> 20        -0.31522
      13 -> 21         0.49137

 Excited State  11:      Singlet-A      8.8758 eV  139.69 nm  f=0.0426  <S**2>=0.000
       8 -> 16        -0.13164
      10 -> 14         0.47383
      11 -> 14        -0.14817
      11 -> 17         0.14384
      12 -> 16         0.34558
      12 -> 17         0.16059
      12 -> 18        -0.13323

 Excited State  12:      Singlet-A      9.2355 eV  134.25 nm  f=0.1068  <S**2>=0.000
      10 -> 14        -0.14901
      11 -> 17         0.10005
      12 -> 15         0.12753
      12 -> 18        -0.12180
      13 -> 20         0.53595
      13 -> 21         0.31379

 Excited State  13:      Singlet-A      9.2544 eV  133.97 nm  f=0.1381  <S**2>=0.000
       9 -> 15        -0.11066
      10 -> 14         0.28035
      11 -> 15         0.23593
      11 -> 17        -0.20067
      12 -> 15        -0.26411
      12 -> 16        -0.20135
      12 -> 18         0.24908
      13 -> 20         0.27076
      13 -> 21         0.14896

 Excited State  14:      Singlet-A      9.4713 eV  130.90 nm  f=0.1364  <S**2>=0.000
      10 -> 14        -0.13162
      11 -> 16         0.19996
      11 -> 17        -0.19324
      12 -> 16         0.48895
      12 -> 17        -0.23503
      12 -> 18         0.20461

 Excited State  15:      Singlet-A      9.5531 eV  129.78 nm  f=0.0157  <S**2>=0.000
       7 -> 15         0.13621
      10 -> 15         0.61297
      11 -> 15        -0.21801
      13 -> 15         0.13656

 The electronic state is 1-A.
 Alpha  occ. eigenvalues --   -1.75730  -1.13487  -0.93128  -0.79154  -0.74336
 Alpha  occ. eigenvalues --   -0.65384  -0.63066  -0.52496  -0.49059  -0.42830
 Alpha  occ. eigenvalues --   -0.42419  -0.38218  -0.25935
 Alpha virt. eigenvalues --    0.13276   0.16331   0.18725   0.25730   0.27761
 Alpha virt. eigenvalues --    0.29817   0.31505   0.32911   0.46599   0.56015
 Alpha virt. eigenvalues --    0.59221

 Mulliken charges:
               1
     1  C   -0.092120
     2  C   -1.990708
     3  O    3.334520
     4  C   -1.945784
     5  C   -0.059814
     6  H    0.115283
     7  H    0.244204
     8  H    0.276439
     9  H    0.117979
 Sum of Mulliken charges =   0.00000

 Dipole moment (field-independent basis, Debye):
    X=              2.7837    Y=            -11.3217    Z=             -0.5885  Tot=             11.6737
 N-N= 1.036963878479D+02 E-N=-1.687661748972D+02  KE=-1.486109007680D+01
 Orbital energies and kinetic energies (alpha):
                                 1                 2
   1         O                -1.757302         -1.249206
   2         O                -1.134867         -1.002772
   3         O                -0.931276         -0.866807
   4         O                -0.791542         -0.581620
   5         O                -0.743358         -0.681088
   6         O                -0.653843         -0.550263
   7         O                -0.630658         -0.526642

 Normal termination of Gaussian 09 at Tue Dec 15 17:05:27 2015.
