 Gaussian 09, Revision D.01,
 Gaussian 09:  ES64L-G09RevD.01 24-Apr-2013

 ------------------------------------------------------------
 #P AM1(Input,print) CIS(Singlets,NStates=15) pop(full) force
 ------------------------------------------------------------

 -----------------
 AM1-Reparam Input
 -----------------
 Symbolic Z-matrix:
 Charge =  0 Multiplicity = 1

                         Standard orientation:
 ---------------------------------------------------------------------
 Center     Atomic      Atomic             Coordinates (Angstroms)
 Number     Number       Type             X           Y           Z
 ---------------------------------------------------------------------
      1          6           0        0.700864    0.934248    0.006277
      2          6           0        1.108697   -0.337469   -0.004001
      3          8           0       -0.050307   -1.160973    0.005780
      4          6           0       -1.054767   -0.310436   -0.002874
      5          6           0       -0.677206    0.937314   -0.016136
      6          1           0       -1.415149    1.774369    0.062262
      7          1           0       -2.004087   -0.779762   -0.004379
      8          1           0        2.035659   -0.859894    0.004256
      9          1           0        1.320507    1.811136   -0.007975
 ---------------------------------------------------------------------

 SCF Done:  E(RAM1) =   1.42700070422     A.U. after   13 cycles

 Excitation energies and oscillator strengths:

 Excited State   1:      Singlet-A      5.9469 eV  208.49 nm  f=0.0021  <S**2>=0.000
      12 -> 15         0.12274
      13 -> 15         0.67003
      13 -> 17        -0.12911
 This state for optimization and/or second-order correction.
 Total Energy, E(CIS) =   1.64554406656
 Copying the excited state density for this state as the 1-particle RhoCI density.

 Excited State   2:      Singlet-A      6.1200 eV  202.59 nm  f=0.2858  <S**2>=0.000
      13 -> 14         0.68848

 Excited State   3:      Singlet-A      6.7592 eV  183.43 nm  f=0.0005  <S**2>=0.000
      12 -> 16        -0.15098
      13 -> 16         0.65177
      13 -> 17        -0.14456
      13 -> 21         0.12535

 Excited State   4:      Singlet-A      7.5260 eV  164.74 nm  f=0.0087  <S**2>=0.000
      13 -> 15         0.12320
      13 -> 16         0.13152
      13 -> 17         0.66439

 Excited State   5:      Singlet-A      7.6559 eV  161.95 nm  f=0.0004  <S**2>=0.000
      11 -> 14         0.68422
      13 -> 22        -0.12179

 Excited State   6:      Singlet-A      8.0764 eV  153.51 nm  f=0.0002  <S**2>=0.000
      13 -> 19         0.53363
      13 -> 22         0.42340

 Excited State   7:      Singlet-A      8.3345 eV  148.76 nm  f=0.0016  <S**2>=0.000
      10 -> 14         0.66659
      12 -> 14         0.14431
      13 -> 18        -0.10209

 Excited State   8:      Singlet-A      8.4106 eV  147.41 nm  f=0.0023  <S**2>=0.000
      10 -> 14         0.17071
      12 -> 14        -0.42607
      13 -> 18         0.51810

 Excited State   9:      Singlet-A      8.7756 eV  141.28 nm  f=0.0002  <S**2>=0.000
      12 -> 15         0.32944
      12 -> 16         0.10195
      13 -> 19        -0.29861
      13 -> 20         0.28795
      13 -> 21         0.33452
      13 -> 22         0.27652

 Excited State  10:      Singlet-A      8.9098 eV  139.16 nm  f=0.0056  <S**2>=0.000
      13 -> 19         0.30391
      13 -> 20         0.42526
      13 -> 21         0.27778
      13 -> 22        -0.33395

 Excited State  11:      Singlet-A      8.9601 eV  138.37 nm  f=0.0157  <S**2>=0.000
      12 -> 15         0.52898
      13 -> 15        -0.12436
      13 -> 19         0.10515
      13 -> 21        -0.29919
      13 -> 22        -0.22529

 Excited State  12:      Singlet-A      9.2743 eV  133.69 nm  f=0.1756  <S**2>=0.000
      10 -> 15        -0.13121
      12 -> 14         0.47473
      13 -> 18         0.42141
      13 -> 20        -0.11344

 Excited State  13:      Singlet-A      9.2986 eV  133.34 nm  f=0.0511  <S**2>=0.000
      12 -> 14         0.12381
      12 -> 15        -0.16285
      12 -> 16        -0.16053
      13 -> 18         0.12068
      13 -> 20         0.41186
      13 -> 21        -0.39663
      13 -> 22         0.20572

 Excited State  14:      Singlet-A      9.4126 eV  131.72 nm  f=0.0519  <S**2>=0.000
       8 -> 15         0.18441
       9 -> 15         0.17540
      10 -> 17         0.20773
      11 -> 15         0.53307
      11 -> 16        -0.15800
      11 -> 19        -0.14545

 Excited State  15:      Singlet-A      9.7148 eV  127.62 nm  f=0.0832  <S**2>=0.000
       9 -> 15        -0.19465
      10 -> 15         0.46339
      10 -> 17        -0.29684
      11 -> 15         0.22901
      11 -> 17        -0.13907
      11 -> 19         0.13775
      12 -> 14         0.16111

 The electronic state is 1-A.
 Alpha  occ. eigenvalues --   -1.90158  -1.21833  -0.96986  -0.78980  -0.77788
 Alpha  occ. eigenvalues --   -0.67860  -0.63264  -0.49391  -0.47544  -0.38956
 Alpha  occ. eigenvalues --   -0.37309  -0.36875  -0.24362
 Alpha virt. eigenvalues --    0.19025   0.20440   0.24122   0.28562   0.29990
 Alpha virt. eigenvalues --    0.31101   0.34103   0.35006   0.36868   0.40750
 Alpha virt. eigenvalues --    0.45323

 Mulliken charges:
               1
     1  C   -0.019712
     2  C   -1.525624
     3  O    2.765779
     4  C   -1.528943
     5  C   -0.103207
     6  H    0.059404
     7  H    0.154285
     8  H    0.141849
     9  H    0.056169
 Sum of Mulliken charges =   0.00000

 Dipole moment (field-independent basis, Debye):
    X=             -0.9674    Y=             -9.9071    Z=              0.1507  Tot=              9.9554
 N-N= 1.043331655355D+02 E-N=-1.712404939194D+02  KE=-1.594569441731D+01
 Orbital energies and kinetic energies (alpha):
                                 1                 2
   1         O                -1.901580         -1.395538
   2         O                -1.218325         -1.096940
   3         O                -0.969864         -0.898094
   4         O                -0.789798         -0.635776
   5         O                -0.777881         -0.692512
   6         O                -0.678602         -0.624015
   7         O                -0.632636         -0.557142

 Normal termination of Gaussian 09 at Tue Dec 15 17:08:07 2015.
