 Gaussian 09, Revision D.01,
 Gaussian 09:  ES64L-G09RevD.01 24-Apr-2013

 ------------------------------------------------------------
 #P AM1(Input,print) CIS(Singlets,NStates=15) pop(full) force
 ------------------------------------------------------------

 -----------------
 AM1-Reparam Input
 -----------------
 Symbolic Z-matrix:
 Charge =  0 Multiplicity = 1

                         Standard orientation:
 ---------------------------------------------------------------------
 Center     Atomic      Atomic             Coordinates (Angstroms)
 Number     Number       Type             X           Y           Z
 ---------------------------------------------------------------------
      1          6           0        0.675878    0.981242   -0.020475
      2          6           0        1.064960   -0.289038    0.002296
      3          8           0        0.104754   -1.110560   -0.010340
      4          6           0       -1.089262   -0.452070    0.017828
      5          6           0       -0.756986    0.920529   -0.005822
      6          1           0       -1.513018    1.690538    0.009793
      7          1           0       -1.987048   -0.944526   -0.002989
      8          1           0        2.122285   -0.706192    0.045864
      9          1           0        1.172203    1.880684    0.067091
 ---------------------------------------------------------------------

 SCF Done:  E(RAM1) =   1.70329188061     A.U. after   13 cycles

 Excitation energies and oscillator strengths:

 Excited State   1:      Singlet-A      5.4150 eV  228.96 nm  f=0.3431  <S**2>=0.000
      13 -> 14         0.69322
 This state for optimization and/or second-order correction.
 Total Energy, E(CIS) =   1.90228918367
 Copying the excited state density for this state as the 1-particle RhoCI density.

 Excited State   2:      Singlet-A      5.9721 eV  207.60 nm  f=0.0047  <S**2>=0.000
      11 -> 15         0.11733
      13 -> 15         0.66845
      13 -> 17         0.14683

 Excited State   3:      Singlet-A      6.9122 eV  179.37 nm  f=0.0076  <S**2>=0.000
      12 -> 14         0.21670
      13 -> 16         0.57884
      13 -> 17         0.12362
      13 -> 18        -0.15145
      13 -> 19         0.19405
      13 -> 21         0.14319

 Excited State   4:      Singlet-A      7.0300 eV  176.37 nm  f=0.0029  <S**2>=0.000
      12 -> 14         0.63984
      13 -> 16        -0.23348

 Excited State   5:      Singlet-A      7.4783 eV  165.79 nm  f=0.0051  <S**2>=0.000
      12 -> 14        -0.16095
      13 -> 16        -0.15763
      13 -> 17        -0.11923
      13 -> 19         0.50217
      13 -> 20         0.34423
      13 -> 21         0.21229

 Excited State   6:      Singlet-A      7.9463 eV  156.03 nm  f=0.0182  <S**2>=0.000
      10 -> 14        -0.21515
      11 -> 16         0.10233
      13 -> 15        -0.12772
      13 -> 17         0.58358
      13 -> 18         0.17758
      13 -> 20         0.15613
      13 -> 21        -0.11016

 Excited State   7:      Singlet-A      8.0504 eV  154.01 nm  f=0.0008  <S**2>=0.000
      10 -> 14         0.65305
      13 -> 17         0.18255
      13 -> 18         0.12339

 Excited State   8:      Singlet-A      8.5209 eV  145.51 nm  f=0.1099  <S**2>=0.000
      11 -> 14         0.67730
      12 -> 15         0.11779

 Excited State   9:      Singlet-A      8.6327 eV  143.62 nm  f=0.0018  <S**2>=0.000
      11 -> 16        -0.15397
      13 -> 16         0.16629
      13 -> 17        -0.17740
      13 -> 18         0.60466
      13 -> 20         0.10549

 Excited State  10:      Singlet-A      8.8131 eV  140.68 nm  f=0.0003  <S**2>=0.000
      13 -> 17        -0.10819
      13 -> 18        -0.17332
      13 -> 19        -0.28819
      13 -> 20         0.56858
      13 -> 21        -0.20721

 Excited State  11:      Singlet-A      9.2181 eV  134.50 nm  f=0.0925  <S**2>=0.000
      11 -> 16         0.10149
      12 -> 15        -0.29864
      13 -> 19        -0.26097
      13 -> 21         0.49448

 Excited State  12:      Singlet-A      9.2341 eV  134.27 nm  f=0.1084  <S**2>=0.000
       8 -> 15         0.13211
      10 -> 16        -0.10741
      11 -> 14        -0.10099
      12 -> 15         0.47094
      12 -> 19        -0.12277
      13 -> 19        -0.17317
      13 -> 21         0.32227

 Excited State  13:      Singlet-A      9.2926 eV  133.42 nm  f=0.0074  <S**2>=0.000
       7 -> 15        -0.13750
      11 -> 15         0.63872
      11 -> 17         0.11434
      13 -> 15        -0.13735

 Excited State  14:      Singlet-A      9.6208 eV  128.87 nm  f=0.0308  <S**2>=0.000
       9 -> 15         0.13234
      10 -> 15         0.29605
      10 -> 16         0.25623
      10 -> 17         0.23232
      12 -> 15         0.28393
      12 -> 16         0.15895
      12 -> 19         0.14833
      12 -> 20         0.27702
      12 -> 21         0.12427

 Excited State  15:      Singlet-A     10.0696 eV  123.13 nm  f=0.0403  <S**2>=0.000
       6 -> 15        -0.10343
       8 -> 15        -0.14514
       9 -> 15         0.29676
      10 -> 15         0.28864
      10 -> 16        -0.14080
      10 -> 18         0.13472
      10 -> 20         0.10855
      11 -> 16         0.12538
      12 -> 16         0.20064
      12 -> 17         0.25785
      12 -> 19        -0.18526
      12 -> 20        -0.20049
      12 -> 21        -0.10873

 The electronic state is 1-A.
 Alpha  occ. eigenvalues --   -1.93835  -1.22674  -1.00657  -0.83254  -0.80177
 Alpha  occ. eigenvalues --   -0.69467  -0.65347  -0.55937  -0.51655  -0.44875
 Alpha  occ. eigenvalues --   -0.42874  -0.41790  -0.29337
 Alpha virt. eigenvalues --    0.11272   0.14656   0.20703   0.24267   0.26312
 Alpha virt. eigenvalues --    0.26886   0.28015   0.28729   0.39949   0.48055
 Alpha virt. eigenvalues --    0.53809

 Mulliken charges:
               1
     1  C   -0.163139
     2  C   -1.962253
     3  O    3.189028
     4  C   -1.979475
     5  C   -0.096095
     6  H    0.181875
     7  H    0.309076
     8  H    0.332687
     9  H    0.188295
 Sum of Mulliken charges =   0.00000

 Dipole moment (field-independent basis, Debye):
    X=              1.8004    Y=             -9.1072    Z=             -0.1367  Tot=              9.2844
 N-N= 1.046540843589D+02 E-N=-1.704613305388D+02  KE=-1.580269018821D+01
 Orbital energies and kinetic energies (alpha):
                                 1                 2
   1         O                -1.938347         -1.428675
   2         O                -1.226738         -1.096298
   3         O                -1.006566         -0.909759
   4         O                -0.832541         -0.633967
   5         O                -0.801766         -0.708997
   6         O                -0.694666         -0.587831
   7         O                -0.653472         -0.515243

 Normal termination of Gaussian 09 at Tue Dec 15 17:07:08 2015.
