 Gaussian 09, Revision D.01,
 Gaussian 09:  ES64L-G09RevD.01 24-Apr-2013

 ------------------------------------------------------------
 #P AM1(Input,print) CIS(Singlets,NStates=15) pop(full) force
 ------------------------------------------------------------

 -----------------
 AM1-Reparam Input
 -----------------
 Symbolic Z-matrix:
 Charge =  0 Multiplicity = 1

                         Standard orientation:
 ---------------------------------------------------------------------
 Center     Atomic      Atomic             Coordinates (Angstroms)
 Number     Number       Type             X           Y           Z
 ---------------------------------------------------------------------
      1          6           0       -1.158379    0.268987    0.024399
      2          6           0       -0.594766   -0.916088    0.019218
      3          8           0        0.769663   -0.928633   -0.014536
      4          6           0        1.047387    0.466421   -0.002715
      5          6           0       -0.099143    1.174056   -0.022885
      6          1           0       -0.130116    2.278516    0.031869
      7          1           0        2.082167    0.677807    0.071047
      8          1           0       -1.035090   -1.957870   -0.020945
      9          1           0       -2.244857    0.470356   -0.073788
 ---------------------------------------------------------------------

 SCF Done:  E(RAM1) =   1.43373621345     A.U. after   13 cycles

 Excitation energies and oscillator strengths:

 Excited State   1:      Singlet-A      5.7542 eV  215.47 nm  f=0.0072  <S**2>=0.000
      12 -> 15         0.12706
      13 -> 14        -0.22726
      13 -> 15         0.64106
 This state for optimization and/or second-order correction.
 Total Energy, E(CIS) =   1.64519939106
 Copying the excited state density for this state as the 1-particle RhoCI density.

 Excited State   2:      Singlet-A      6.0797 eV  203.93 nm  f=0.2690  <S**2>=0.000
      13 -> 14         0.64853
      13 -> 15         0.22745

 Excited State   3:      Singlet-A      6.5927 eV  188.06 nm  f=0.0077  <S**2>=0.000
      12 -> 16        -0.15123
      13 -> 16         0.65456
      13 -> 18        -0.12847
      13 -> 21        -0.11554

 Excited State   4:      Singlet-A      7.5551 eV  164.11 nm  f=0.0099  <S**2>=0.000
      13 -> 16         0.11543
      13 -> 18         0.66135

 Excited State   5:      Singlet-A      7.6483 eV  162.11 nm  f=0.0006  <S**2>=0.000
      11 -> 14         0.64481
      11 -> 15         0.10912
      12 -> 14         0.20205
      13 -> 22         0.11181

 Excited State   6:      Singlet-A      8.0788 eV  153.47 nm  f=0.0045  <S**2>=0.000
      11 -> 14         0.12641
      12 -> 14        -0.20439
      13 -> 17         0.31558
      13 -> 19         0.45419
      13 -> 22        -0.32525

 Excited State   7:      Singlet-A      8.1176 eV  152.73 nm  f=0.0107  <S**2>=0.000
      12 -> 14        -0.30167
      13 -> 17         0.46840
      13 -> 19        -0.29263
      13 -> 22         0.22657

 Excited State   8:      Singlet-A      8.3815 eV  147.93 nm  f=0.0024  <S**2>=0.000
      10 -> 14         0.68037
      10 -> 15         0.10511

 Excited State   9:      Singlet-A      8.5671 eV  144.72 nm  f=0.0020  <S**2>=0.000
      12 -> 15         0.42681
      13 -> 19        -0.33431
      13 -> 20        -0.26957
      13 -> 21        -0.23126
      13 -> 22        -0.17756

 Excited State  10:      Singlet-A      8.7650 eV  141.45 nm  f=0.0057  <S**2>=0.000
      12 -> 14        -0.10498
      12 -> 15         0.44194
      12 -> 16        -0.10058
      13 -> 15        -0.13870
      13 -> 19         0.12500
      13 -> 20         0.20305
      13 -> 21         0.36346
      13 -> 22         0.19689

 Excited State  11:      Singlet-A      8.9062 eV  139.21 nm  f=0.0046  <S**2>=0.000
      13 -> 19         0.26194
      13 -> 20        -0.33039
      13 -> 21        -0.26509
      13 -> 22         0.46973

 Excited State  12:      Singlet-A      9.0604 eV  136.84 nm  f=0.1543  <S**2>=0.000
      11 -> 15        -0.19665
      12 -> 14         0.46973
      12 -> 16        -0.14262
      13 -> 17         0.35742
      13 -> 20        -0.14020
      13 -> 21         0.12567

 Excited State  13:      Singlet-A      9.1684 eV  135.23 nm  f=0.0647  <S**2>=0.000
       9 -> 15         0.17670
      11 -> 15         0.34408
      12 -> 16        -0.26995
      13 -> 20        -0.32452
      13 -> 21         0.29716
      13 -> 22        -0.11644
      13 -> 23        -0.10849

 Excited State  14:      Singlet-A      9.2313 eV  134.31 nm  f=0.1945  <S**2>=0.000
       9 -> 15         0.21659
      11 -> 14        -0.13002
      11 -> 15         0.36286
      11 -> 16        -0.14393
      12 -> 14         0.23384
      12 -> 15         0.17498
      13 -> 17         0.11569
      13 -> 20         0.26577
      13 -> 21        -0.22712

 Excited State  15:      Singlet-A      9.5403 eV  129.96 nm  f=0.0249  <S**2>=0.000
      12 -> 16         0.54111
      13 -> 16         0.17850
      13 -> 20        -0.20530
      13 -> 21         0.24170
      13 -> 22         0.10851

 The electronic state is 1-A.
 Alpha  occ. eigenvalues --   -1.87856  -1.20674  -0.94551  -0.78029  -0.77193
 Alpha  occ. eigenvalues --   -0.66924  -0.61614  -0.48483  -0.46600  -0.38722
 Alpha  occ. eigenvalues --   -0.36812  -0.35758  -0.23626
 Alpha virt. eigenvalues --    0.19406   0.20200   0.23843   0.28774   0.29390
 Alpha virt. eigenvalues --    0.31299   0.34754   0.35316   0.37557   0.40188
 Alpha virt. eigenvalues --    0.43902

 Mulliken charges:
               1
     1  C   -0.068404
     2  C   -1.496190
     3  O    2.734557
     4  C   -1.501736
     5  C   -0.037419
     6  H    0.050387
     7  H    0.130400
     8  H    0.135748
     9  H    0.052657
 Sum of Mulliken charges =   0.00000

 Dipole moment (field-independent basis, Debye):
    X=              6.3334    Y=             -8.3730    Z=             -0.2399  Tot=             10.5013
 N-N= 1.035145701105D+02 E-N=-1.699808286144D+02  KE=-1.584398879305D+01
 Orbital energies and kinetic energies (alpha):
                                 1                 2
   1         O                -1.878563         -1.361306
   2         O                -1.206740         -1.099306
   3         O                -0.945505         -0.891759
   4         O                -0.780291         -0.647707
   5         O                -0.771930         -0.662108
   6         O                -0.669244         -0.626679
   7         O                -0.616138         -0.551756

 Normal termination of Gaussian 09 at Tue Dec 15 17:08:02 2015.
