 Gaussian 09, Revision D.01,
 Gaussian 09:  ES64L-G09RevD.01 24-Apr-2013

 ------------------------------------------------------------
 #P AM1(Input,print) CIS(Singlets,NStates=15) pop(full) force
 ------------------------------------------------------------

 -----------------
 AM1-Reparam Input
 -----------------
 Symbolic Z-matrix:
 Charge =  0 Multiplicity = 1

                         Standard orientation:
 ---------------------------------------------------------------------
 Center     Atomic      Atomic             Coordinates (Angstroms)
 Number     Number       Type             X           Y           Z
 ---------------------------------------------------------------------
      1          6           0        0.136899    1.145612    0.021080
      2          6           0       -1.020423    0.469537   -0.029252
      3          8           0       -0.771031   -0.829433    0.032619
      4          6           0        0.514860   -0.998840   -0.016891
      5          6           0        1.165948    0.247622   -0.024180
      6          1           0        2.287033    0.389486    0.061056
      7          1           0        0.891306   -1.977307   -0.014250
      8          1           0       -2.083258    0.774374   -0.043303
      9          1           0        0.289466    2.265327    0.031001
 ---------------------------------------------------------------------

 SCF Done:  E(RAM1) =   2.52349801772     A.U. after   14 cycles

 Excitation energies and oscillator strengths:

 Excited State   1:      Singlet-A      5.7363 eV  216.14 nm  f=0.3240  <S**2>=0.000
      13 -> 14         0.69145
 This state for optimization and/or second-order correction.
 Total Energy, E(CIS) =   2.73430227620
 Copying the excited state density for this state as the 1-particle RhoCI density.

 Excited State   2:      Singlet-A      6.7108 eV  184.75 nm  f=0.0056  <S**2>=0.000
      13 -> 15         0.52315
      13 -> 16         0.39754
      13 -> 17        -0.20892

 Excited State   3:      Singlet-A      6.9021 eV  179.63 nm  f=0.0003  <S**2>=0.000
      10 -> 15        -0.12770
      13 -> 15        -0.40491
      13 -> 16         0.52007
      13 -> 19         0.16400

 Excited State   4:      Singlet-A      7.0439 eV  176.02 nm  f=0.0008  <S**2>=0.000
       9 -> 14         0.14203
      12 -> 14         0.68766

 Excited State   5:      Singlet-A      7.8402 eV  158.14 nm  f=0.0043  <S**2>=0.000
      10 -> 14         0.28403
      11 -> 14         0.63193

 Excited State   6:      Singlet-A      8.3215 eV  148.99 nm  f=0.0001  <S**2>=0.000
      13 -> 17        -0.23957
      13 -> 18         0.55213
      13 -> 21        -0.32386

 Excited State   7:      Singlet-A      8.5036 eV  145.80 nm  f=0.0057  <S**2>=0.000
      10 -> 16        -0.13596
      13 -> 15         0.13579
      13 -> 17         0.60090
      13 -> 18         0.24021

 Excited State   8:      Singlet-A      8.8407 eV  140.24 nm  f=0.0621  <S**2>=0.000
      10 -> 14         0.60830
      11 -> 14        -0.27525
      12 -> 15         0.10368

 Excited State   9:      Singlet-A      9.1588 eV  135.37 nm  f=0.0004  <S**2>=0.000
      10 -> 15         0.13648
      10 -> 16         0.10579
      13 -> 16        -0.10833
      13 -> 18        -0.11411
      13 -> 19         0.62376
      13 -> 20         0.12827
      13 -> 21        -0.11607

 Excited State  10:      Singlet-A      9.3456 eV  132.67 nm  f=0.0713  <S**2>=0.000
       8 -> 15        -0.10915
       9 -> 16         0.13859
      10 -> 14         0.14721
      10 -> 15        -0.14797
      10 -> 17         0.11908
      11 -> 15        -0.23256
      11 -> 16        -0.13802
      11 -> 17         0.23645
      12 -> 16         0.32044
      12 -> 17        -0.13352
      12 -> 18         0.26326

 Excited State  11:      Singlet-A      9.5287 eV  130.12 nm  f=0.1017  <S**2>=0.000
       9 -> 15        -0.12252
      11 -> 15        -0.13507
      12 -> 15         0.62244
      12 -> 16        -0.15466

 Excited State  12:      Singlet-A      9.6599 eV  128.35 nm  f=0.0061  <S**2>=0.000
       9 -> 14        -0.22105
      13 -> 18         0.31579
      13 -> 19         0.16074
      13 -> 20        -0.15031
      13 -> 21         0.51905

 Excited State  13:      Singlet-A      9.7318 eV  127.40 nm  f=0.0675  <S**2>=0.000
       9 -> 16        -0.11747
      11 -> 15         0.14934
      11 -> 16         0.45669
      11 -> 19         0.11494
      12 -> 15         0.12367
      12 -> 16         0.40889
      12 -> 17        -0.10993

 Excited State  14:      Singlet-A      9.8889 eV  125.38 nm  f=0.0394  <S**2>=0.000
       9 -> 14        -0.27143
      10 -> 15        -0.21877
      10 -> 16        -0.38218
      11 -> 16         0.11432
      12 -> 16        -0.11371
      13 -> 16        -0.11351
      13 -> 20         0.39315

 Excited State  15:      Singlet-A      9.9532 eV  124.57 nm  f=0.0050  <S**2>=0.000
       9 -> 14         0.55438
      10 -> 15        -0.23901
      10 -> 16        -0.17840
      12 -> 14        -0.10964
      13 -> 16        -0.10339
      13 -> 19         0.16746
      13 -> 21         0.10426

 The electronic state is 1-A.
 Alpha  occ. eigenvalues --   -1.77421  -1.17272  -0.95948  -0.81259  -0.76316
 Alpha  occ. eigenvalues --   -0.67638  -0.66309  -0.55656  -0.49326  -0.44219
 Alpha  occ. eigenvalues --   -0.43756  -0.41346  -0.31069
 Alpha virt. eigenvalues --    0.11526   0.17061   0.17645   0.23979   0.25752
 Alpha virt. eigenvalues --    0.27949   0.29543   0.32028   0.42987   0.51848
 Alpha virt. eigenvalues --    0.56915

 Mulliken charges:
               1
     1  C   -0.030501
     2  C   -1.938675
     3  O    3.223711
     4  C   -1.975814
     5  C   -0.065589
     6  H    0.123798
     7  H    0.272162
     8  H    0.270362
     9  H    0.120546
 Sum of Mulliken charges =   0.00000

 Dipole moment (field-independent basis, Debye):
    X=             -6.6087    Y=             -6.9134    Z=              0.7944  Tot=              9.5970
 N-N= 1.045491571108D+02 E-N=-1.700051755640D+02  KE=-1.509546098544D+01
 Orbital energies and kinetic energies (alpha):
                                 1                 2
   1         O                -1.774205         -1.294615
   2         O                -1.172724         -1.018451
   3         O                -0.959478         -0.848162
   4         O                -0.812588         -0.621557
   5         O                -0.763161         -0.685205
   6         O                -0.676384         -0.579152
   7         O                -0.663088         -0.538614

 Normal termination of Gaussian 09 at Tue Dec 15 17:06:26 2015.
