 Gaussian 09, Revision D.01,
 Gaussian 09:  ES64L-G09RevD.01 24-Apr-2013

 ------------------------------------------------------------
 #P AM1(Input,print) CIS(Singlets,NStates=15) pop(full) force
 ------------------------------------------------------------

 -----------------
 AM1-Reparam Input
 -----------------
 Symbolic Z-matrix:
 Charge =  0 Multiplicity = 1

                         Standard orientation:
 ---------------------------------------------------------------------
 Center     Atomic      Atomic             Coordinates (Angstroms)
 Number     Number       Type             X           Y           Z
 ---------------------------------------------------------------------
      1          6           0       -0.743460    0.905586    0.007329
      2          6           0       -1.067291   -0.314285    0.004573
      3          8           0        0.009564   -1.178529    0.003626
      4          6           0        1.093313   -0.336497   -0.019341
      5          6           0        0.704809    0.997165   -0.017738
      6          1           0        1.398201    1.779010    0.077998
      7          1           0        2.038640   -0.796708    0.062001
      8          1           0       -2.043865   -0.840370   -0.004796
      9          1           0       -1.393711    1.774489   -0.013147
 ---------------------------------------------------------------------

 SCF Done:  E(RAM1) =   1.12731294059     A.U. after   14 cycles

 Excitation energies and oscillator strengths:

 Excited State   1:      Singlet-A      5.4049 eV  229.39 nm  f=0.2035  <S**2>=0.000
      12 -> 15        -0.14083
      13 -> 14         0.67934
 This state for optimization and/or second-order correction.
 Total Energy, E(CIS) =   1.32593820239
 Copying the excited state density for this state as the 1-particle RhoCI density.

 Excited State   2:      Singlet-A      6.3815 eV  194.29 nm  f=0.0048  <S**2>=0.000
      13 -> 16         0.47496
      13 -> 17         0.47954
      13 -> 19         0.15481

 Excited State   3:      Singlet-A      6.5549 eV  189.15 nm  f=0.0053  <S**2>=0.000
      13 -> 15         0.26817
      13 -> 16         0.45530
      13 -> 17        -0.40933
      13 -> 18         0.10393
      13 -> 21         0.12966

 Excited State   4:      Singlet-A      6.7068 eV  184.86 nm  f=0.0353  <S**2>=0.000
      12 -> 14         0.30468
      13 -> 15         0.55173
      13 -> 16        -0.15538
      13 -> 17         0.23811

 Excited State   5:      Singlet-A      7.2748 eV  170.43 nm  f=0.0011  <S**2>=0.000
       9 -> 14        -0.11019
      11 -> 14         0.68990

 Excited State   6:      Singlet-A      7.9667 eV  155.63 nm  f=0.1293  <S**2>=0.000
      10 -> 14        -0.40216
      11 -> 15        -0.11972
      12 -> 14         0.46265
      13 -> 15        -0.22032
      13 -> 18         0.13342

 Excited State   7:      Singlet-A      8.0524 eV  153.97 nm  f=0.0401  <S**2>=0.000
      12 -> 14        -0.23056
      12 -> 16        -0.10244
      13 -> 15         0.10476
      13 -> 18         0.52670
      13 -> 19         0.27914
      13 -> 24         0.14808

 Excited State   8:      Singlet-A      8.0657 eV  153.72 nm  f=0.0745  <S**2>=0.000
      10 -> 14         0.51195
      11 -> 15         0.11689
      12 -> 14         0.31861
      13 -> 15        -0.16559
      13 -> 18         0.20298
      13 -> 19         0.10284

 Excited State   9:      Singlet-A      8.3784 eV  147.98 nm  f=0.0003  <S**2>=0.000
      13 -> 18        -0.12501
      13 -> 19         0.26413
      13 -> 20         0.59557
      13 -> 23         0.13239

 Excited State  10:      Singlet-A      8.6324 eV  143.63 nm  f=0.1167  <S**2>=0.000
       9 -> 15         0.10219
      11 -> 15         0.18375
      11 -> 17         0.13209
      11 -> 18        -0.10262
      12 -> 15         0.55286
      12 -> 17        -0.18427
      13 -> 14         0.11656

 Excited State  11:      Singlet-A      8.6788 eV  142.86 nm  f=0.0210  <S**2>=0.000
       6 -> 15         0.10331
       9 -> 15         0.21043
      10 -> 14        -0.18125
      10 -> 15        -0.17221
      11 -> 15         0.54386
      12 -> 15        -0.15805
      12 -> 17         0.14233

 Excited State  12:      Singlet-A      8.7454 eV  141.77 nm  f=0.0271  <S**2>=0.000
      12 -> 15         0.22732
      12 -> 16         0.31406
      12 -> 17         0.51953
      13 -> 19         0.13955

 Excited State  13:      Singlet-A      8.9066 eV  139.20 nm  f=0.0052  <S**2>=0.000
       7 -> 16        -0.10209
      12 -> 16         0.46696
      12 -> 17        -0.19527
      13 -> 18         0.22483
      13 -> 19        -0.29483
      13 -> 20         0.25450

 Excited State  14:      Singlet-A      9.2401 eV  134.18 nm  f=0.0001  <S**2>=0.000
      12 -> 16         0.16402
      13 -> 21         0.61476
      13 -> 22        -0.17815

 Excited State  15:      Singlet-A      9.4339 eV  131.42 nm  f=0.0023  <S**2>=0.000
      12 -> 16         0.29066
      12 -> 17        -0.30646
      13 -> 18        -0.18531
      13 -> 19         0.41586
      13 -> 20        -0.17721
      13 -> 21        -0.18437

 The electronic state is 1-A.
 Alpha  occ. eigenvalues --   -1.81368  -1.20180  -0.98912  -0.87540  -0.80300
 Alpha  occ. eigenvalues --   -0.74201  -0.71418  -0.59426  -0.55697  -0.51843
 Alpha  occ. eigenvalues --   -0.49130  -0.47210  -0.36992
 Alpha virt. eigenvalues --    0.04114   0.09229   0.10509   0.11246   0.18776
 Alpha virt. eigenvalues --    0.19510   0.20854   0.22054   0.26514   0.27655
 Alpha virt. eigenvalues --    0.28525

 Mulliken charges:
               1
     1  C   -0.124517
     2  C   -1.204832
     3  O    2.096980
     4  C   -1.224281
     5  C   -0.144169
     6  H    0.101941
     7  H    0.188501
     8  H    0.199577
     9  H    0.110800
 Sum of Mulliken charges =   0.00000

 Dipole moment (field-independent basis, Debye):
    X=             -0.3373    Y=             -7.6693    Z=              0.2320  Tot=              7.6802
 N-N= 1.044450446838D+02 E-N=-1.713705090510D+02  KE=-1.498061103829D+01
 Orbital energies and kinetic energies (alpha):
                                 1                 2
   1         O                -1.813679         -1.233521
   2         O                -1.201799         -0.981290
   3         O                -0.989117         -0.840183
   4         O                -0.875402         -0.614865
   5         O                -0.803003         -0.674323
   6         O                -0.742007         -0.585217
   7         O                -0.714178         -0.517563

 Normal termination of Gaussian 09 at Tue Dec 15 17:05:30 2015.
