 Gaussian 09, Revision D.01,
 Gaussian 09:  ES64L-G09RevD.01 24-Apr-2013

 ------------------------------------------------------------
 #P AM1(Input,print) CIS(Singlets,NStates=15) pop(full) force
 ------------------------------------------------------------

 -----------------
 AM1-Reparam Input
 -----------------
 Symbolic Z-matrix:
 Charge =  0 Multiplicity = 1

                         Standard orientation:
 ---------------------------------------------------------------------
 Center     Atomic      Atomic             Coordinates (Angstroms)
 Number     Number       Type             X           Y           Z
 ---------------------------------------------------------------------
      1          6           0       -0.539353    1.061019   -0.012649
      2          6           0       -1.170045   -0.182549    0.028961
      3          8           0       -0.201308   -1.090727   -0.017120
      4          6           0        1.014732   -0.522020   -0.001889
      5          6           0        0.911592    0.780923   -0.009582
      6          1           0        1.622497    1.557458    0.076031
      7          1           0        1.845513   -1.197540    0.044122
      8          1           0       -2.155868   -0.461706    0.015911
      9          1           0       -1.003236    2.003364   -0.028147
 ---------------------------------------------------------------------

 SCF Done:  E(RAM1) =  -4.44713186465     A.U. after   14 cycles

 Excitation energies and oscillator strengths:

 Excited State   1:      Singlet-A      6.6111 eV  187.54 nm  f=0.0111  <S**2>=0.000
      13 -> 14        -0.27280
      13 -> 15         0.48744
      13 -> 16        -0.32285
      13 -> 17        -0.18896
      13 -> 18         0.12223
      13 -> 20        -0.13470
 This state for optimization and/or second-order correction.
 Total Energy, E(CIS) =  -4.20417963437
 Copying the excited state density for this state as the 1-particle RhoCI density.

 Excited State   2:      Singlet-A      6.8947 eV  179.83 nm  f=0.0430  <S**2>=0.000
      13 -> 14        -0.17731
      13 -> 15         0.15495
      13 -> 16         0.50895
      13 -> 17        -0.38493
      13 -> 18        -0.10741

 Excited State   3:      Singlet-A      7.1938 eV  172.35 nm  f=0.2794  <S**2>=0.000
      11 -> 17         0.11729
      13 -> 14         0.56761
      13 -> 15         0.37222

 Excited State   4:      Singlet-A      7.5660 eV  163.87 nm  f=0.0702  <S**2>=0.000
      13 -> 14        -0.19023
      13 -> 15         0.28810
      13 -> 16         0.21505
      13 -> 17         0.54437
      13 -> 18        -0.13167

 Excited State   5:      Singlet-A      8.0624 eV  153.78 nm  f=0.0103  <S**2>=0.000
      12 -> 14         0.66812
      12 -> 15         0.13258
      13 -> 16        -0.12063

 Excited State   6:      Singlet-A      8.2955 eV  149.46 nm  f=0.0040  <S**2>=0.000
      12 -> 14         0.13424
      13 -> 16         0.16454
      13 -> 18         0.63755
      13 -> 20         0.11946

 Excited State   7:      Singlet-A      8.7620 eV  141.50 nm  f=0.1142  <S**2>=0.000
      11 -> 17         0.15889
      12 -> 15        -0.33754
      12 -> 16         0.48980
      12 -> 18        -0.23019
      12 -> 20         0.15096
      12 -> 21        -0.12054

 Excited State   8:      Singlet-A      9.2407 eV  134.17 nm  f=0.0127  <S**2>=0.000
      11 -> 14         0.64640
      11 -> 15         0.11748
      13 -> 19        -0.21663

 Excited State   9:      Singlet-A      9.3919 eV  132.01 nm  f=0.0087  <S**2>=0.000
      11 -> 14        -0.15406
      13 -> 16        -0.16304
      13 -> 19        -0.30593
      13 -> 20         0.56474

 Excited State  10:      Singlet-A      9.5138 eV  130.32 nm  f=0.0044  <S**2>=0.000
      11 -> 18        -0.12317
      12 -> 15        -0.31613
      12 -> 16        -0.24331
      12 -> 17         0.50420
      13 -> 20         0.15356

 Excited State  11:      Singlet-A      9.6686 eV  128.23 nm  f=0.0243  <S**2>=0.000
      11 -> 14         0.15786
      13 -> 19         0.58225
      13 -> 20         0.32110

 Excited State  12:      Singlet-A      9.9494 eV  124.61 nm  f=0.0173  <S**2>=0.000
      10 -> 14         0.13865
      11 -> 15        -0.33708
      11 -> 16         0.34562
      11 -> 17         0.15508
      11 -> 18        -0.23215
      12 -> 15         0.26316
      12 -> 17         0.16550

 Excited State  13:      Singlet-A     10.0906 eV  122.87 nm  f=0.2311  <S**2>=0.000
      11 -> 16        -0.31135
      11 -> 18         0.19525
      12 -> 15         0.34327
      12 -> 16         0.14317
      12 -> 17         0.35272
      12 -> 18        -0.12388
      12 -> 19         0.14373

 Excited State  14:      Singlet-A     10.2147 eV  121.38 nm  f=0.0932  <S**2>=0.000
       8 -> 17        -0.10506
       9 -> 18        -0.10236
      10 -> 14        -0.11367
      11 -> 15        -0.26567
      11 -> 16        -0.23777
      11 -> 17         0.47421
      12 -> 16        -0.15843
      12 -> 17        -0.14097

 Excited State  15:      Singlet-A     10.4294 eV  118.88 nm  f=0.0073  <S**2>=0.000
      13 -> 18        -0.13816
      13 -> 21         0.67113

 The electronic state is 1-A.
 Alpha  occ. eigenvalues --   -3.14545  -1.39068  -1.05255  -1.04403  -1.03526
 Alpha  occ. eigenvalues --   -0.95286  -0.83575  -0.64601  -0.63505  -0.58200
 Alpha  occ. eigenvalues --   -0.53063  -0.49349  -0.39352
 Alpha virt. eigenvalues --    0.07943   0.08650   0.10606   0.12176   0.14911
 Alpha virt. eigenvalues --    0.19289   0.21904   0.24704   0.25921   0.32124
 Alpha virt. eigenvalues --    0.40973

 Mulliken charges:
               1
     1  C   -0.422708
     2  C   -1.865794
     3  O    3.046268
     4  C   -1.806869
     5  C   -0.312176
     6  H    0.300834
     7  H    0.366983
     8  H    0.382396
     9  H    0.311066
 Sum of Mulliken charges =   0.00000

 Dipole moment (field-independent basis, Debye):
    X=             -1.2521    Y=             -9.8323    Z=             -0.2309  Tot=              9.9144
 N-N= 1.051715340403D+02 E-N=-1.700295131758D+02  KE=-2.373326903043D+01
 Orbital energies and kinetic energies (alpha):
                                 1                 2
   1         O                -3.145447         -2.411958
   2         O                -1.390680         -1.325437
   3         O                -1.052545         -1.043423
   4         O                -1.044034         -1.027175
   5         O                -1.035262         -1.056364
   6         O                -0.952864         -0.860905
   7         O                -0.835749         -0.799749

 Normal termination of Gaussian 09 at Fri Dec 11 13:41:21 2015.
