 Gaussian 09, Revision D.01,
 Gaussian 09:  ES64L-G09RevD.01 24-Apr-2013

 ------------------------------------------------------------
 #P AM1(Input,print) CIS(Singlets,NStates=15) pop(full) force
 ------------------------------------------------------------

 -----------------
 AM1-Reparam Input
 -----------------
 Symbolic Z-matrix:
 Charge =  0 Multiplicity = 1

                         Standard orientation:
 ---------------------------------------------------------------------
 Center     Atomic      Atomic             Coordinates (Angstroms)
 Number     Number       Type             X           Y           Z
 ---------------------------------------------------------------------
      1          6           0       -1.019134    0.700298   -0.028078
      2          6           0       -0.896149   -0.702093    0.005899
      3          8           0        0.366618   -1.083516   -0.012352
      4          6           0        1.164285   -0.002440    0.015332
      5          6           0        0.363164    1.140054    0.027278
      6          1           0        0.743042    2.129363   -0.022659
      7          1           0        2.214252   -0.156025   -0.065589
      8          1           0       -1.697125   -1.438065    0.071687
      9          1           0       -1.866105    1.317940   -0.007204
 ---------------------------------------------------------------------

 SCF Done:  E(RAM1) =  0.191928814682E-01 A.U. after   14 cycles

 Excitation energies and oscillator strengths:

 Excited State   1:      Singlet-A      4.3379 eV  285.82 nm  f=0.0826  <S**2>=0.000
      12 -> 15        -0.22630
      13 -> 14         0.66205
 This state for optimization and/or second-order correction.
 Total Energy, E(CIS) =  0.178608009497
 Copying the excited state density for this state as the 1-particle RhoCI density.

 Excited State   2:      Singlet-A      4.6462 eV  266.85 nm  f=0.0012  <S**2>=0.000
      13 -> 15         0.17137
      13 -> 16         0.66095
      13 -> 22         0.11633

 Excited State   3:      Singlet-A      4.8166 eV  257.41 nm  f=0.0128  <S**2>=0.000
      12 -> 14         0.38131
      13 -> 15         0.55957
      13 -> 16        -0.19009

 Excited State   4:      Singlet-A      5.7162 eV  216.90 nm  f=0.0010  <S**2>=0.000
      12 -> 18        -0.20803
      12 -> 21         0.12642
      13 -> 17         0.28323
      13 -> 18         0.49414
      13 -> 21        -0.13663
      13 -> 23        -0.20348

 Excited State   5:      Singlet-A      5.8381 eV  212.37 nm  f=0.0061  <S**2>=0.000
      12 -> 17         0.16377
      12 -> 19         0.20879
      12 -> 21         0.10943
      12 -> 23        -0.11996
      13 -> 17         0.26387
      13 -> 19         0.43197
      13 -> 21         0.25554
      13 -> 22         0.13065
      13 -> 23        -0.14585

 Excited State   6:      Singlet-A      5.9309 eV  209.05 nm  f=0.0074  <S**2>=0.000
       7 -> 16        -0.16024
      12 -> 15         0.17073
      12 -> 16         0.63034
      12 -> 22         0.11839

 Excited State   7:      Singlet-A      6.0492 eV  204.96 nm  f=0.3701  <S**2>=0.000
      12 -> 14         0.54689
      13 -> 15        -0.36597

 Excited State   8:      Singlet-A      6.1451 eV  201.76 nm  f=0.1513  <S**2>=0.000
      12 -> 15         0.62854
      12 -> 16        -0.17513
      13 -> 14         0.20538

 Excited State   9:      Singlet-A      6.4792 eV  191.36 nm  f=0.0054  <S**2>=0.000
      11 -> 14        -0.11219
      13 -> 17         0.45138
      13 -> 18        -0.36195
      13 -> 19        -0.30034
      13 -> 21        -0.10681

 Excited State  10:      Singlet-A      6.8857 eV  180.06 nm  f=0.0015  <S**2>=0.000
      11 -> 14        -0.15623
      12 -> 17         0.36035
      12 -> 18        -0.34678
      12 -> 19        -0.13519
      12 -> 20        -0.27383
      12 -> 21        -0.14849
      12 -> 23        -0.16007
      13 -> 18        -0.12228
      13 -> 21        -0.10566
      13 -> 22        -0.12809

 Excited State  11:      Singlet-A      6.8957 eV  179.80 nm  f=0.0043  <S**2>=0.000
       9 -> 14         0.25230
      10 -> 14        -0.11422
      10 -> 15         0.20869
      11 -> 14         0.49907
      11 -> 15         0.21149
      12 -> 18        -0.16765
      13 -> 17         0.10228

 Excited State  12:      Singlet-A      7.1746 eV  172.81 nm  f=0.0040  <S**2>=0.000
      10 -> 14         0.47480
      10 -> 15        -0.18749
      11 -> 15         0.40007
      13 -> 21        -0.10765
      13 -> 22        -0.11074

 Excited State  13:      Singlet-A      7.2882 eV  170.12 nm  f=0.0027  <S**2>=0.000
      10 -> 14        -0.20843
      12 -> 17        -0.18773
      12 -> 18        -0.13793
      12 -> 19        -0.14037
      12 -> 20         0.24758
      12 -> 23         0.11190
      13 -> 18        -0.13929
      13 -> 19         0.36168
      13 -> 21        -0.26806
      13 -> 22        -0.14683

 Excited State  14:      Singlet-A      7.4318 eV  166.83 nm  f=0.0004  <S**2>=0.000
      12 -> 17        -0.16348
      12 -> 18        -0.30306
      12 -> 19         0.29109
      12 -> 22         0.16974
      13 -> 17        -0.17039
      13 -> 18        -0.14972
      13 -> 20         0.33479
      13 -> 22         0.10306
      13 -> 24        -0.21089

 Excited State  15:      Singlet-A      7.4984 eV  165.35 nm  f=0.0032  <S**2>=0.000
      12 -> 17        -0.20215
      12 -> 18        -0.18715
      12 -> 19        -0.28817
      12 -> 22        -0.17224
      13 -> 17         0.17443
      13 -> 20         0.11868
      13 -> 21         0.12003
      13 -> 22         0.37289
      13 -> 23         0.19149
      13 -> 24         0.12509

 The electronic state is 1-A.
 Alpha  occ. eigenvalues --   -1.58050  -1.22740  -1.09613  -0.83299  -0.81194
 Alpha  occ. eigenvalues --   -0.68974  -0.61521  -0.57900  -0.51187  -0.50220
 Alpha  occ. eigenvalues --   -0.48712  -0.38571  -0.33939
 Alpha virt. eigenvalues --    0.03126   0.05779   0.09244   0.14130   0.15009
 Alpha virt. eigenvalues --    0.15569   0.18009   0.18367   0.19190   0.20825
 Alpha virt. eigenvalues --    0.22974

 Mulliken charges:
               1
     1  C   -0.212150
     2  C   -0.112641
     3  O   -0.041773
     4  C   -0.129413
     5  C   -0.206182
     6  H    0.153892
     7  H    0.192650
     8  H    0.191431
     9  H    0.164185
 Sum of Mulliken charges =   0.00000

 Dipole moment (field-independent basis, Debye):
    X=             -0.0840    Y=              0.1272    Z=             -0.0377  Tot=              0.1570
 N-N= 1.034099735062D+02 E-N=-1.708957016116D+02  KE=-1.656744203355D+01
 Orbital energies and kinetic energies (alpha):
                                 1                 2
   1         O                -1.580503         -1.311960
   2         O                -1.227401         -1.054046
   3         O                -1.096133         -0.955304
   4         O                -0.832993         -0.710834
   5         O                -0.811942         -0.726151
   6         O                -0.689739         -0.603698
   7         O                -0.615211         -0.492989

 Normal termination of Gaussian 09 at Tue Dec 15 16:10:32 2015.
