 Gaussian 09, Revision D.01,
 Gaussian 09:  ES64L-G09RevD.01 24-Apr-2013

 ------------------------------------------------------------
 #P AM1(Input,print) CIS(Singlets,NStates=15) pop(full) force
 ------------------------------------------------------------

 -----------------
 AM1-Reparam Input
 -----------------
 Symbolic Z-matrix:
 Charge =  0 Multiplicity = 1

                         Standard orientation:
 ---------------------------------------------------------------------
 Center     Atomic      Atomic             Coordinates (Angstroms)
 Number     Number       Type             X           Y           Z
 ---------------------------------------------------------------------
      1          6           0       -1.019760    0.708164   -0.025687
      2          6           0       -0.988633   -0.636175    0.046698
      3          8           0        0.370198   -1.136602   -0.036632
      4          6           0        1.185691    0.017817    0.028300
      5          6           0        0.420975    1.089536   -0.014464
      6          1           0        0.751393    2.181483    0.045415
      7          1           0        2.241335   -0.147917    0.023371
      8          1           0       -1.664749   -1.364004    0.025908
      9          1           0       -1.879206    1.347208   -0.010723
 ---------------------------------------------------------------------

 SCF Done:  E(RAM1) =   2.15655614694     A.U. after   13 cycles

 Excitation energies and oscillator strengths:

 Excited State   1:      Singlet-A      5.0866 eV  243.74 nm  f=0.3558  <S**2>=0.000
      13 -> 14         0.69637
 This state for optimization and/or second-order correction.
 Total Energy, E(CIS) =   2.34348678245
 Copying the excited state density for this state as the 1-particle RhoCI density.

 Excited State   2:      Singlet-A      6.1958 eV  200.11 nm  f=0.0010  <S**2>=0.000
      13 -> 15         0.67050
      13 -> 19        -0.11112
      13 -> 20        -0.11559

 Excited State   3:      Singlet-A      6.4133 eV  193.32 nm  f=0.0013  <S**2>=0.000
      13 -> 16         0.65908
      13 -> 17        -0.15457
      13 -> 20         0.12993

 Excited State   4:      Singlet-A      6.8472 eV  181.07 nm  f=0.0023  <S**2>=0.000
      12 -> 14         0.70052

 Excited State   5:      Singlet-A      7.6165 eV  162.78 nm  f=0.0005  <S**2>=0.000
      13 -> 16         0.15873
      13 -> 17         0.47923
      13 -> 19        -0.33970
      13 -> 20        -0.21408
      13 -> 22        -0.25321

 Excited State   6:      Singlet-A      8.0252 eV  154.49 nm  f=0.0062  <S**2>=0.000
      10 -> 14        -0.20429
      11 -> 14         0.21578
      13 -> 15         0.11602
      13 -> 17         0.41378
      13 -> 19         0.39965
      13 -> 20         0.19821
      13 -> 22         0.12104

 Excited State   7:      Singlet-A      8.2552 eV  150.19 nm  f=0.0024  <S**2>=0.000
      10 -> 14         0.47836
      11 -> 14        -0.41356
      13 -> 17         0.23185
      13 -> 19         0.13157
      13 -> 20         0.11287

 Excited State   8:      Singlet-A      8.5155 eV  145.60 nm  f=0.0049  <S**2>=0.000
      10 -> 14        -0.23082
      11 -> 14        -0.25799
      13 -> 18         0.59928

 Excited State   9:      Singlet-A      8.7115 eV  142.32 nm  f=0.0033  <S**2>=0.000
      13 -> 19        -0.38129
      13 -> 20         0.57309

 Excited State  10:      Singlet-A      9.2045 eV  134.70 nm  f=0.1258  <S**2>=0.000
      10 -> 14         0.35109
      11 -> 14         0.40562
      12 -> 15        -0.13616
      12 -> 17        -0.12627
      13 -> 18         0.32571
      13 -> 21         0.18923

 Excited State  11:      Singlet-A      9.2826 eV  133.57 nm  f=0.0241  <S**2>=0.000
      10 -> 14         0.11544
      11 -> 14         0.11668
      13 -> 18         0.12219
      13 -> 19        -0.17267
      13 -> 20        -0.12371
      13 -> 21        -0.37178
      13 -> 22         0.50109

 Excited State  12:      Singlet-A      9.4721 eV  130.89 nm  f=0.0627  <S**2>=0.000
      12 -> 15         0.18708
      12 -> 16        -0.14071
      13 -> 21         0.50293
      13 -> 22         0.34171

 Excited State  13:      Singlet-A      9.5510 eV  129.81 nm  f=0.1325  <S**2>=0.000
      10 -> 14         0.12337
      11 -> 14         0.10886
      12 -> 15         0.41427
      12 -> 16        -0.28704
      12 -> 17         0.13631
      12 -> 19        -0.19197
      12 -> 20        -0.11589
      13 -> 21        -0.19164
      13 -> 22        -0.18318

 Excited State  14:      Singlet-A      9.9407 eV  124.72 nm  f=0.0486  <S**2>=0.000
      10 -> 15         0.18042
      10 -> 19        -0.10665
      12 -> 15         0.46091
      12 -> 16         0.29686
      12 -> 17        -0.26260

 Excited State  15:      Singlet-A     10.2987 eV  120.39 nm  f=0.2821  <S**2>=0.000
       8 -> 16         0.16581
      10 -> 16        -0.11075
      10 -> 17         0.12090
      11 -> 16         0.16035
      11 -> 17        -0.11680
      12 -> 16         0.41822
      12 -> 17         0.35152
      12 -> 19        -0.19171

 The electronic state is 1-A.
 Alpha  occ. eigenvalues --   -1.91384  -1.16889  -0.93481  -0.79412  -0.78593
 Alpha  occ. eigenvalues --   -0.69051  -0.63836  -0.54535  -0.53678  -0.44148
 Alpha  occ. eigenvalues --   -0.43991  -0.39629  -0.26428
 Alpha virt. eigenvalues --    0.12104   0.18888   0.20732   0.26538   0.27828
 Alpha virt. eigenvalues --    0.28478   0.30626   0.31928   0.33165   0.36778
 Alpha virt. eigenvalues --    0.39910

 Mulliken charges:
               1
     1  C   -0.144257
     2  C   -1.840991
     3  O    3.206669
     4  C   -1.839393
     5  C   -0.189086
     6  H    0.157620
     7  H    0.258496
     8  H    0.236783
     9  H    0.154159
 Sum of Mulliken charges =   0.00000

 Dipole moment (field-independent basis, Debye):
    X=              3.9032    Y=            -11.2099    Z=             -0.9861  Tot=             11.9109
 N-N= 1.031288024176D+02 E-N=-1.675982644368D+02  KE=-1.524511893357D+01
 Orbital energies and kinetic energies (alpha):
                                 1                 2
   1         O                -1.913840         -1.300206
   2         O                -1.168890         -1.037660
   3         O                -0.934807         -0.893661
   4         O                -0.794123         -0.645243
   5         O                -0.785935         -0.625904
   6         O                -0.690514         -0.575843
   7         O                -0.638358         -0.519869

 Normal termination of Gaussian 09 at Tue Dec 15 17:09:22 2015.
