 Gaussian 09, Revision D.01,
 Gaussian 09:  ES64L-G09RevD.01 24-Apr-2013

 ------------------------------------------------------------
 #P AM1(Input,print) CIS(Singlets,NStates=15) pop(full) force
 ------------------------------------------------------------

 -----------------
 AM1-Reparam Input
 -----------------
 Symbolic Z-matrix:
 Charge =  0 Multiplicity = 1

                         Standard orientation:
 ---------------------------------------------------------------------
 Center     Atomic      Atomic             Coordinates (Angstroms)
 Number     Number       Type             X           Y           Z
 ---------------------------------------------------------------------
      1          6           0        0.222048    1.174549   -0.022903
      2          6           0        1.125406    0.115966    0.022755
      3          8           0        0.481424   -1.064922   -0.017949
      4          6           0       -0.810911   -0.774028    0.015656
      5          6           0       -1.055215    0.593731   -0.003601
      6          1           0       -1.979509    1.086894    0.028569
      7          1           0       -1.545866   -1.581484    0.001573
      8          1           0        2.236428    0.095079    0.020905
      9          1           0        0.549588    2.257576    0.021105
 ---------------------------------------------------------------------

 SCF Done:  E(RAM1) =  0.201474251095E-01 A.U. after   13 cycles

 Excitation energies and oscillator strengths:

 Excited State   1:      Singlet-A      4.2753 eV  290.00 nm  f=0.0956  <S**2>=0.000
      12 -> 15        -0.19073
      13 -> 14         0.67303
 This state for optimization and/or second-order correction.
 Total Energy, E(CIS) =  0.177261313333
 Copying the excited state density for this state as the 1-particle RhoCI density.

 Excited State   2:      Singlet-A      4.6980 eV  263.91 nm  f=0.0006  <S**2>=0.000
      13 -> 16         0.68271
      13 -> 22         0.10945

 Excited State   3:      Singlet-A      4.8669 eV  254.75 nm  f=0.0175  <S**2>=0.000
      12 -> 14         0.37358
      13 -> 15         0.59613

 Excited State   4:      Singlet-A      5.7432 eV  215.88 nm  f=0.0023  <S**2>=0.000
      12 -> 18        -0.11544
      12 -> 20         0.15038
      12 -> 21         0.12852
      13 -> 17         0.40220
      13 -> 18         0.33132
      13 -> 19        -0.24076
      13 -> 20        -0.17979
      13 -> 23         0.24006

 Excited State   5:      Singlet-A      5.8310 eV  212.63 nm  f=0.0003  <S**2>=0.000
      12 -> 17        -0.15935
      12 -> 19         0.15804
      12 -> 23        -0.11596
      13 -> 17        -0.10665
      13 -> 18         0.28068
      13 -> 19         0.37274
      13 -> 20        -0.27061
      13 -> 21        -0.31182

 Excited State   6:      Singlet-A      6.1774 eV  200.71 nm  f=0.2787  <S**2>=0.000
      12 -> 14         0.48986
      12 -> 16         0.32700
      13 -> 15        -0.30534

 Excited State   7:      Singlet-A      6.2169 eV  199.43 nm  f=0.0965  <S**2>=0.000
       7 -> 16        -0.14850
      12 -> 14        -0.28615
      12 -> 16         0.55621
      13 -> 15         0.17845

 Excited State   8:      Singlet-A      6.4132 eV  193.33 nm  f=0.1450  <S**2>=0.000
      12 -> 15         0.64940
      13 -> 14         0.17060
      13 -> 17        -0.10225

 Excited State   9:      Singlet-A      6.4395 eV  192.54 nm  f=0.0102  <S**2>=0.000
      12 -> 15        -0.15665
      13 -> 17        -0.39087
      13 -> 18         0.39156
      13 -> 19        -0.31664
      13 -> 21         0.11205

 Excited State  10:      Singlet-A      6.9838 eV  177.53 nm  f=0.0013  <S**2>=0.000
       9 -> 14        -0.11681
      11 -> 14         0.18703
      11 -> 15         0.12380
      12 -> 18         0.31858
      12 -> 19        -0.16988
      13 -> 18         0.23244
      13 -> 19         0.26605
      13 -> 20         0.11040
      13 -> 21         0.27949
      13 -> 22        -0.18871

 Excited State  11:      Singlet-A      7.0556 eV  175.72 nm  f=0.0039  <S**2>=0.000
       9 -> 14         0.27145
      10 -> 14         0.36236
      10 -> 15        -0.25773
      11 -> 14        -0.31247
      11 -> 15        -0.17077
      12 -> 19        -0.14518
      13 -> 21         0.12546

 Excited State  12:      Singlet-A      7.1213 eV  174.10 nm  f=0.0004  <S**2>=0.000
      10 -> 14         0.42686
      10 -> 15        -0.20299
      11 -> 14         0.37333
      11 -> 15         0.26775
      12 -> 18        -0.10708

 Excited State  13:      Singlet-A      7.2800 eV  170.31 nm  f=0.0002  <S**2>=0.000
      12 -> 17         0.38795
      12 -> 18         0.18295
      12 -> 19         0.15295
      12 -> 20         0.11356
      12 -> 21        -0.21528
      12 -> 23         0.14186
      13 -> 17         0.22119
      13 -> 18         0.15690
      13 -> 20         0.20359
      13 -> 22         0.12500
      13 -> 24        -0.11059

 Excited State  14:      Singlet-A      7.4086 eV  167.35 nm  f=0.0010  <S**2>=0.000
      10 -> 14        -0.10248
      12 -> 17         0.11950
      12 -> 18        -0.26212
      12 -> 20         0.25849
      12 -> 22        -0.26249
      12 -> 23         0.22298
      13 -> 17        -0.10314
      13 -> 19         0.18627
      13 -> 21         0.29149
      13 -> 22        -0.15685
      13 -> 24         0.14905

 Excited State  15:      Singlet-A      7.5064 eV  165.17 nm  f=0.0058  <S**2>=0.000
      12 -> 17        -0.21101
      12 -> 19         0.37355
      12 -> 21        -0.17933
      12 -> 22         0.11922
      13 -> 17         0.19299
      13 -> 19        -0.11541
      13 -> 21         0.19167
      13 -> 22        -0.23444
      13 -> 23        -0.19512
      13 -> 24        -0.21680

 The electronic state is 1-A.
 Alpha  occ. eigenvalues --   -1.58592  -1.24301  -1.08419  -0.82773  -0.81192
 Alpha  occ. eigenvalues --   -0.68606  -0.61475  -0.56739  -0.51606  -0.49464
 Alpha  occ. eigenvalues --   -0.49206  -0.39362  -0.33762
 Alpha virt. eigenvalues --    0.03059   0.06364   0.09584   0.13947   0.14599
 Alpha virt. eigenvalues --    0.15357   0.17498   0.18447   0.18896   0.20847
 Alpha virt. eigenvalues --    0.22697

 Mulliken charges:
               1
     1  C   -0.200585
     2  C   -0.146384
     3  O   -0.027962
     4  C   -0.126612
     5  C   -0.200739
     6  H    0.159340
     7  H    0.186603
     8  H    0.192338
     9  H    0.164001
 Sum of Mulliken charges =   0.00000

 Dipole moment (field-independent basis, Debye):
    X=             -0.0210    Y=              0.2567    Z=              0.0439  Tot=              0.2613
 N-N= 1.035044638366D+02 E-N=-1.710982257805D+02  KE=-1.656046723810D+01
 Orbital energies and kinetic energies (alpha):
                                 1                 2
   1         O                -1.585920         -1.320245
   2         O                -1.243014         -1.061593
   3         O                -1.084186         -0.946022
   4         O                -0.827735         -0.705760
   5         O                -0.811922         -0.718884
   6         O                -0.686063         -0.602716
   7         O                -0.614751         -0.492759

 Normal termination of Gaussian 09 at Tue Dec 15 16:26:30 2015.
