 Gaussian 09, Revision D.01,
 Gaussian 09:  ES64L-G09RevD.01 24-Apr-2013

 ------------------------------------------------------------
 #P AM1(Input,print) CIS(Singlets,NStates=15) pop(full) force
 ------------------------------------------------------------

 -----------------
 AM1-Reparam Input
 -----------------
 Symbolic Z-matrix:
 Charge =  0 Multiplicity = 1

                         Standard orientation:
 ---------------------------------------------------------------------
 Center     Atomic      Atomic             Coordinates (Angstroms)
 Number     Number       Type             X           Y           Z
 ---------------------------------------------------------------------
      1          6           0        0.956267    0.768817   -0.033050
      2          6           0       -0.446032    1.036165    0.027912
      3          8           0       -1.161625   -0.059223   -0.012288
      4          6           0       -0.315899   -1.090225   -0.000004
      5          6           0        1.029584   -0.673188   -0.002364
      6          1           0        1.929279   -1.218888    0.064128
      7          1           0       -0.770907   -2.058547    0.023451
      8          1           0       -0.921401    2.023070    0.013819
      9          1           0        1.712513    1.478739    0.041936
 ---------------------------------------------------------------------

 SCF Done:  E(RAM1) =   2.48314747113     A.U. after   13 cycles

 Excitation energies and oscillator strengths:

 Excited State   1:      Singlet-A      5.5084 eV  225.08 nm  f=0.3605  <S**2>=0.000
      13 -> 14         0.69538
 This state for optimization and/or second-order correction.
 Total Energy, E(CIS) =   2.68557890792
 Copying the excited state density for this state as the 1-particle RhoCI density.

 Excited State   2:      Singlet-A      6.6156 eV  187.41 nm  f=0.0049  <S**2>=0.000
      13 -> 15         0.65624
      13 -> 17         0.21281

 Excited State   3:      Singlet-A      6.8696 eV  180.48 nm  f=0.0012  <S**2>=0.000
      11 -> 16         0.10921
      12 -> 14         0.10710
      13 -> 16         0.64165
      13 -> 18         0.20324

 Excited State   4:      Singlet-A      6.9254 eV  179.03 nm  f=0.0036  <S**2>=0.000
       9 -> 14         0.14393
      12 -> 14         0.67799
      13 -> 16        -0.10030

 Excited State   5:      Singlet-A      7.9365 eV  156.22 nm  f=0.0062  <S**2>=0.000
      10 -> 14         0.66445
      11 -> 14        -0.21232

 Excited State   6:      Singlet-A      8.1885 eV  151.41 nm  f=0.0001  <S**2>=0.000
      11 -> 15        -0.11989
      13 -> 16        -0.12626
      13 -> 17        -0.14199
      13 -> 18         0.51223
      13 -> 19        -0.19448
      13 -> 21         0.35899

 Excited State   7:      Singlet-A      8.5552 eV  144.92 nm  f=0.0990  <S**2>=0.000
      10 -> 14         0.18068
      11 -> 14         0.63663
      13 -> 17         0.19018

 Excited State   8:      Singlet-A      8.6023 eV  144.13 nm  f=0.0231  <S**2>=0.000
      10 -> 14        -0.13008
      11 -> 14        -0.18192
      11 -> 15         0.12335
      11 -> 16        -0.15427
      13 -> 15        -0.13735
      13 -> 17         0.59555
      13 -> 18         0.13243

 Excited State   9:      Singlet-A      9.1115 eV  136.07 nm  f=0.0010  <S**2>=0.000
       9 -> 14         0.10079
      11 -> 15        -0.14907
      11 -> 16        -0.10796
      13 -> 16        -0.10127
      13 -> 18         0.19609
      13 -> 19         0.62393

 Excited State  10:      Singlet-A      9.5137 eV  130.32 nm  f=0.0319  <S**2>=0.000
       8 -> 15         0.14331
       9 -> 16         0.12058
       9 -> 18         0.11642
      10 -> 15         0.27170
      10 -> 16         0.10938
      10 -> 17         0.22257
      11 -> 15        -0.13007
      12 -> 15        -0.23424
      12 -> 16         0.30625
      12 -> 18         0.25113

 Excited State  11:      Singlet-A      9.6036 eV  129.10 nm  f=0.0012  <S**2>=0.000
       9 -> 14        -0.29424
      11 -> 15        -0.15904
      13 -> 18        -0.30099
      13 -> 19         0.16147
      13 -> 21         0.49240

 Excited State  12:      Singlet-A      9.7306 eV  127.42 nm  f=0.0077  <S**2>=0.000
       9 -> 14         0.55690
      11 -> 15        -0.25964
      12 -> 14        -0.11284
      13 -> 18        -0.16359
      13 -> 21         0.17590

 Excited State  13:      Singlet-A      9.7348 eV  127.36 nm  f=0.0191  <S**2>=0.000
       9 -> 14         0.23192
      11 -> 15         0.48897
      12 -> 15        -0.15322
      12 -> 16         0.17498
      13 -> 19         0.11441
      13 -> 21         0.26741

 Excited State  14:      Singlet-A      9.8276 eV  126.16 nm  f=0.0240  <S**2>=0.000
       9 -> 15        -0.10947
      10 -> 15         0.27068
      11 -> 16         0.15551
      12 -> 15         0.52141
      12 -> 16         0.15928
      12 -> 17         0.15435

 Excited State  15:      Singlet-A      9.9355 eV  124.79 nm  f=0.0802  <S**2>=0.000
      10 -> 15         0.20279
      11 -> 16        -0.29758
      12 -> 16        -0.19546
      13 -> 20         0.51972

 The electronic state is 1-A.
 Alpha  occ. eigenvalues --   -1.74716  -1.14563  -0.94276  -0.81357  -0.75653
 Alpha  occ. eigenvalues --   -0.68035  -0.64464  -0.55045  -0.49182  -0.45529
 Alpha  occ. eigenvalues --   -0.43541  -0.42028  -0.30467
 Alpha virt. eigenvalues --    0.10332   0.17037   0.17878   0.25023   0.26538
 Alpha virt. eigenvalues --    0.28368   0.30125   0.31073   0.42528   0.51548
 Alpha virt. eigenvalues --    0.56380

 Mulliken charges:
               1
     1  C   -0.055682
     2  C   -1.980038
     3  O    3.219249
     4  C   -1.940873
     5  C   -0.017537
     6  H    0.115553
     7  H    0.258612
     8  H    0.283139
     9  H    0.117577
 Sum of Mulliken charges =   0.00000

 Dipole moment (field-independent basis, Debye):
    X=             -9.7734    Y=             -0.3152    Z=             -0.2614  Tot=              9.7820
 N-N= 1.036093511017D+02 E-N=-1.684507235326D+02  KE=-1.502453027737D+01
 Orbital energies and kinetic energies (alpha):
                                 1                 2
   1         O                -1.747160         -1.254724
   2         O                -1.145628         -1.015764
   3         O                -0.942764         -0.836553
   4         O                -0.813570         -0.634936
   5         O                -0.756534         -0.680441
   6         O                -0.680351         -0.591150
   7         O                -0.644640         -0.514247

 Normal termination of Gaussian 09 at Tue Dec 15 17:06:11 2015.
