 Gaussian 09, Revision D.01,
 Gaussian 09:  ES64L-G09RevD.01 24-Apr-2013

 ------------------------------------------------------------
 #P AM1(Input,print) CIS(Singlets,NStates=15) pop(full) force
 ------------------------------------------------------------

 -----------------
 AM1-Reparam Input
 -----------------
 Symbolic Z-matrix:
 Charge =  0 Multiplicity = 1

                         Standard orientation:
 ---------------------------------------------------------------------
 Center     Atomic      Atomic             Coordinates (Angstroms)
 Number     Number       Type             X           Y           Z
 ---------------------------------------------------------------------
      1          6           0       -0.665865    0.957278    0.014724
      2          6           0       -1.132175   -0.269605   -0.006172
      3          8           0       -0.098945   -1.117611    0.002424
      4          6           0        1.108963   -0.423892   -0.004289
      5          6           0        0.776661    0.915995   -0.001533
      6          1           0        1.541009    1.678498   -0.014108
      7          1           0        2.043037   -1.016907    0.012523
      8          1           0       -2.092149   -0.719377   -0.010107
      9          1           0       -1.225847    1.920021   -0.024073
 ---------------------------------------------------------------------

 SCF Done:  E(RAM1) =   1.83157488967     A.U. after   14 cycles

 Excitation energies and oscillator strengths:

 Excited State   1:      Singlet-A      5.5356 eV  223.98 nm  f=0.3329  <S**2>=0.000
      11 -> 17        -0.10220
      13 -> 14         0.69086
 This state for optimization and/or second-order correction.
 Total Energy, E(CIS) =   2.03500292115
 Copying the excited state density for this state as the 1-particle RhoCI density.

 Excited State   2:      Singlet-A      6.4329 eV  192.73 nm  f=0.0021  <S**2>=0.000
      10 -> 15         0.11522
      13 -> 15         0.66629
      13 -> 17        -0.12266
      13 -> 19         0.10093

 Excited State   3:      Singlet-A      6.6603 eV  186.16 nm  f=0.0008  <S**2>=0.000
      12 -> 14         0.67846
      13 -> 16        -0.15588

 Excited State   4:      Singlet-A      6.6787 eV  185.64 nm  f=0.0015  <S**2>=0.000
      10 -> 16        -0.10959
      12 -> 14         0.17263
      13 -> 16         0.62712
      13 -> 17        -0.17812
      13 -> 19        -0.13141

 Excited State   5:      Singlet-A      7.6242 eV  162.62 nm  f=0.0053  <S**2>=0.000
      11 -> 14         0.68938
      13 -> 17         0.11554

 Excited State   6:      Singlet-A      7.9372 eV  156.21 nm  f=0.0008  <S**2>=0.000
      10 -> 16        -0.10982
      11 -> 14        -0.10749
      13 -> 16         0.16104
      13 -> 17         0.46779
      13 -> 18        -0.40698
      13 -> 21        -0.24732

 Excited State   7:      Singlet-A      8.1620 eV  151.91 nm  f=0.0096  <S**2>=0.000
      13 -> 15         0.13093
      13 -> 17         0.45205
      13 -> 18         0.44840
      13 -> 19        -0.10420
      13 -> 21         0.20253

 Excited State   8:      Singlet-A      8.8714 eV  139.76 nm  f=0.0007  <S**2>=0.000
      13 -> 16         0.10280
      13 -> 18         0.17175
      13 -> 19         0.65479

 Excited State   9:      Singlet-A      8.9159 eV  139.06 nm  f=0.0120  <S**2>=0.000
       8 -> 15        -0.11497
      10 -> 14         0.45677
      11 -> 17         0.12781
      12 -> 15         0.39205
      12 -> 17         0.13662
      12 -> 18        -0.19161

 Excited State  10:      Singlet-A      9.0569 eV  136.89 nm  f=0.0651  <S**2>=0.000
       8 -> 16         0.11448
      10 -> 14         0.43086
      11 -> 15         0.10594
      11 -> 17        -0.19144
      11 -> 18        -0.12176
      12 -> 15        -0.16732
      12 -> 16         0.30301
      12 -> 18         0.23275

 Excited State  11:      Singlet-A      9.3173 eV  133.07 nm  f=0.1189  <S**2>=0.000
       9 -> 15         0.14452
      10 -> 14        -0.18925
      11 -> 15         0.25115
      11 -> 17        -0.15972
      12 -> 15         0.49009
      12 -> 17        -0.21314
      12 -> 18         0.12450

 Excited State  12:      Singlet-A      9.4847 eV  130.72 nm  f=0.0076  <S**2>=0.000
      13 -> 18        -0.29745
      13 -> 19         0.12811
      13 -> 20         0.15207
      13 -> 21         0.59281

 Excited State  13:      Singlet-A      9.6942 eV  127.90 nm  f=0.1558  <S**2>=0.000
       9 -> 16         0.10738
      11 -> 16        -0.44039
      11 -> 17         0.15324
      11 -> 19         0.10276
      12 -> 16         0.45030
      12 -> 18        -0.13844

 Excited State  14:      Singlet-A      9.7468 eV  127.20 nm  f=0.0844  <S**2>=0.000
      10 -> 15        -0.10654
      13 -> 20         0.67166
      13 -> 21        -0.14429

 Excited State  15:      Singlet-A      9.9784 eV  124.25 nm  f=0.1586  <S**2>=0.000
       8 -> 16         0.17514
       9 -> 16        -0.13373
      10 -> 14        -0.20204
      11 -> 15        -0.11380
      11 -> 16         0.24574
      11 -> 18        -0.17954
      11 -> 19        -0.22972
      12 -> 16         0.26314
      12 -> 17         0.29628
      12 -> 18        -0.14709
      12 -> 20         0.12205

 The electronic state is 1-A.
 Alpha  occ. eigenvalues --   -1.94949  -1.20956  -0.99077  -0.81718  -0.79698
 Alpha  occ. eigenvalues --   -0.69292  -0.66739  -0.53784  -0.49867  -0.43110
 Alpha  occ. eigenvalues --   -0.41147  -0.38150  -0.27800
 Alpha virt. eigenvalues --    0.13185   0.18477   0.19882   0.25741   0.27875
 Alpha virt. eigenvalues --    0.30062   0.31842   0.33684   0.35872   0.44287
 Alpha virt. eigenvalues --    0.49817

 Mulliken charges:
               1
     1  C   -0.127780
     2  C   -1.916457
     3  O    3.146840
     4  C   -1.934218
     5  C   -0.106086
     6  H    0.162215
     7  H    0.304407
     8  H    0.309782
     9  H    0.161296
 Sum of Mulliken charges =   0.00000

 Dipole moment (field-independent basis, Debye):
    X=             -1.1687    Y=             -9.9559    Z=              0.0884  Tot=             10.0246
 N-N= 1.041244188739D+02 E-N=-1.696103684833D+02  KE=-1.564957432830D+01
 Orbital energies and kinetic energies (alpha):
                                 1                 2
   1         O                -1.949489         -1.420461
   2         O                -1.209565         -1.064200
   3         O                -0.990772         -0.906096
   4         O                -0.817179         -0.637948
   5         O                -0.796976         -0.682527
   6         O                -0.692925         -0.571321
   7         O                -0.667392         -0.574922

 Normal termination of Gaussian 09 at Tue Dec 15 17:09:58 2015.
