 Gaussian 09, Revision D.01,
 Gaussian 09:  ES64L-G09RevD.01 24-Apr-2013

 ------------------------------------------------------------
 #P AM1(Input,print) CIS(Singlets,NStates=15) pop(full) force
 ------------------------------------------------------------

 -----------------
 AM1-Reparam Input
 -----------------
 Symbolic Z-matrix:
 Charge =  0 Multiplicity = 1

                         Standard orientation:
 ---------------------------------------------------------------------
 Center     Atomic      Atomic             Coordinates (Angstroms)
 Number     Number       Type             X           Y           Z
 ---------------------------------------------------------------------
      1          6           0        0.070270    1.220215    0.033094
      2          6           0        1.095662    0.248151    0.007007
      3          8           0        0.629743   -0.973439   -0.014514
      4          6           0       -0.702132   -0.852046    0.007143
      5          6           0       -1.140103    0.409482   -0.025611
      6          1           0       -2.147956    0.807186   -0.000010
      7          1           0       -1.313116   -1.781554    0.064889
      8          1           0        2.230622    0.359411   -0.013713
      9          1           0        0.250327    2.247660   -0.064854
 ---------------------------------------------------------------------

 SCF Done:  E(RAM1) =   2.81158630141     A.U. after   13 cycles

 Excitation energies and oscillator strengths:

 Excited State   1:      Singlet-A      5.3004 eV  233.91 nm  f=0.3485  <S**2>=0.000
      13 -> 14         0.69567
 This state for optimization and/or second-order correction.
 Total Energy, E(CIS) =   3.00637364595
 Copying the excited state density for this state as the 1-particle RhoCI density.

 Excited State   2:      Singlet-A      6.3372 eV  195.65 nm  f=0.0028  <S**2>=0.000
      11 -> 15        -0.11309
      13 -> 15         0.64387
      13 -> 17         0.23580

 Excited State   3:      Singlet-A      6.4773 eV  191.41 nm  f=0.0026  <S**2>=0.000
      11 -> 16         0.11725
      13 -> 16         0.65760
      13 -> 18         0.20211

 Excited State   4:      Singlet-A      6.7324 eV  184.16 nm  f=0.0007  <S**2>=0.000
       9 -> 14        -0.12855
      12 -> 14         0.69092

 Excited State   5:      Singlet-A      7.7025 eV  160.97 nm  f=0.0075  <S**2>=0.000
      10 -> 14         0.24275
      11 -> 15         0.12188
      13 -> 15        -0.20017
      13 -> 17         0.45233
      13 -> 18        -0.28785
      13 -> 20        -0.11995
      13 -> 21        -0.26606

 Excited State   6:      Singlet-A      7.8239 eV  158.47 nm  f=0.0083  <S**2>=0.000
      10 -> 14         0.57388
      13 -> 16        -0.10132
      13 -> 18         0.29064
      13 -> 21         0.23395

 Excited State   7:      Singlet-A      7.9416 eV  156.12 nm  f=0.0110  <S**2>=0.000
      10 -> 14        -0.30441
      13 -> 15        -0.10609
      13 -> 16        -0.10464
      13 -> 17         0.47061
      13 -> 18         0.29116
      13 -> 21         0.22465

 Excited State   8:      Singlet-A      8.4607 eV  146.54 nm  f=0.1017  <S**2>=0.000
      11 -> 14         0.67633

 Excited State   9:      Singlet-A      8.5785 eV  144.53 nm  f=0.0008  <S**2>=0.000
      13 -> 16         0.10234
      13 -> 18        -0.32990
      13 -> 19         0.50010
      13 -> 21         0.33558

 Excited State  10:      Singlet-A      9.0354 eV  137.22 nm  f=0.0050  <S**2>=0.000
      13 -> 18         0.28159
      13 -> 19         0.45635
      13 -> 20        -0.26137
      13 -> 21        -0.35865

 Excited State  11:      Singlet-A      9.2631 eV  133.85 nm  f=0.1162  <S**2>=0.000
       8 -> 15        -0.15624
       8 -> 16        -0.10816
       9 -> 18        -0.10663
      10 -> 17        -0.17487
      12 -> 15        -0.29053
      12 -> 16         0.43467
      12 -> 18         0.19791
      12 -> 21         0.11440
      13 -> 20        -0.15791

 Excited State  12:      Singlet-A      9.4206 eV  131.61 nm  f=0.0837  <S**2>=0.000
      11 -> 15         0.22992
      12 -> 15        -0.10205
      12 -> 16         0.14032
      13 -> 19         0.11001
      13 -> 20         0.57770
      13 -> 21        -0.20876

 Excited State  13:      Singlet-A      9.5113 eV  130.35 nm  f=0.0090  <S**2>=0.000
       7 -> 15         0.10640
      11 -> 15         0.59441
      11 -> 17         0.11482
      13 -> 15         0.14385
      13 -> 20        -0.18469
      13 -> 21         0.14797

 Excited State  14:      Singlet-A      9.5621 eV  129.66 nm  f=0.0536  <S**2>=0.000
       9 -> 15         0.11807
      10 -> 15        -0.22118
      11 -> 14         0.10867
      12 -> 15         0.52184
      12 -> 16         0.28196
      12 -> 17         0.14784

 Excited State  15:      Singlet-A      9.6618 eV  128.32 nm  f=0.0031  <S**2>=0.000
       9 -> 14         0.66596
      12 -> 14         0.12576

 The electronic state is 1-A.
 Alpha  occ. eigenvalues --   -1.72950  -1.11132  -0.91131  -0.79609  -0.73470
 Alpha  occ. eigenvalues --   -0.66054  -0.63852  -0.52621  -0.48356  -0.43995
 Alpha  occ. eigenvalues --   -0.42566  -0.40167  -0.28485
 Alpha virt. eigenvalues --    0.11309   0.17020   0.17916   0.24727   0.27102
 Alpha virt. eigenvalues --    0.28434   0.30091   0.30596   0.40128   0.49229
 Alpha virt. eigenvalues --    0.52893

 Mulliken charges:
               1
     1  C   -0.157654
     2  C   -1.975549
     3  O    3.199275
     4  C   -1.949099
     5  C   -0.086158
     6  H    0.170882
     7  H    0.312051
     8  H    0.309785
     9  H    0.176466
 Sum of Mulliken charges =   0.00000

 Dipole moment (field-independent basis, Debye):
    X=              5.3232    Y=             -8.7124    Z=             -0.2934  Tot=             10.2141
 N-N= 1.040038336601D+02 E-N=-1.693344476242D+02  KE=-1.476230156410D+01
 Orbital energies and kinetic energies (alpha):
                                 1                 2
   1         O                -1.729502         -1.238850
   2         O                -1.111317         -0.990930
   3         O                -0.911305         -0.832703
   4         O                -0.796085         -0.599107
   5         O                -0.734698         -0.669680
   6         O                -0.660535         -0.571788
   7         O                -0.638524         -0.521328

 Normal termination of Gaussian 09 at Tue Dec 15 17:06:05 2015.
