 Gaussian 09, Revision D.01,
 Gaussian 09:  ES64L-G09RevD.01 24-Apr-2013

 ------------------------------------------------------------
 #P AM1(Input,print) CIS(Singlets,NStates=15) pop(full) force
 ------------------------------------------------------------

 -----------------
 AM1-Reparam Input
 -----------------
 Symbolic Z-matrix:
 Charge =  0 Multiplicity = 1

                         Standard orientation:
 ---------------------------------------------------------------------
 Center     Atomic      Atomic             Coordinates (Angstroms)
 Number     Number       Type             X           Y           Z
 ---------------------------------------------------------------------
      1          6           0       -0.539353    1.061019   -0.012649
      2          6           0       -1.170045   -0.182549    0.028961
      3          8           0       -0.201308   -1.090727   -0.017120
      4          6           0        1.014732   -0.522020   -0.001889
      5          6           0        0.911592    0.780923   -0.009582
      6          1           0        1.622497    1.557458    0.076031
      7          1           0        1.845513   -1.197540    0.044122
      8          1           0       -2.155868   -0.461706    0.015911
      9          1           0       -1.003236    2.003364   -0.028147
 ---------------------------------------------------------------------

 SCF Done:  E(RAM1) =  0.306305129968E-01 A.U. after   14 cycles

 Excitation energies and oscillator strengths:

 Excited State   1:      Singlet-A      4.6269 eV  267.96 nm  f=0.0724  <S**2>=0.000
      12 -> 15         0.25462
      13 -> 14         0.64819
 This state for optimization and/or second-order correction.
 Total Energy, E(CIS) =  0.200667335100
 Copying the excited state density for this state as the 1-particle RhoCI density.

 Excited State   2:      Singlet-A      4.9368 eV  251.14 nm  f=0.0026  <S**2>=0.000
      12 -> 14         0.10353
      13 -> 15        -0.22633
      13 -> 16         0.64039

 Excited State   3:      Singlet-A      5.1336 eV  241.52 nm  f=0.0050  <S**2>=0.000
      12 -> 14        -0.40702
      13 -> 15         0.51763
      13 -> 16         0.24284

 Excited State   4:      Singlet-A      5.7726 eV  214.78 nm  f=0.0051  <S**2>=0.000
       7 -> 16        -0.15517
      12 -> 15        -0.13156
      12 -> 16         0.63843
      12 -> 22        -0.12364

 Excited State   5:      Singlet-A      5.8278 eV  212.74 nm  f=0.0008  <S**2>=0.000
      12 -> 16        -0.12839
      12 -> 18         0.16108
      12 -> 22         0.10194
      13 -> 18         0.51387
      13 -> 19         0.14852
      13 -> 21         0.21020
      13 -> 22         0.20084
      13 -> 23         0.17330

 Excited State   6:      Singlet-A      6.1251 eV  202.42 nm  f=0.2459  <S**2>=0.000
      12 -> 14         0.48272
      12 -> 15         0.29568
      13 -> 14        -0.10623
      13 -> 15         0.34488

 Excited State   7:      Singlet-A      6.3375 eV  195.63 nm  f=0.2687  <S**2>=0.000
      10 -> 16         0.11124
      12 -> 14        -0.21871
      12 -> 15         0.55349
      12 -> 16         0.12537
      13 -> 14        -0.21105
      13 -> 15        -0.19865

 Excited State   8:      Singlet-A      6.4233 eV  193.02 nm  f=0.0009  <S**2>=0.000
      12 -> 18         0.17727
      12 -> 19        -0.32635
      12 -> 22        -0.10694
      12 -> 23         0.19874
      13 -> 17        -0.15137
      13 -> 18        -0.12791
      13 -> 19         0.35921
      13 -> 21         0.12612
      13 -> 22         0.17296
      13 -> 23        -0.21461

 Excited State   9:      Singlet-A      6.4761 eV  191.45 nm  f=0.0042  <S**2>=0.000
      12 -> 17         0.12452
      12 -> 21        -0.11121
      13 -> 17         0.57704
      13 -> 18        -0.15317
      13 -> 19         0.25044
      13 -> 21        -0.10324

 Excited State  10:      Singlet-A      6.8838 eV  180.11 nm  f=0.0006  <S**2>=0.000
       9 -> 15        -0.11088
      10 -> 14         0.19839
      11 -> 14         0.29515
      12 -> 17         0.48138
      12 -> 18        -0.13414
      12 -> 19         0.11674
      12 -> 20         0.17366
      13 -> 17        -0.15442

 Excited State  11:      Singlet-A      6.9217 eV  179.12 nm  f=0.0033  <S**2>=0.000
       9 -> 15        -0.12786
      10 -> 14         0.39824
      11 -> 14         0.36344
      11 -> 15         0.10942
      12 -> 17        -0.31383
      12 -> 20        -0.10693
      13 -> 17         0.13459

 Excited State  12:      Singlet-A      7.4260 eV  166.96 nm  f=0.0017  <S**2>=0.000
       9 -> 14        -0.12379
      10 -> 15        -0.23142
      11 -> 15         0.37535
      12 -> 18         0.19807
      12 -> 19        -0.19919
      12 -> 20         0.14214
      13 -> 19        -0.28593
      13 -> 20         0.21131

 Excited State  13:      Singlet-A      7.5525 eV  164.16 nm  f=0.0002  <S**2>=0.000
       9 -> 14        -0.26403
       9 -> 15         0.12081
      10 -> 14        -0.11610
      11 -> 15         0.39586
      12 -> 19         0.19426
      13 -> 19         0.26905
      13 -> 20        -0.24845

 Excited State  14:      Singlet-A      7.6699 eV  161.65 nm  f=0.0031  <S**2>=0.000
      10 -> 14         0.44813
      11 -> 14        -0.42339
      13 -> 17        -0.11686
      13 -> 20         0.12527
      13 -> 22         0.16466

 Excited State  15:      Singlet-A      7.6990 eV  161.04 nm  f=0.0040  <S**2>=0.000
      10 -> 14        -0.14142
      11 -> 15        -0.10549
      12 -> 19         0.16388
      12 -> 22         0.15219
      13 -> 18        -0.27908
      13 -> 20         0.11894
      13 -> 22         0.46095
      13 -> 23         0.20037

 The electronic state is 1-A.
 Alpha  occ. eigenvalues --   -1.58962  -1.22982  -1.12106  -0.83665  -0.81318
 Alpha  occ. eigenvalues --   -0.69456  -0.61502  -0.58160  -0.51740  -0.49544
 Alpha  occ. eigenvalues --   -0.49017  -0.38960  -0.35027
 Alpha virt. eigenvalues --    0.03556   0.06113   0.09290   0.13964   0.15140
 Alpha virt. eigenvalues --    0.16213   0.18211   0.18504   0.19519   0.20775
 Alpha virt. eigenvalues --    0.23216

 Mulliken charges:
               1
     1  C   -0.237289
     2  C   -0.086887
     3  O   -0.082928
     4  C   -0.079128
     5  C   -0.204630
     6  H    0.159378
     7  H    0.186541
     8  H    0.190943
     9  H    0.154000
 Sum of Mulliken charges =   0.00000

 Dipole moment (field-independent basis, Debye):
    X=              0.0455    Y=              0.1980    Z=              0.1092  Tot=              0.2307
 N-N= 1.040117028662D+02 E-N=-1.718754295933D+02  KE=-1.663795046086D+01
 Orbital energies and kinetic energies (alpha):
                                 1                 2
   1         O                -1.589624         -1.327474
   2         O                -1.229819         -1.047478
   3         O                -1.121057         -0.975496
   4         O                -0.836647         -0.712207
   5         O                -0.813182         -0.728216
   6         O                -0.694557         -0.607024
   7         O                -0.615022         -0.495247

 Normal termination of Gaussian 09 at Fri Dec 11 13:18:13 2015.
