 Gaussian 09, Revision D.01,
 Gaussian 09:  ES64L-G09RevD.01 24-Apr-2013

 -------------------------------------------------------
 #P B3LYP/3-21G CIS(Singlets,NStates=15) pop(full) force
 -------------------------------------------------------

 --------
 FuranDFT
 --------
 Symbolic Z-matrix:
 Charge =  0 Multiplicity = 1

                         Standard orientation:
 ---------------------------------------------------------------------
 Center     Atomic      Atomic             Coordinates (Angstroms)
 Number     Number       Type             X           Y           Z
 ---------------------------------------------------------------------
      1          6           0       -0.649419    0.961871   -0.002631
      2          6           0       -1.095568   -0.246318    0.001723
      3          8           0       -0.104229   -1.154401    0.000617
      4          6           0        1.085947   -0.418762   -0.000511
      5          6           0        0.768999    0.916622    0.000003
      6          1           0        1.440928    1.691179    0.031100
      7          1           0        2.021488   -0.928274   -0.019471
      8          1           0       -2.054341   -0.701881    0.012815
      9          1           0       -1.233998    1.893702   -0.020884
 ---------------------------------------------------------------------

 SCF Done:  E(RB3LYP) =  -228.740580763     A.U. after   14 cycles

 Excitation energies and oscillator strengths:

 Excited State   1:      Singlet-A      7.3407 eV  168.90 nm  f=0.1530  <S**2>=0.000
      17 -> 19         0.31911
      18 -> 19         0.57207
      18 -> 20         0.21011
 This state for optimization and/or second-order correction.
 Total Energy, E(CIS) =  -228.470815696
 Copying the excited state density for this state as the 1-particle RhoCI density.

 Excited State   2:      Singlet-A      7.5744 eV  163.69 nm  f=0.0711  <S**2>=0.000
      17 -> 19         0.42872
      18 -> 19        -0.36989
      18 -> 20         0.40316

 Excited State   3:      Singlet-A      8.7814 eV  141.19 nm  f=0.0013  <S**2>=0.000
      18 -> 21         0.68650
      18 -> 22        -0.12680

 Excited State   4:      Singlet-A      8.8855 eV  139.54 nm  f=0.0044  <S**2>=0.000
      16 -> 19         0.69942

 Excited State   5:      Singlet-A      9.4055 eV  131.82 nm  f=0.0025  <S**2>=0.000
      18 -> 21         0.12467
      18 -> 22         0.68181

 Excited State   6:      Singlet-A      9.6756 eV  128.14 nm  f=0.2443  <S**2>=0.000
      17 -> 19         0.26956
      17 -> 20         0.51243
      17 -> 21        -0.12499
      18 -> 20        -0.31624

 Excited State   7:      Singlet-A      9.8279 eV  126.15 nm  f=0.0106  <S**2>=0.000
      15 -> 19        -0.34499
      17 -> 21         0.24932
      18 -> 23         0.53338

 Excited State   8:      Singlet-A      9.9230 eV  124.95 nm  f=0.0086  <S**2>=0.000
      15 -> 19         0.55033
      17 -> 21         0.38771
      18 -> 23         0.15278

 Excited State   9:      Singlet-A     10.0554 eV  123.30 nm  f=0.0535  <S**2>=0.000
      15 -> 19        -0.24443
      17 -> 19         0.12098
      17 -> 20        -0.10777
      17 -> 21         0.46420
      18 -> 20        -0.14895
      18 -> 23        -0.38429

 Excited State  10:      Singlet-A     10.1772 eV  121.83 nm  f=0.3871  <S**2>=0.000
      17 -> 19        -0.27663
      17 -> 20         0.42999
      17 -> 21         0.19871
      18 -> 20         0.34993
      18 -> 23        -0.11018

 Excited State  11:      Singlet-A     10.5115 eV  117.95 nm  f=0.0006  <S**2>=0.000
      17 -> 22         0.68135

 Excited State  12:      Singlet-A     10.6678 eV  116.22 nm  f=0.0029  <S**2>=0.000
      14 -> 19         0.55967
      16 -> 20        -0.33653
      18 -> 24        -0.22330

 Excited State  13:      Singlet-A     10.7357 eV  115.49 nm  f=0.0012  <S**2>=0.000
      14 -> 19         0.19463
      16 -> 20        -0.10280
      18 -> 24         0.65483

 Excited State  14:      Singlet-A     11.0164 eV  112.54 nm  f=0.0000  <S**2>=0.000
      12 -> 19         0.12306
      13 -> 19        -0.17213
      14 -> 19         0.32738
      16 -> 20         0.57870

 Excited State  15:      Singlet-A     11.1608 eV  111.09 nm  f=0.0067  <S**2>=0.000
      13 -> 19         0.11307
      18 -> 25         0.66528

 The electronic state is 1-A.
 Alpha  occ. eigenvalues --  -19.10816 -10.17463 -10.16558 -10.12083 -10.11683
 Alpha  occ. eigenvalues --   -1.12323  -0.81314  -0.75129  -0.60508  -0.57522
 Alpha  occ. eigenvalues --   -0.54515  -0.44806  -0.44533  -0.42803  -0.39657
 Alpha  occ. eigenvalues --   -0.36257  -0.27985  -0.23593
 Alpha virt. eigenvalues --    0.02294   0.09155   0.13441   0.15146   0.17746
 Alpha virt. eigenvalues --    0.19767   0.21936   0.23355   0.36102   0.43607
 Alpha virt. eigenvalues --    0.48206   0.67767   0.69823   0.71114   0.76208

 Mulliken charges:
               1
     1  C   -0.250124
     2  C    0.115027
     3  O   -0.486143
     4  C    0.064753
     5  C   -0.254774
     6  H    0.190209
     7  H    0.217417
     8  H    0.218624
     9  H    0.185012
 Sum of Mulliken charges =   0.00000

 Dipole moment (field-independent basis, Debye):
    X=              0.1314    Y=              0.7793    Z=              0.0030  Tot=              0.7903
 Quadrupole moment (field-independent basis, Debye-Ang):
   XX=            -23.5797   YY=            -28.1286   ZZ=            -31.5720
   XY=             -0.2535   XZ=             -0.0040   YZ=              0.0325

 Normal termination of Gaussian 09 at Tue Dec 15 16:13:46 2015.
