 Gaussian 09, Revision D.01,
 Gaussian 09:  ES64L-G09RevD.01 24-Apr-2013

 ------------------------------------------------------------
 #P AM1(Input,print) CIS(Singlets,NStates=15) pop(full) force
 ------------------------------------------------------------

 -----------------
 AM1-Reparam Input
 -----------------
 Symbolic Z-matrix:
 Charge =  0 Multiplicity = 1

                         Standard orientation:
 ---------------------------------------------------------------------
 Center     Atomic      Atomic             Coordinates (Angstroms)
 Number     Number       Type             X           Y           Z
 ---------------------------------------------------------------------
      1          6           0       -0.376584    1.124644   -0.024671
      2          6           0       -1.163767    0.018786   -0.011134
      3          8           0       -0.392425   -1.095488    0.009137
      4          6           0        0.940801   -0.648277   -0.018496
      5          6           0        1.003911    0.667765    0.015701
      6          1           0        1.949612    1.267863    0.039996
      7          1           0        1.649509   -1.489261    0.007927
      8          1           0       -2.235078   -0.102056    0.071992
      9          1           0       -0.650812    2.109852    0.038586
 ---------------------------------------------------------------------

 SCF Done:  E(RAM1) =   2.06034357173     A.U. after   13 cycles

 Excitation energies and oscillator strengths:

 Excited State   1:      Singlet-A      5.2067 eV  238.12 nm  f=0.3505  <S**2>=0.000
      13 -> 14         0.69602
 This state for optimization and/or second-order correction.
 Total Energy, E(CIS) =   2.25168575919
 Copying the excited state density for this state as the 1-particle RhoCI density.

 Excited State   2:      Singlet-A      6.6200 eV  187.29 nm  f=0.0026  <S**2>=0.000
      12 -> 14         0.22218
      13 -> 15         0.17902
      13 -> 16         0.56981
      13 -> 18         0.26349

 Excited State   3:      Singlet-A      6.6740 eV  185.77 nm  f=0.0052  <S**2>=0.000
      12 -> 14         0.47687
      13 -> 15        -0.47513
      13 -> 17        -0.17588

 Excited State   4:      Singlet-A      6.6980 eV  185.11 nm  f=0.0029  <S**2>=0.000
      12 -> 14         0.46061
      13 -> 15         0.41124
      13 -> 16        -0.25831
      13 -> 17         0.12800
      13 -> 18        -0.15126

 Excited State   5:      Singlet-A      7.7255 eV  160.49 nm  f=0.0087  <S**2>=0.000
      10 -> 14         0.15924
      11 -> 14         0.63961
      13 -> 18        -0.14710
      13 -> 19         0.10049
      13 -> 20         0.11545

 Excited State   6:      Singlet-A      7.7406 eV  160.17 nm  f=0.0001  <S**2>=0.000
      11 -> 14         0.22647
      13 -> 16        -0.20518
      13 -> 18         0.41228
      13 -> 19        -0.37185
      13 -> 20        -0.24232

 Excited State   7:      Singlet-A      8.4204 eV  147.24 nm  f=0.0220  <S**2>=0.000
      10 -> 16         0.12344
      13 -> 15        -0.19694
      13 -> 17         0.64313
      13 -> 19        -0.11405

 Excited State   8:      Singlet-A      8.7860 eV  141.12 nm  f=0.0002  <S**2>=0.000
      13 -> 16        -0.18050
      13 -> 18         0.41609
      13 -> 19         0.50664
      13 -> 20         0.13116

 Excited State   9:      Singlet-A      8.8015 eV  140.87 nm  f=0.1036  <S**2>=0.000
      10 -> 14         0.66151
      11 -> 14        -0.16252

 Excited State  10:      Singlet-A      9.4353 eV  131.40 nm  f=0.0420  <S**2>=0.000
      11 -> 15        -0.15221
      11 -> 17        -0.19158
      12 -> 16         0.38092
      12 -> 18         0.33439
      12 -> 19        -0.20726
      13 -> 20        -0.22881

 Excited State  11:      Singlet-A      9.4750 eV  130.85 nm  f=0.0220  <S**2>=0.000
      12 -> 16         0.14649
      12 -> 18         0.13036
      13 -> 18         0.14935
      13 -> 19        -0.25102
      13 -> 20         0.54771
      13 -> 21         0.20765

 Excited State  12:      Singlet-A      9.8490 eV  125.88 nm  f=0.0590  <S**2>=0.000
      13 -> 20        -0.20931
      13 -> 21         0.65780

 Excited State  13:      Singlet-A      9.9855 eV  124.16 nm  f=0.0499  <S**2>=0.000
      11 -> 15         0.11466
      11 -> 16         0.22646
      11 -> 18         0.11757
      12 -> 15         0.49667
      12 -> 16         0.27371
      12 -> 17         0.22131
      12 -> 19         0.11169

 Excited State  14:      Singlet-A     10.1183 eV  122.53 nm  f=0.2112  <S**2>=0.000
       9 -> 16        -0.11379
      11 -> 15         0.34318
      11 -> 17         0.19247
      12 -> 15        -0.31796
      12 -> 16         0.35965
      12 -> 19         0.22460

 Excited State  15:      Singlet-A     10.4149 eV  119.05 nm  f=0.0054  <S**2>=0.000
       7 -> 16         0.12500
      10 -> 15         0.53949
      10 -> 16         0.21087
      10 -> 17         0.14240
      11 -> 15        -0.14397
      11 -> 16        -0.18510
      13 -> 16         0.12552

 The electronic state is 1-A.
 Alpha  occ. eigenvalues --   -1.93459  -1.19563  -0.95502  -0.81925  -0.78647
 Alpha  occ. eigenvalues --   -0.68641  -0.64369  -0.54774  -0.53504  -0.44245
 Alpha  occ. eigenvalues --   -0.43525  -0.40454  -0.28262
 Alpha virt. eigenvalues --    0.11248   0.19426   0.19601   0.26129   0.27545
 Alpha virt. eigenvalues --    0.29190   0.30471   0.32320   0.34487   0.43555
 Alpha virt. eigenvalues --    0.47734

 Mulliken charges:
               1
     1  C   -0.265032
     2  C   -2.004849
     3  O    3.181929
     4  C   -1.968208
     5  C   -0.176853
     6  H    0.254352
     7  H    0.351291
     8  H    0.374245
     9  H    0.253126
 Sum of Mulliken charges =   0.00000

 Dipole moment (field-independent basis, Debye):
    X=             -3.3185    Y=            -10.2069    Z=              0.6686  Tot=             10.7536
 N-N= 1.041562876400D+02 E-N=-1.693832432226D+02  KE=-1.547126015502D+01
 Orbital energies and kinetic energies (alpha):
                                 1                 2
   1         O                -1.934593         -1.372354
   2         O                -1.195626         -1.066697
   3         O                -0.955024         -0.877498
   4         O                -0.819248         -0.598125
   5         O                -0.786469         -0.675790
   6         O                -0.686405         -0.568669
   7         O                -0.643692         -0.519354

 Normal termination of Gaussian 09 at Tue Dec 15 17:07:22 2015.
