 Gaussian 09, Revision D.01,
 Gaussian 09:  ES64L-G09RevD.01 24-Apr-2013

 ------------------------------------------------------------
 #P AM1(Input,print) CIS(Singlets,NStates=15) pop(full) force
 ------------------------------------------------------------

 -----------------
 AM1-Reparam Input
 -----------------
 Symbolic Z-matrix:
 Charge =  0 Multiplicity = 1

                         Standard orientation:
 ---------------------------------------------------------------------
 Center     Atomic      Atomic             Coordinates (Angstroms)
 Number     Number       Type             X           Y           Z
 ---------------------------------------------------------------------
      1          6           0        0.675878    0.981242   -0.020475
      2          6           0        1.064960   -0.289038    0.002296
      3          8           0        0.104754   -1.110560   -0.010340
      4          6           0       -1.089262   -0.452070    0.017828
      5          6           0       -0.756986    0.920529   -0.005822
      6          1           0       -1.513018    1.690538    0.009793
      7          1           0       -1.987048   -0.944526   -0.002989
      8          1           0        2.122285   -0.706192    0.045864
      9          1           0        1.172203    1.880684    0.067091
 ---------------------------------------------------------------------

 SCF Done:  E(RAM1) =   1.09633504734     A.U. after   14 cycles

 Excitation energies and oscillator strengths:

 Excited State   1:      Singlet-A      5.5905 eV  221.78 nm  f=0.2235  <S**2>=0.000
      12 -> 17         0.12211
      13 -> 14         0.68187
 This state for optimization and/or second-order correction.
 Total Energy, E(CIS) =   1.30178191629
 Copying the excited state density for this state as the 1-particle RhoCI density.

 Excited State   2:      Singlet-A      6.4031 eV  193.63 nm  f=0.0059  <S**2>=0.000
      13 -> 15         0.66691
      13 -> 16         0.14069
      13 -> 19         0.11112

 Excited State   3:      Singlet-A      7.0889 eV  174.90 nm  f=0.0010  <S**2>=0.000
      13 -> 15        -0.10847
      13 -> 16         0.64646
      13 -> 18         0.17077
      13 -> 21        -0.12715

 Excited State   4:      Singlet-A      7.2493 eV  171.03 nm  f=0.0196  <S**2>=0.000
      11 -> 14        -0.23107
      12 -> 14         0.54861
      13 -> 17        -0.35489

 Excited State   5:      Singlet-A      7.2863 eV  170.16 nm  f=0.0022  <S**2>=0.000
       9 -> 14         0.21202
      10 -> 14        -0.14218
      11 -> 14         0.60744
      12 -> 14         0.20785
      13 -> 17        -0.12363

 Excited State   6:      Singlet-A      7.8191 eV  158.57 nm  f=0.0028  <S**2>=0.000
      10 -> 14         0.67709
      11 -> 14         0.12038

 Excited State   7:      Singlet-A      8.1292 eV  152.52 nm  f=0.0006  <S**2>=0.000
      12 -> 15         0.36008
      12 -> 16         0.16389
      13 -> 18         0.52231
      13 -> 19         0.15139
      13 -> 22         0.12717

 Excited State   8:      Singlet-A      8.2936 eV  149.49 nm  f=0.2084  <S**2>=0.000
      11 -> 15         0.10280
      12 -> 14         0.35647
      12 -> 15         0.14435
      13 -> 17         0.53419
      13 -> 18        -0.10424

 Excited State   9:      Singlet-A      8.4054 eV  147.50 nm  f=0.0280  <S**2>=0.000
      12 -> 14        -0.11268
      12 -> 15         0.49512
      12 -> 16         0.16322
      13 -> 16         0.15009
      13 -> 17        -0.16957
      13 -> 18        -0.31459
      13 -> 19        -0.13026

 Excited State  10:      Singlet-A      8.7197 eV  142.19 nm  f=0.0259  <S**2>=0.000
       9 -> 15        -0.24018
       9 -> 17         0.12130
      11 -> 15         0.43337
      11 -> 16         0.19390
      11 -> 17        -0.33103
      11 -> 20         0.10202
      12 -> 17        -0.13460

 Excited State  11:      Singlet-A      8.8904 eV  139.46 nm  f=0.0216  <S**2>=0.000
       9 -> 14        -0.18491
       9 -> 15        -0.14850
       9 -> 17        -0.18452
      11 -> 15         0.20862
      11 -> 16         0.10105
      11 -> 17         0.51476
      12 -> 16        -0.15422
      13 -> 19        -0.12165

 Excited State  12:      Singlet-A      8.9936 eV  137.86 nm  f=0.0072  <S**2>=0.000
       9 -> 14        -0.25902
      11 -> 15         0.10029
      12 -> 15        -0.18543
      12 -> 16         0.46931
      13 -> 18        -0.11683
      13 -> 19         0.27243
      13 -> 20        -0.17597

 Excited State  13:      Singlet-A      9.0394 eV  137.16 nm  f=0.0047  <S**2>=0.000
       9 -> 14         0.42649
      11 -> 14        -0.16896
      11 -> 15         0.10197
      11 -> 17         0.13726
      12 -> 16         0.29402
      13 -> 20         0.31006
      13 -> 21        -0.15752

 Excited State  14:      Singlet-A      9.0486 eV  137.02 nm  f=0.0028  <S**2>=0.000
       9 -> 14        -0.35584
      11 -> 14         0.12691
      11 -> 15        -0.10264
      13 -> 20         0.51710
      13 -> 21        -0.14368

 Excited State  15:      Singlet-A      9.2277 eV  134.36 nm  f=0.0923  <S**2>=0.000
       8 -> 15        -0.11456
       9 -> 14        -0.10879
       9 -> 15         0.23595
       9 -> 16        -0.12507
      10 -> 16         0.22165
      11 -> 15         0.16282
      11 -> 18        -0.18602
      12 -> 17         0.45061
      13 -> 14        -0.11678

 The electronic state is 1-A.
 Alpha  occ. eigenvalues --   -1.87023  -1.19943  -1.00490  -0.88309  -0.80909
 Alpha  occ. eigenvalues --   -0.74614  -0.73655  -0.62124  -0.55339  -0.52757
 Alpha  occ. eigenvalues --   -0.50102  -0.47734  -0.39430
 Alpha virt. eigenvalues --    0.02524   0.07716   0.11543   0.11692   0.17421
 Alpha virt. eigenvalues --    0.19249   0.19988   0.21682   0.26116   0.27208
 Alpha virt. eigenvalues --    0.29711

 Mulliken charges:
               1
     1  C   -0.164909
     2  C   -1.293476
     3  O    2.179917
     4  C   -1.302871
     5  C   -0.082558
     6  H    0.111056
     7  H    0.196275
     8  H    0.243955
     9  H    0.112611
 Sum of Mulliken charges =   0.00000

 Dipole moment (field-independent basis, Debye):
    X=              1.3933    Y=             -6.4742    Z=             -0.0792  Tot=              6.6229
 N-N= 1.050482895939D+02 E-N=-1.721807444856D+02  KE=-1.507456856185D+01
 Orbital energies and kinetic energies (alpha):
                                 1                 2
   1         O                -1.870228         -1.286899
   2         O                -1.199434         -0.970004
   3         O                -1.004903         -0.800394
   4         O                -0.883087         -0.643257
   5         O                -0.809087         -0.673618
   6         O                -0.746138         -0.599667
   7         O                -0.736549         -0.521878

 Normal termination of Gaussian 09 at Tue Dec 15 17:05:47 2015.
