 Gaussian 09, Revision D.01,
 Gaussian 09:  ES64L-G09RevD.01 24-Apr-2013

 ------------------------------------------------------------
 #P AM1(Input,print) CIS(Singlets,NStates=15) pop(full) force
 ------------------------------------------------------------

 -----------------
 AM1-Reparam Input
 -----------------
 Symbolic Z-matrix:
 Charge =  0 Multiplicity = 1

                         Standard orientation:
 ---------------------------------------------------------------------
 Center     Atomic      Atomic             Coordinates (Angstroms)
 Number     Number       Type             X           Y           Z
 ---------------------------------------------------------------------
      1          6           0        0.867254    0.750367   -0.006659
      2          6           0        1.031277   -0.573175    0.003733
      3          8           0       -0.267478   -1.103384   -0.017968
      4          6           0       -1.161435   -0.142458    0.039961
      5          6           0       -0.452088    1.109645   -0.021723
      6          1           0       -0.915346    2.034524    0.000670
      7          1           0       -2.163544   -0.350638   -0.026643
      8          1           0        1.785176   -1.221629    0.023659
      9          1           0        1.723492    1.498536    0.054184
 ---------------------------------------------------------------------

 SCF Done:  E(RAM1) =   2.53254578368     A.U. after   14 cycles

 Excitation energies and oscillator strengths:

 Excited State   1:      Singlet-A      5.6313 eV  220.17 nm  f=0.3207  <S**2>=0.000
      13 -> 14         0.69026
 This state for optimization and/or second-order correction.
 Total Energy, E(CIS) =   2.73949240468
 Copying the excited state density for this state as the 1-particle RhoCI density.

 Excited State   2:      Singlet-A      6.6142 eV  187.45 nm  f=0.0091  <S**2>=0.000
      13 -> 15         0.65965
      13 -> 17        -0.16776

 Excited State   3:      Singlet-A      6.9707 eV  177.86 nm  f=0.0040  <S**2>=0.000
       9 -> 14         0.12463
      12 -> 14         0.68864

 Excited State   4:      Singlet-A      7.3530 eV  168.62 nm  f=0.0015  <S**2>=0.000
      13 -> 16         0.65232
      13 -> 19        -0.18608

 Excited State   5:      Singlet-A      7.8852 eV  157.24 nm  f=0.0040  <S**2>=0.000
       9 -> 14         0.10752
      10 -> 14         0.50623
      11 -> 14        -0.46302

 Excited State   6:      Singlet-A      8.2266 eV  150.71 nm  f=0.0007  <S**2>=0.000
      13 -> 17         0.39569
      13 -> 18         0.44903
      13 -> 19        -0.12006
      13 -> 20         0.11525
      13 -> 21        -0.28606

 Excited State   7:      Singlet-A      8.8100 eV  140.73 nm  f=0.0151  <S**2>=0.000
      10 -> 14        -0.16141
      11 -> 14        -0.21210
      11 -> 16         0.13388
      13 -> 15         0.10499
      13 -> 17         0.46372
      13 -> 18        -0.31600
      13 -> 19         0.14745
      13 -> 20        -0.10420
      13 -> 21         0.11689

 Excited State   8:      Singlet-A      8.8138 eV  140.67 nm  f=0.0452  <S**2>=0.000
      10 -> 14         0.40643
      11 -> 14         0.42539
      11 -> 15        -0.13921
      12 -> 17         0.14218
      13 -> 17         0.22261
      13 -> 18        -0.13954

 Excited State   9:      Singlet-A      9.2904 eV  133.45 nm  f=0.0077  <S**2>=0.000
      10 -> 15         0.11599
      11 -> 15         0.17184
      13 -> 16         0.10444
      13 -> 18         0.31847
      13 -> 19         0.50505
      13 -> 21         0.22971

 Excited State  10:      Singlet-A      9.4189 eV  131.63 nm  f=0.2090  <S**2>=0.000
       9 -> 15         0.10526
       9 -> 16        -0.10960
      10 -> 14         0.15687
      10 -> 15        -0.17457
      10 -> 16        -0.14634
      11 -> 14         0.18303
      11 -> 15         0.12774
      11 -> 16         0.11501
      12 -> 15         0.37410
      12 -> 17        -0.24869
      12 -> 18        -0.16629

 Excited State  11:      Singlet-A      9.7692 eV  126.91 nm  f=0.0214  <S**2>=0.000
       9 -> 14         0.15485
      10 -> 15         0.33074
      11 -> 15        -0.32098
      12 -> 15         0.33505
      12 -> 16         0.12154
      13 -> 18         0.10904
      13 -> 19        -0.12521
      13 -> 21         0.20833

 Excited State  12:      Singlet-A      9.8043 eV  126.46 nm  f=0.0086  <S**2>=0.000
       9 -> 14         0.24508
      10 -> 15        -0.10822
      11 -> 15         0.20749
      12 -> 15        -0.17718
      13 -> 18         0.15799
      13 -> 19        -0.29325
      13 -> 20        -0.13772
      13 -> 21         0.41916

 Excited State  13:      Singlet-A      9.9890 eV  124.12 nm  f=0.0842  <S**2>=0.000
       9 -> 14         0.14112
      10 -> 15         0.13378
      11 -> 15         0.28265
      12 -> 16         0.53638
      12 -> 19        -0.12405
      13 -> 21        -0.13556

 Excited State  14:      Singlet-A     10.0175 eV  123.77 nm  f=0.0423  <S**2>=0.000
       9 -> 14         0.42465
      10 -> 15         0.25594
      11 -> 15         0.16686
      12 -> 16        -0.31181
      13 -> 19         0.11343
      13 -> 21        -0.26013

 Excited State  15:      Singlet-A     10.0443 eV  123.44 nm  f=0.0199  <S**2>=0.000
       9 -> 14         0.35153
      10 -> 15        -0.25755
      11 -> 15        -0.29835
      12 -> 15        -0.19931
      12 -> 16         0.13560
      12 -> 17        -0.13056
      12 -> 18        -0.16263
      13 -> 15        -0.10260
      13 -> 19         0.15653

 The electronic state is 1-A.
 Alpha  occ. eigenvalues --   -1.74887  -1.16930  -0.96924  -0.81158  -0.77817
 Alpha  occ. eigenvalues --   -0.68333  -0.65233  -0.57349  -0.50564  -0.44805
 Alpha  occ. eigenvalues --   -0.44464  -0.41420  -0.31172
 Alpha virt. eigenvalues --    0.10922   0.17348   0.20246   0.23895   0.26416
 Alpha virt. eigenvalues --    0.27780   0.30595   0.31360   0.39823   0.48334
 Alpha virt. eigenvalues --    0.54075

 Mulliken charges:
               1
     1  C   -0.001880
     2  C   -1.916569
     3  O    3.244970
     4  C   -1.994475
     5  C   -0.112329
     6  H    0.130977
     7  H    0.275257
     8  H    0.248330
     9  H    0.125719
 Sum of Mulliken charges =   0.00000

 Dipole moment (field-independent basis, Debye):
    X=             -2.3180    Y=             -9.3789    Z=             -0.5866  Tot=              9.6789
 N-N= 1.041211642861D+02 E-N=-1.690622605145D+02  KE=-1.509386521332D+01
 Orbital energies and kinetic energies (alpha):
                                 1                 2
   1         O                -1.748866         -1.248718
   2         O                -1.169300         -1.011784
   3         O                -0.969242         -0.870401
   4         O                -0.811579         -0.618870
   5         O                -0.778171         -0.697459
   6         O                -0.683330         -0.582520
   7         O                -0.652331         -0.525253

 Normal termination of Gaussian 09 at Tue Dec 15 17:06:27 2015.
