 Gaussian 09, Revision D.01,
 Gaussian 09:  ES64L-G09RevD.01 24-Apr-2013

 ------------------------------------------------------------
 #P AM1(Input,print) CIS(Singlets,NStates=15) pop(full) force
 ------------------------------------------------------------

 -----------------
 AM1-Reparam Input
 -----------------
 Symbolic Z-matrix:
 Charge =  0 Multiplicity = 1

                         Standard orientation:
 ---------------------------------------------------------------------
 Center     Atomic      Atomic             Coordinates (Angstroms)
 Number     Number       Type             X           Y           Z
 ---------------------------------------------------------------------
      1          6           0        1.041420    0.649805   -0.038434
      2          6           0        0.885524   -0.662698    0.043344
      3          8           0       -0.430291   -1.099748   -0.015550
      4          6           0       -1.099306    0.047668   -0.016891
      5          6           0       -0.381449    1.131555    0.027832
      6          1           0       -0.679998    2.150430    0.006740
      7          1           0       -2.171500   -0.081625    0.031763
      8          1           0        1.677080   -1.468754   -0.000150
      9          1           0        1.939605    1.199960   -0.009059
 ---------------------------------------------------------------------

 SCF Done:  E(RAM1) =   2.59571302961     A.U. after   14 cycles

 Excitation energies and oscillator strengths:

 Excited State   1:      Singlet-A      4.9699 eV  249.47 nm  f=0.3458  <S**2>=0.000
      13 -> 14         0.69686
 This state for optimization and/or second-order correction.
 Total Energy, E(CIS) =   2.77835245731
 Copying the excited state density for this state as the 1-particle RhoCI density.

 Excited State   2:      Singlet-A      5.5486 eV  223.45 nm  f=0.0005  <S**2>=0.000
      13 -> 15         0.67693
      13 -> 18         0.13783

 Excited State   3:      Singlet-A      5.8801 eV  210.85 nm  f=0.0009  <S**2>=0.000
      13 -> 16         0.67116
      13 -> 17         0.14743

 Excited State   4:      Singlet-A      6.4925 eV  190.96 nm  f=0.0008  <S**2>=0.000
      12 -> 14         0.70057

 Excited State   5:      Singlet-A      7.3624 eV  168.40 nm  f=0.0002  <S**2>=0.000
      13 -> 16         0.10557
      13 -> 17        -0.24563
      13 -> 18         0.58856
      13 -> 21        -0.25117

 Excited State   6:      Singlet-A      7.8406 eV  158.13 nm  f=0.0150  <S**2>=0.000
      10 -> 14        -0.24585
      13 -> 17         0.59363
      13 -> 18         0.24292

 Excited State   7:      Singlet-A      8.1186 eV  152.72 nm  f=0.0019  <S**2>=0.000
      10 -> 14         0.65478
      13 -> 17         0.22293

 Excited State   8:      Singlet-A      8.4759 eV  146.28 nm  f=0.0004  <S**2>=0.000
      13 -> 19         0.68064
      13 -> 21        -0.11429

 Excited State   9:      Singlet-A      8.7159 eV  142.25 nm  f=0.0615  <S**2>=0.000
       8 -> 15        -0.11295
      11 -> 14         0.60623
      12 -> 15        -0.28424
      12 -> 16        -0.10028

 Excited State  10:      Singlet-A      8.8128 eV  140.69 nm  f=0.2264  <S**2>=0.000
       8 -> 16         0.15835
      10 -> 17         0.10394
      11 -> 14         0.21007
      12 -> 15         0.49892
      12 -> 16        -0.31849
      12 -> 18         0.18474

 Excited State  11:      Singlet-A      9.2389 eV  134.20 nm  f=0.0033  <S**2>=0.000
      13 -> 18         0.24584
      13 -> 19         0.10861
      13 -> 20        -0.18473
      13 -> 21         0.61635

 Excited State  12:      Singlet-A      9.3725 eV  132.29 nm  f=0.0794  <S**2>=0.000
       8 -> 16        -0.10561
      10 -> 15        -0.12722
      11 -> 14         0.24206
      12 -> 15         0.32227
      12 -> 16         0.49666
      12 -> 17         0.10729

 Excited State  13:      Singlet-A      9.5538 eV  129.78 nm  f=0.1065  <S**2>=0.000
      11 -> 15         0.16007
      12 -> 16         0.13093
      13 -> 20         0.63304
      13 -> 21         0.16220

 Excited State  14:      Singlet-A      9.7386 eV  127.31 nm  f=0.0039  <S**2>=0.000
       7 -> 15        -0.14843
      11 -> 15         0.64579
      13 -> 15        -0.10355
      13 -> 20        -0.12614

 Excited State  15:      Singlet-A      9.8022 eV  126.49 nm  f=0.0584  <S**2>=0.000
       9 -> 15         0.22448
      10 -> 15         0.23902
      10 -> 16         0.16169
      10 -> 17         0.21938
      11 -> 16         0.16916
      12 -> 15        -0.10127
      12 -> 16         0.19175
      12 -> 17        -0.21139
      12 -> 18         0.29541
      12 -> 19         0.14714
      12 -> 21        -0.10597
      13 -> 20        -0.12962

 The electronic state is 1-A.
 Alpha  occ. eigenvalues --   -1.74199  -1.15689  -0.95451  -0.81086  -0.75116
 Alpha  occ. eigenvalues --   -0.67317  -0.64598  -0.52558  -0.49119  -0.44112
 Alpha  occ. eigenvalues --   -0.43464  -0.38794  -0.26089
 Alpha virt. eigenvalues --    0.12027   0.16563   0.17773   0.27608   0.28301
 Alpha virt. eigenvalues --    0.30266   0.32881   0.33683   0.39602   0.49652
 Alpha virt. eigenvalues --    0.52685

 Mulliken charges:
               1
     1  C   -0.046360
     2  C   -1.889049
     3  O    3.203252
     4  C   -1.880683
     5  C   -0.112062
     6  H    0.111545
     7  H    0.253597
     8  H    0.253261
     9  H    0.106498
 Sum of Mulliken charges =   0.00000

 Dipole moment (field-independent basis, Debye):
    X=             -4.2136    Y=            -10.7094    Z=             -0.3927  Tot=             11.5152
 N-N= 1.039425424738D+02 E-N=-1.690985952454D+02  KE=-1.504320440691D+01
 Orbital energies and kinetic energies (alpha):
                                 1                 2
   1         O                -1.741989         -1.240322
   2         O                -1.156894         -1.022082
   3         O                -0.954515         -0.882976
   4         O                -0.810862         -0.607162
   5         O                -0.751164         -0.681296
   6         O                -0.673170         -0.550457
   7         O                -0.645983         -0.525117

 Normal termination of Gaussian 09 at Tue Dec 15 17:06:20 2015.
