 Gaussian 09, Revision D.01,
 Gaussian 09:  ES64L-G09RevD.01 24-Apr-2013

 ------------------------------------------------------------
 #P AM1(Input,print) CIS(Singlets,NStates=15) pop(full) force
 ------------------------------------------------------------

 -----------------
 AM1-Reparam Input
 -----------------
 Symbolic Z-matrix:
 Charge =  0 Multiplicity = 1

                         Standard orientation:
 ---------------------------------------------------------------------
 Center     Atomic      Atomic             Coordinates (Angstroms)
 Number     Number       Type             X           Y           Z
 ---------------------------------------------------------------------
      1          6           0       -0.255349    1.154326   -0.018917
      2          6           0       -1.171603    0.043826    0.001751
      3          8           0       -0.444608   -1.028435    0.007647
      4          6           0        0.888982   -0.700744   -0.033743
      5          6           0        0.990899    0.587051    0.036535
      6          1           0        1.995673    1.179372   -0.013098
      7          1           0        1.550679   -1.601472    0.026153
      8          1           0       -2.157597    0.016672    0.021472
      9          1           0       -0.549466    2.126148   -0.009459
 ---------------------------------------------------------------------

 SCF Done:  E(RAM1) =   2.61294206773     A.U. after   14 cycles

 Excitation energies and oscillator strengths:

 Excited State   1:      Singlet-A      5.3252 eV  232.82 nm  f=0.3404  <S**2>=0.000
      13 -> 14         0.69670
 This state for optimization and/or second-order correction.
 Total Energy, E(CIS) =   2.80864067117
 Copying the excited state density for this state as the 1-particle RhoCI density.

 Excited State   2:      Singlet-A      6.4332 eV  192.73 nm  f=0.0027  <S**2>=0.000
      13 -> 15        -0.45790
      13 -> 16         0.50201
      13 -> 19         0.13155

 Excited State   3:      Singlet-A      6.6039 eV  187.74 nm  f=0.0037  <S**2>=0.000
      12 -> 14         0.48738
      13 -> 15        -0.35444
      13 -> 16        -0.33259
      13 -> 18         0.10013

 Excited State   4:      Singlet-A      6.6918 eV  185.28 nm  f=0.0003  <S**2>=0.000
      11 -> 14         0.10284
      12 -> 14         0.49222
      13 -> 15         0.34281
      13 -> 16         0.32609

 Excited State   5:      Singlet-A      7.3951 eV  167.66 nm  f=0.0045  <S**2>=0.000
      10 -> 14        -0.25792
      11 -> 14         0.63761
      12 -> 14        -0.10562

 Excited State   6:      Singlet-A      8.0480 eV  154.06 nm  f=0.0011  <S**2>=0.000
      13 -> 17         0.64762
      13 -> 18        -0.20874
      13 -> 21         0.11782

 Excited State   7:      Singlet-A      8.5630 eV  144.79 nm  f=0.0605  <S**2>=0.000
      10 -> 14         0.61584
      11 -> 14         0.25225
      12 -> 17         0.12883

 Excited State   8:      Singlet-A      9.2676 eV  133.78 nm  f=0.1791  <S**2>=0.000
       9 -> 15        -0.10511
      10 -> 14         0.18870
      10 -> 16         0.10604
      11 -> 15        -0.19828
      11 -> 16        -0.19015
      11 -> 18         0.17513
      12 -> 15        -0.13762
      12 -> 16         0.37545
      12 -> 17        -0.32355
      13 -> 18        -0.10776

 Excited State   9:      Singlet-A      9.3426 eV  132.71 nm  f=0.0163  <S**2>=0.000
      10 -> 15         0.27331
      11 -> 15         0.11256
      13 -> 17         0.20372
      13 -> 18         0.56343

 Excited State  10:      Singlet-A      9.4534 eV  131.15 nm  f=0.2022  <S**2>=0.000
      12 -> 15         0.64542
      12 -> 16         0.16699
      12 -> 18        -0.10667

 Excited State  11:      Singlet-A      9.6316 eV  128.73 nm  f=0.0126  <S**2>=0.000
       7 -> 16         0.10042
      10 -> 16         0.33052
      11 -> 15        -0.15497
      11 -> 16         0.42295
      12 -> 16         0.14290
      13 -> 19         0.33569

 Excited State  12:      Singlet-A      9.7849 eV  126.71 nm  f=0.0821  <S**2>=0.000
      10 -> 15        -0.19451
      10 -> 16         0.41493
      11 -> 15         0.25451
      11 -> 16        -0.33894
      11 -> 19        -0.13992
      12 -> 16        -0.14939
      13 -> 19         0.17714

 Excited State  13:      Singlet-A     10.1891 eV  121.68 nm  f=0.0122  <S**2>=0.000
       8 -> 15        -0.14777
       9 -> 16         0.17948
      11 -> 15         0.14994
      11 -> 17        -0.16081
      12 -> 16         0.38955
      12 -> 17         0.40562
      12 -> 19         0.12395

 Excited State  14:      Singlet-A     10.4402 eV  118.76 nm  f=0.0018  <S**2>=0.000
       9 -> 14        -0.30334
      10 -> 15        -0.20819
      10 -> 16        -0.32050
      11 -> 15        -0.11751
      11 -> 16        -0.13986
      13 -> 15         0.14567
      13 -> 19         0.41770

 Excited State  15:      Singlet-A     10.5174 eV  117.88 nm  f=0.0049  <S**2>=0.000
       9 -> 14        -0.11645
      10 -> 15         0.46576
      11 -> 15         0.24825
      13 -> 16        -0.11673
      13 -> 18        -0.30271
      13 -> 19         0.23932

 The electronic state is 1-A.
 Alpha  occ. eigenvalues --   -1.86648  -1.14648  -0.89518  -0.80416  -0.75769
 Alpha  occ. eigenvalues --   -0.67263  -0.64943  -0.57710  -0.55339  -0.45963
 Alpha  occ. eigenvalues --   -0.45426  -0.42948  -0.31932
 Alpha virt. eigenvalues --    0.08451   0.15989   0.16304   0.23699   0.27074
 Alpha virt. eigenvalues --    0.28970   0.34885   0.39547   0.50071   0.57048
 Alpha virt. eigenvalues --    0.62114

 Mulliken charges:
               1
     1  C   -0.227420
     2  C   -2.053179
     3  O    3.434231
     4  C   -1.964556
     5  C   -0.145268
     6  H    0.217210
     7  H    0.271951
     8  H    0.274175
     9  H    0.192857
 Sum of Mulliken charges =   0.00000

 Dipole moment (field-independent basis, Debye):
    X=             -3.3269    Y=             -9.7663    Z=              0.4673  Tot=             10.3280
 N-N= 1.048037573327D+02 E-N=-1.707842477731D+02  KE=-1.442691354921D+01
 Orbital energies and kinetic energies (alpha):
                                 1                 2
   1         O                -1.866483         -1.283901
   2         O                -1.146479         -0.970705
   3         O                -0.895185         -0.784770
   4         O                -0.804158         -0.547712
   5         O                -0.757694         -0.633195
   6         O                -0.672626         -0.546852
   7         O                -0.649429         -0.504823

 Normal termination of Gaussian 09 at Tue Dec 15 17:07:40 2015.
