 Gaussian 09, Revision D.01,
 Gaussian 09:  ES64L-G09RevD.01 24-Apr-2013

 ------------------------------------------------------------
 #P AM1(Input,print) CIS(Singlets,NStates=15) pop(full) force
 ------------------------------------------------------------

 -----------------
 AM1-Reparam Input
 -----------------
 Symbolic Z-matrix:
 Charge =  0 Multiplicity = 1

                         Standard orientation:
 ---------------------------------------------------------------------
 Center     Atomic      Atomic             Coordinates (Angstroms)
 Number     Number       Type             X           Y           Z
 ---------------------------------------------------------------------
      1          6           0        1.010083    0.697276   -0.032860
      2          6           0        0.930391   -0.687172    0.030939
      3          8           0       -0.399434   -1.105088   -0.013396
      4          6           0       -1.135891   -0.028866    0.008723
      5          6           0       -0.380748    1.193153    0.008364
      6          1           0       -0.733018    2.149220   -0.013539
      7          1           0       -2.233786   -0.150229    0.002140
      8          1           0        1.729140   -1.456914   -0.030691
      9          1           0        1.890128    1.252281    0.058256
 ---------------------------------------------------------------------

 SCF Done:  E(RAM1) =   2.00039496581     A.U. after   13 cycles

 Excitation energies and oscillator strengths:

 Excited State   1:      Singlet-A      5.3282 eV  232.70 nm  f=0.3670  <S**2>=0.000
      13 -> 14         0.69633
 This state for optimization and/or second-order correction.
 Total Energy, E(CIS) =   2.19620138793
 Copying the excited state density for this state as the 1-particle RhoCI density.

 Excited State   2:      Singlet-A      6.6009 eV  187.83 nm  f=0.0094  <S**2>=0.000
      13 -> 15         0.64058
      13 -> 17         0.26646

 Excited State   3:      Singlet-A      6.7911 eV  182.57 nm  f=0.0010  <S**2>=0.000
      12 -> 14         0.69729

 Excited State   4:      Singlet-A      7.0997 eV  174.63 nm  f=0.0056  <S**2>=0.000
      13 -> 16         0.61011
      13 -> 18         0.31597

 Excited State   5:      Singlet-A      7.8034 eV  158.88 nm  f=0.0063  <S**2>=0.000
      10 -> 14         0.68216
      11 -> 14         0.11110
      13 -> 19         0.10897

 Excited State   6:      Singlet-A      7.9838 eV  155.29 nm  f=0.0002  <S**2>=0.000
      10 -> 14        -0.12236
      11 -> 15        -0.10005
      13 -> 15        -0.12615
      13 -> 16         0.23464
      13 -> 17         0.17373
      13 -> 18        -0.28888
      13 -> 19         0.51996

 Excited State   7:      Singlet-A      8.4610 eV  146.54 nm  f=0.1299  <S**2>=0.000
      10 -> 14        -0.11507
      11 -> 14         0.68531

 Excited State   8:      Singlet-A      8.6416 eV  143.47 nm  f=0.0199  <S**2>=0.000
      11 -> 15        -0.12986
      11 -> 16         0.10273
      13 -> 15        -0.20718
      13 -> 17         0.60518
      13 -> 19        -0.19933

 Excited State   9:      Singlet-A      9.0896 eV  136.40 nm  f=0.0058  <S**2>=0.000
      11 -> 16         0.16199
      13 -> 16        -0.17973
      13 -> 18         0.50834
      13 -> 19         0.40228

 Excited State  10:      Singlet-A      9.6379 eV  128.64 nm  f=0.0409  <S**2>=0.000
       9 -> 15         0.14314
      10 -> 15        -0.21297
      10 -> 16        -0.20151
      10 -> 17        -0.15705
      10 -> 18        -0.14374
      12 -> 15         0.32551
      12 -> 16        -0.19318
      12 -> 17         0.19509
      12 -> 18        -0.21361
      12 -> 19         0.23892

 Excited State  11:      Singlet-A      9.8247 eV  126.20 nm  f=0.0004  <S**2>=0.000
      11 -> 15        -0.12978
      13 -> 20         0.61337
      13 -> 21        -0.28751

 Excited State  12:      Singlet-A      9.9368 eV  124.77 nm  f=0.0034  <S**2>=0.000
       7 -> 15        -0.12003
      11 -> 15         0.61178
      11 -> 16         0.10151
      11 -> 17         0.12840
      13 -> 15        -0.12276
      13 -> 21        -0.16337

 Excited State  13:      Singlet-A     10.0935 eV  122.84 nm  f=0.0549  <S**2>=0.000
      10 -> 15         0.15570
      12 -> 15         0.29019
      12 -> 17         0.11709
      13 -> 20         0.24597
      13 -> 21         0.52186

 Excited State  14:      Singlet-A     10.1261 eV  122.44 nm  f=0.0308  <S**2>=0.000
      10 -> 15         0.31965
      10 -> 17         0.17220
      12 -> 15         0.37795
      12 -> 16         0.17540
      12 -> 17         0.15509
      13 -> 20        -0.18047
      13 -> 21        -0.30087

 Excited State  15:      Singlet-A     10.3451 eV  119.85 nm  f=0.1867  <S**2>=0.000
       9 -> 15         0.13219
      10 -> 15        -0.30645
      10 -> 16        -0.14865
      10 -> 17        -0.12354
      12 -> 16         0.47227
      12 -> 18         0.25641

 The electronic state is 1-A.
 Alpha  occ. eigenvalues --   -1.93323  -1.17107  -0.93653  -0.82349  -0.77573
 Alpha  occ. eigenvalues --   -0.68647  -0.63918  -0.54962  -0.53109  -0.45397
 Alpha  occ. eigenvalues --   -0.43692  -0.42202  -0.29883
 Alpha virt. eigenvalues --    0.09858   0.17740   0.20164   0.24724   0.26726
 Alpha virt. eigenvalues --    0.28528   0.30459   0.31326   0.36939   0.45643
 Alpha virt. eigenvalues --    0.50212

 Mulliken charges:
               1
     1  C   -0.137493
     2  C   -2.011685
     3  O    3.179697
     4  C   -2.049887
     5  C   -0.232145
     6  H    0.249499
     7  H    0.385007
     8  H    0.370564
     9  H    0.246442
 Sum of Mulliken charges =   0.00000

 Dipole moment (field-independent basis, Debye):
    X=             -3.5229    Y=             -9.4093    Z=             -0.5507  Tot=             10.0622
 N-N= 1.036242088564D+02 E-N=-1.685033222616D+02  KE=-1.542801561319D+01
 Orbital energies and kinetic energies (alpha):
                                 1                 2
   1         O                -1.933225         -1.382795
   2         O                -1.171071         -1.054690
   3         O                -0.936532         -0.848602
   4         O                -0.823485         -0.610770
   5         O                -0.775731         -0.665380
   6         O                -0.686469         -0.574626
   7         O                -0.639181         -0.506763

 Normal termination of Gaussian 09 at Tue Dec 15 17:07:15 2015.
