 Gaussian 09, Revision D.01,
 Gaussian 09:  ES64L-G09RevD.01 24-Apr-2013

 ------------------------------------------------------------
 #P AM1(Input,print) CIS(Singlets,NStates=15) pop(full) force
 ------------------------------------------------------------

 -----------------
 AM1-Reparam Input
 -----------------
 Symbolic Z-matrix:
 Charge =  0 Multiplicity = 1

                         Standard orientation:
 ---------------------------------------------------------------------
 Center     Atomic      Atomic             Coordinates (Angstroms)
 Number     Number       Type             X           Y           Z
 ---------------------------------------------------------------------
      1          6           0       -0.791361    0.865569   -0.019063
      2          6           0       -1.080120   -0.487728    0.038010
      3          8           0        0.150444   -1.116339   -0.018479
      4          6           0        1.149966   -0.213091   -0.005149
      5          6           0        0.564242    0.995773    0.007387
      6          1           0        1.120018    1.939580    0.030739
      7          1           0        2.137831   -0.601887    0.036199
      8          1           0       -1.978883   -1.080538   -0.012795
      9          1           0       -1.538885    1.710418   -0.033425
 ---------------------------------------------------------------------

 SCF Done:  E(RAM1) =   1.78795694809     A.U. after   13 cycles

 Excitation energies and oscillator strengths:

 Excited State   1:      Singlet-A      5.6989 eV  217.56 nm  f=0.3095  <S**2>=0.000
      13 -> 14         0.68506
 This state for optimization and/or second-order correction.
 Total Energy, E(CIS) =   1.99738947171
 Copying the excited state density for this state as the 1-particle RhoCI density.

 Excited State   2:      Singlet-A      6.9969 eV  177.20 nm  f=0.0106  <S**2>=0.000
      13 -> 15         0.66596
      13 -> 16         0.12750
      13 -> 17        -0.13983

 Excited State   3:      Singlet-A      7.3467 eV  168.76 nm  f=0.0014  <S**2>=0.000
      13 -> 15        -0.11634
      13 -> 16         0.65232
      13 -> 18         0.11232
      13 -> 19         0.15997

 Excited State   4:      Singlet-A      7.7031 eV  160.95 nm  f=0.0005  <S**2>=0.000
      12 -> 14         0.69646

 Excited State   5:      Singlet-A      8.0288 eV  154.43 nm  f=0.0081  <S**2>=0.000
      11 -> 14         0.69805

 Excited State   6:      Singlet-A      8.4203 eV  147.24 nm  f=0.0001  <S**2>=0.000
      13 -> 16        -0.10083
      13 -> 18         0.64502
      13 -> 21        -0.23431

 Excited State   7:      Singlet-A      9.1461 eV  135.56 nm  f=0.0924  <S**2>=0.000
      10 -> 14         0.68187

 Excited State   8:      Singlet-A      9.2483 eV  134.06 nm  f=0.0092  <S**2>=0.000
      10 -> 16        -0.16664
      13 -> 15         0.10051
      13 -> 17         0.66136

 Excited State   9:      Singlet-A      9.7039 eV  127.77 nm  f=0.1686  <S**2>=0.000
       9 -> 16        -0.11617
      11 -> 15         0.38676
      11 -> 16         0.13361
      11 -> 17        -0.26493
      12 -> 16        -0.17388
      12 -> 18        -0.35052
      13 -> 14        -0.14840

 Excited State  10:      Singlet-A      9.9097 eV  125.11 nm  f=0.0002  <S**2>=0.000
      10 -> 15         0.18976
      10 -> 16         0.12716
      13 -> 19         0.62399
      13 -> 21        -0.13107

 Excited State  11:      Singlet-A     10.1624 eV  122.00 nm  f=0.0428  <S**2>=0.000
      11 -> 15        -0.12664
      11 -> 16         0.17047
      12 -> 15         0.59558
      12 -> 16        -0.16701
      12 -> 17        -0.10105
      12 -> 18        -0.10789

 Excited State  12:      Singlet-A     10.4896 eV  118.20 nm  f=0.1328  <S**2>=0.000
      10 -> 15         0.10826
      11 -> 15         0.17295
      11 -> 16         0.41284
      11 -> 19         0.10820
      12 -> 16         0.47052

 Excited State  13:      Singlet-A     10.5734 eV  117.26 nm  f=0.0191  <S**2>=0.000
      10 -> 15        -0.37060
      11 -> 16         0.10355
      13 -> 18         0.19540
      13 -> 19         0.20601
      13 -> 20        -0.26185
      13 -> 21         0.39265

 Excited State  14:      Singlet-A     10.6371 eV  116.56 nm  f=0.0068  <S**2>=0.000
      10 -> 15         0.46678
      10 -> 16         0.17674
      13 -> 18         0.10613
      13 -> 20        -0.15058
      13 -> 21         0.40173

 Excited State  15:      Singlet-A     10.7163 eV  115.70 nm  f=0.0888  <S**2>=0.000
      10 -> 16        -0.26300
      13 -> 20         0.55967
      13 -> 21         0.28957

 The electronic state is 1-A.
 Alpha  occ. eigenvalues --   -2.00157  -1.28514  -1.01120  -0.89473  -0.86121
 Alpha  occ. eigenvalues --   -0.76174  -0.75345  -0.65343  -0.62446  -0.52473
 Alpha  occ. eigenvalues --   -0.51370  -0.50598  -0.38610
 Alpha virt. eigenvalues --    0.04270   0.10992   0.12392   0.18655   0.19112
 Alpha virt. eigenvalues --    0.22286   0.24378   0.26383   0.29049   0.36600
 Alpha virt. eigenvalues --    0.42790

 Mulliken charges:
               1
     1  C   -0.116740
     2  C   -1.917589
     3  O    3.191692
     4  C   -1.901139
     5  C   -0.160739
     6  H    0.170185
     7  H    0.282842
     8  H    0.283818
     9  H    0.167669
 Sum of Mulliken charges =   0.00000

 Dipole moment (field-independent basis, Debye):
    X=              1.4938    Y=             -9.7415    Z=             -0.4866  Tot=              9.8674
 N-N= 1.058355739961D+02 E-N=-1.708665300356D+02  KE=-1.567380956151D+01
 Orbital energies and kinetic energies (alpha):
                                 1                 2
   1         O                -2.001573         -1.385794
   2         O                -1.285139         -1.047155
   3         O                -1.011197         -0.873305
   4         O                -0.894733         -0.591927
   5         O                -0.861206         -0.699015
   6         O                -0.761745         -0.618960
   7         O                -0.753454         -0.554038

 Normal termination of Gaussian 09 at Tue Dec 15 17:08:59 2015.
