 Gaussian 09, Revision D.01,
 Gaussian 09:  ES64L-G09RevD.01 24-Apr-2013

 ------------------------------------------------------------
 #P AM1(Input,print) CIS(Singlets,NStates=15) pop(full) force
 ------------------------------------------------------------

 -----------------
 AM1-Reparam Input
 -----------------
 Symbolic Z-matrix:
 Charge =  0 Multiplicity = 1

                         Standard orientation:
 ---------------------------------------------------------------------
 Center     Atomic      Atomic             Coordinates (Angstroms)
 Number     Number       Type             X           Y           Z
 ---------------------------------------------------------------------
      1          6           0       -1.066028    0.549571    0.013166
      2          6           0       -0.878971   -0.796044   -0.016967
      3          8           0        0.582850   -1.035453    0.006998
      4          6           0        1.153102    0.178886   -0.007447
      5          6           0        0.175993    1.158476   -0.003216
      6          1           0        0.382676    2.257368   -0.024410
      7          1           0        2.218832    0.183356    0.032427
      8          1           0       -1.469872   -1.686384    0.003517
      9          1           0       -2.099014    0.983952    0.019260
 ---------------------------------------------------------------------

 SCF Done:  E(RAM1) =   1.78592035339     A.U. after   13 cycles

 Excitation energies and oscillator strengths:

 Excited State   1:      Singlet-A      5.6151 eV  220.80 nm  f=0.3124  <S**2>=0.000
      13 -> 14         0.68761
 This state for optimization and/or second-order correction.
 Total Energy, E(CIS) =   1.99227165800
 Copying the excited state density for this state as the 1-particle RhoCI density.

 Excited State   2:      Singlet-A      6.6447 eV  186.59 nm  f=0.0050  <S**2>=0.000
      10 -> 15         0.10540
      13 -> 15         0.66908
      13 -> 17         0.14961

 Excited State   3:      Singlet-A      7.2997 eV  169.85 nm  f=0.0025  <S**2>=0.000
      10 -> 16        -0.10277
      13 -> 16         0.66486
      13 -> 19         0.12534

 Excited State   4:      Singlet-A      7.7964 eV  159.03 nm  f=0.0001  <S**2>=0.000
      11 -> 14        -0.14383
      12 -> 14         0.68301

 Excited State   5:      Singlet-A      8.0405 eV  154.20 nm  f=0.0061  <S**2>=0.000
      11 -> 14         0.68466
      12 -> 14         0.14521

 Excited State   6:      Singlet-A      8.4646 eV  146.47 nm  f=0.0000  <S**2>=0.000
      13 -> 18         0.63551
      13 -> 22         0.25893

 Excited State   7:      Singlet-A      8.9224 eV  138.96 nm  f=0.0096  <S**2>=0.000
      10 -> 15        -0.12465
      10 -> 16         0.11055
      13 -> 15        -0.12491
      13 -> 17         0.66212

 Excited State   8:      Singlet-A      9.1330 eV  135.75 nm  f=0.0778  <S**2>=0.000
      10 -> 14         0.64463
      11 -> 15        -0.12110
      12 -> 18         0.10896

 Excited State   9:      Singlet-A      9.6784 eV  128.10 nm  f=0.0000  <S**2>=0.000
      10 -> 16         0.12677
      13 -> 18        -0.11067
      13 -> 19         0.64700

 Excited State  10:      Singlet-A      9.8255 eV  126.19 nm  f=0.1861  <S**2>=0.000
       9 -> 15         0.15863
      10 -> 14         0.21347
      11 -> 15         0.31890
      11 -> 16         0.27220
      11 -> 17         0.26432
      11 -> 18         0.12884
      12 -> 15         0.13082
      12 -> 18        -0.28775
      13 -> 14         0.12982

 Excited State  11:      Singlet-A     10.0641 eV  123.19 nm  f=0.0398  <S**2>=0.000
      11 -> 15        -0.42904
      11 -> 16         0.11251
      11 -> 19         0.13254
      12 -> 15         0.47168
      12 -> 17         0.13244

 Excited State  12:      Singlet-A     10.3078 eV  120.28 nm  f=0.0093  <S**2>=0.000
       7 -> 15        -0.12066
      10 -> 15         0.62216
      13 -> 15        -0.12806
      13 -> 20         0.19093

 Excited State  13:      Singlet-A     10.3494 eV  119.80 nm  f=0.0211  <S**2>=0.000
      10 -> 15         0.11325
      13 -> 18        -0.24010
      13 -> 19        -0.17780
      13 -> 20        -0.35472
      13 -> 22         0.49626

 Excited State  14:      Singlet-A     10.6088 eV  116.87 nm  f=0.1758  <S**2>=0.000
      11 -> 16         0.20153
      12 -> 16         0.62265
      12 -> 19         0.13119

 Excited State  15:      Singlet-A     10.6963 eV  115.91 nm  f=0.0748  <S**2>=0.000
      10 -> 15        -0.10019
      10 -> 16        -0.12566
      13 -> 20         0.52836
      13 -> 22         0.40450

 The electronic state is 1-A.
 Alpha  occ. eigenvalues --   -1.97515  -1.26611  -0.98951  -0.88386  -0.84913
 Alpha  occ. eigenvalues --   -0.75751  -0.73054  -0.63303  -0.61793  -0.51319
 Alpha  occ. eigenvalues --   -0.50015  -0.49382  -0.36626
 Alpha virt. eigenvalues --    0.05662   0.10851   0.14309   0.19461   0.20893
 Alpha virt. eigenvalues --    0.23280   0.26016   0.26681   0.27730   0.34963
 Alpha virt. eigenvalues --    0.39609

 Mulliken charges:
               1
     1  C   -0.046155
     2  C   -1.867188
     3  O    3.178383
     4  C   -1.895359
     5  C   -0.217652
     6  H    0.165589
     7  H    0.277893
     8  H    0.253212
     9  H    0.151277
 Sum of Mulliken charges =   0.00000

 Dipole moment (field-independent basis, Debye):
    X=              5.7207    Y=             -9.6154    Z=              0.3641  Tot=             11.1944
 N-N= 1.047960886744D+02 E-N=-1.692789994002D+02  KE=-1.558898686226D+01
 Orbital energies and kinetic energies (alpha):
                                 1                 2
   1         O                -1.975148         -1.334198
   2         O                -1.266107         -1.051865
   3         O                -0.989509         -0.875502
   4         O                -0.883861         -0.593407
   5         O                -0.849127         -0.692086
   6         O                -0.757506         -0.601952
   7         O                -0.730536         -0.540047

 Normal termination of Gaussian 09 at Tue Dec 15 17:09:05 2015.
