 Gaussian 09, Revision D.01,
 Gaussian 09:  ES64L-G09RevD.01 24-Apr-2013

 ------------------------------------------------------------
 #P AM1(Input,print) CIS(Singlets,NStates=15) pop(full) force
 ------------------------------------------------------------

 -----------------
 AM1-Reparam Input
 -----------------
 Symbolic Z-matrix:
 Charge =  0 Multiplicity = 1

                         Standard orientation:
 ---------------------------------------------------------------------
 Center     Atomic      Atomic             Coordinates (Angstroms)
 Number     Number       Type             X           Y           Z
 ---------------------------------------------------------------------
      1          6           0        0.222048    1.174549   -0.022903
      2          6           0        1.125406    0.115966    0.022755
      3          8           0        0.481424   -1.064922   -0.017949
      4          6           0       -0.810911   -0.774028    0.015656
      5          6           0       -1.055215    0.593731   -0.003601
      6          1           0       -1.979509    1.086894    0.028569
      7          1           0       -1.545866   -1.581484    0.001573
      8          1           0        2.236428    0.095079    0.020905
      9          1           0        0.549588    2.257576    0.021105
 ---------------------------------------------------------------------

 SCF Done:  E(RAM1) =   2.79196073775     A.U. after   13 cycles

 Excitation energies and oscillator strengths:

 Excited State   1:      Singlet-A      5.5556 eV  223.17 nm  f=0.3305  <S**2>=0.000
      13 -> 14         0.69369
 This state for optimization and/or second-order correction.
 Total Energy, E(CIS) =   2.99612427726
 Copying the excited state density for this state as the 1-particle RhoCI density.

 Excited State   2:      Singlet-A      6.6711 eV  185.85 nm  f=0.0061  <S**2>=0.000
      11 -> 16        -0.11218
      13 -> 15         0.64296
      13 -> 17        -0.23645

 Excited State   3:      Singlet-A      6.8701 eV  180.47 nm  f=0.0001  <S**2>=0.000
      11 -> 15        -0.13905
      13 -> 16         0.63308
      13 -> 18        -0.22333

 Excited State   4:      Singlet-A      7.0192 eV  176.64 nm  f=0.0009  <S**2>=0.000
       9 -> 14         0.14313
      12 -> 14         0.68280

 Excited State   5:      Singlet-A      7.7322 eV  160.35 nm  f=0.0069  <S**2>=0.000
      10 -> 14         0.67427
      11 -> 14        -0.14783
      13 -> 17         0.10011

 Excited State   6:      Singlet-A      8.1406 eV  152.30 nm  f=0.0143  <S**2>=0.000
      10 -> 14        -0.11422
      11 -> 16        -0.15719
      13 -> 15         0.19681
      13 -> 17         0.63968

 Excited State   7:      Singlet-A      8.1687 eV  151.78 nm  f=0.0001  <S**2>=0.000
      11 -> 15        -0.15028
      13 -> 16         0.16359
      13 -> 18         0.44797
      13 -> 20         0.15699
      13 -> 21         0.46058

 Excited State   8:      Singlet-A      8.5154 eV  145.60 nm  f=0.1084  <S**2>=0.000
      10 -> 14         0.15033
      11 -> 14         0.67730

 Excited State   9:      Singlet-A      8.8049 eV  140.81 nm  f=0.0013  <S**2>=0.000
      13 -> 16         0.12252
      13 -> 18         0.27743
      13 -> 19         0.50494
      13 -> 20        -0.24772
      13 -> 21        -0.26392

 Excited State  10:      Singlet-A      9.1460 eV  135.56 nm  f=0.0098  <S**2>=0.000
      13 -> 18        -0.39110
      13 -> 19         0.44697
      13 -> 21         0.35121

 Excited State  11:      Singlet-A      9.4163 eV  131.67 nm  f=0.0029  <S**2>=0.000
       8 -> 15        -0.17179
       9 -> 16         0.14137
       9 -> 18        -0.13399
      10 -> 15        -0.27743
      10 -> 16        -0.10236
      10 -> 17         0.29828
      11 -> 15         0.12673
      12 -> 15        -0.14287
      12 -> 16         0.27787
      12 -> 17         0.12219
      12 -> 18        -0.18595
      12 -> 21        -0.14166

 Excited State  12:      Singlet-A      9.5802 eV  129.42 nm  f=0.0780  <S**2>=0.000
      11 -> 16         0.12964
      13 -> 19         0.13640
      13 -> 20         0.61866
      13 -> 21        -0.24363

 Excited State  13:      Singlet-A      9.6941 eV  127.90 nm  f=0.0077  <S**2>=0.000
      11 -> 15         0.59228
      11 -> 17        -0.13847
      12 -> 15         0.14970
      12 -> 16        -0.13107
      13 -> 16         0.17940
      13 -> 21         0.10639

 Excited State  14:      Singlet-A      9.7493 eV  127.17 nm  f=0.0748  <S**2>=0.000
       9 -> 15        -0.10258
      10 -> 16         0.18943
      12 -> 15         0.44274
      12 -> 16         0.40418
      12 -> 17        -0.16544
      12 -> 18        -0.12119

 Excited State  15:      Singlet-A      9.8692 eV  125.63 nm  f=0.1411  <S**2>=0.000
       9 -> 16        -0.10993
      10 -> 15         0.37716
      10 -> 17        -0.17093
      11 -> 15         0.12991
      12 -> 15        -0.30554
      12 -> 16         0.35299
      12 -> 19        -0.13235

 The electronic state is 1-A.
 Alpha  occ. eigenvalues --   -1.72087  -1.11657  -0.90795  -0.78934  -0.74213
 Alpha  occ. eigenvalues --   -0.66133  -0.63544  -0.52924  -0.48737  -0.43321
 Alpha  occ. eigenvalues --   -0.42131  -0.40694  -0.29532
 Alpha virt. eigenvalues --    0.11843   0.18149   0.18710   0.24355   0.26905
 Alpha virt. eigenvalues --    0.27973   0.29561   0.30915   0.39475   0.48576
 Alpha virt. eigenvalues --    0.52326

 Mulliken charges:
               1
     1  C   -0.100005
     2  C   -1.972288
     3  O    3.206461
     4  C   -1.984475
     5  C   -0.120263
     6  H    0.174746
     7  H    0.315957
     8  H    0.305435
     9  H    0.174433
 Sum of Mulliken charges =   0.00000

 Dipole moment (field-independent basis, Debye):
    X=              4.0997    Y=             -9.1250    Z=             -0.4804  Tot=             10.0152
 N-N= 1.039014889028D+02 E-N=-1.691629961649D+02  KE=-1.476201405998D+01
 Orbital energies and kinetic energies (alpha):
                                 1                 2
   1         O                -1.720871         -1.228064
   2         O                -1.116567         -0.994243
   3         O                -0.907952         -0.832048
   4         O                -0.789345         -0.596197
   5         O                -0.742132         -0.670850
   6         O                -0.661332         -0.578000
   7         O                -0.635441         -0.522264

 Normal termination of Gaussian 09 at Tue Dec 15 17:06:04 2015.
