 Gaussian 09, Revision D.01,
 Gaussian 09:  ES64L-G09RevD.01 24-Apr-2013

 ------------------------------------------------------------
 #P AM1(Input,print) CIS(Singlets,NStates=15) pop(full) force
 ------------------------------------------------------------

 -----------------
 AM1-Reparam Input
 -----------------
 Symbolic Z-matrix:
 Charge =  0 Multiplicity = 1

                         Standard orientation:
 ---------------------------------------------------------------------
 Center     Atomic      Atomic             Coordinates (Angstroms)
 Number     Number       Type             X           Y           Z
 ---------------------------------------------------------------------
      1          6           0        0.222048    1.174549   -0.022903
      2          6           0        1.125406    0.115966    0.022755
      3          8           0        0.481424   -1.064922   -0.017949
      4          6           0       -0.810911   -0.774028    0.015656
      5          6           0       -1.055215    0.593731   -0.003601
      6          1           0       -1.979509    1.086894    0.028569
      7          1           0       -1.545866   -1.581484    0.001573
      8          1           0        2.236428    0.095079    0.020905
      9          1           0        0.549588    2.257576    0.021105
 ---------------------------------------------------------------------

 SCF Done:  E(RAM1) =   2.00658596192     A.U. after   13 cycles

 Excitation energies and oscillator strengths:

 Excited State   1:      Singlet-A      5.6289 eV  220.27 nm  f=0.3376  <S**2>=0.000
      13 -> 14         0.69308
 This state for optimization and/or second-order correction.
 Total Energy, E(CIS) =   2.21344278815
 Copying the excited state density for this state as the 1-particle RhoCI density.

 Excited State   2:      Singlet-A      6.9492 eV  178.42 nm  f=0.0141  <S**2>=0.000
      13 -> 15         0.65243
      13 -> 17         0.21955

 Excited State   3:      Singlet-A      7.0547 eV  175.75 nm  f=0.0011  <S**2>=0.000
      12 -> 14         0.68030

 Excited State   4:      Singlet-A      7.2025 eV  172.14 nm  f=0.0005  <S**2>=0.000
      11 -> 15        -0.10797
      12 -> 14         0.10169
      13 -> 16         0.61314
      13 -> 18        -0.28490

 Excited State   5:      Singlet-A      7.6910 eV  161.21 nm  f=0.0059  <S**2>=0.000
      10 -> 14         0.64095
      11 -> 14        -0.27203

 Excited State   6:      Singlet-A      8.3518 eV  148.45 nm  f=0.0000  <S**2>=0.000
      11 -> 15         0.13116
      13 -> 16        -0.18955
      13 -> 18        -0.32043
      13 -> 19         0.24371
      13 -> 20         0.47943
      13 -> 21         0.19988

 Excited State   7:      Singlet-A      8.6679 eV  143.04 nm  f=0.1207  <S**2>=0.000
      10 -> 14         0.26813
      11 -> 14         0.64391

 Excited State   8:      Singlet-A      8.8553 eV  140.01 nm  f=0.0199  <S**2>=0.000
      11 -> 16         0.20061
      13 -> 15        -0.17425
      13 -> 17         0.63569

 Excited State   9:      Singlet-A      9.2026 eV  134.73 nm  f=0.0007  <S**2>=0.000
      11 -> 15        -0.17613
      13 -> 16         0.16258
      13 -> 18         0.48323
      13 -> 19         0.34428
      13 -> 20         0.26873

 Excited State  10:      Singlet-A      9.5611 eV  129.68 nm  f=0.0104  <S**2>=0.000
       8 -> 15         0.10020
       9 -> 16        -0.11070
      10 -> 15         0.34025
      10 -> 16         0.11930
      10 -> 17         0.23533
      11 -> 15        -0.17036
      11 -> 17        -0.10597
      12 -> 15         0.19439
      12 -> 16        -0.19758
      12 -> 17         0.12192
      12 -> 18         0.17057
      12 -> 19        -0.15962
      12 -> 20        -0.15707

 Excited State  11:      Singlet-A      9.7199 eV  127.56 nm  f=0.0132  <S**2>=0.000
      13 -> 18        -0.20960
      13 -> 19         0.53659
      13 -> 20        -0.32046
      13 -> 21        -0.21641

 Excited State  12:      Singlet-A     10.0429 eV  123.45 nm  f=0.0038  <S**2>=0.000
      10 -> 15         0.11046
      11 -> 15         0.56571
      11 -> 17         0.13939
      12 -> 15         0.21528
      13 -> 16         0.17484
      13 -> 18         0.12073

 Excited State  13:      Singlet-A     10.0952 eV  122.82 nm  f=0.0546  <S**2>=0.000
      10 -> 16         0.17178
      10 -> 18        -0.10790
      11 -> 15        -0.13601
      11 -> 16        -0.13070
      12 -> 15         0.40739
      12 -> 16         0.37177
      12 -> 17         0.19798
      12 -> 18        -0.19497

 Excited State  14:      Singlet-A     10.1330 eV  122.36 nm  f=0.0590  <S**2>=0.000
      11 -> 16         0.10422
      13 -> 20        -0.26781
      13 -> 21         0.61790

 Excited State  15:      Singlet-A     10.2336 eV  121.15 nm  f=0.1881  <S**2>=0.000
      10 -> 15         0.42916
      10 -> 17         0.14014
      12 -> 15        -0.21965
      12 -> 16         0.37769
      12 -> 18        -0.19022

 The electronic state is 1-A.
 Alpha  occ. eigenvalues --   -1.94135  -1.19674  -0.94095  -0.81954  -0.78153
 Alpha  occ. eigenvalues --   -0.68201  -0.65069  -0.54361  -0.53313  -0.43856
 Alpha  occ. eigenvalues --   -0.43318  -0.41966  -0.30559
 Alpha virt. eigenvalues --    0.11245   0.18790   0.19651   0.25293   0.26933
 Alpha virt. eigenvalues --    0.28858   0.29872   0.31014   0.37910   0.46802
 Alpha virt. eigenvalues --    0.51097

 Mulliken charges:
               1
     1  C   -0.176379
     2  C   -2.031064
     3  O    3.177897
     4  C   -2.042168
     5  C   -0.191324
     6  H    0.249998
     7  H    0.383479
     8  H    0.374324
     9  H    0.255237
 Sum of Mulliken charges =   0.00000

 Dipole moment (field-independent basis, Debye):
    X=              4.0562    Y=             -8.8812    Z=             -0.4624  Tot=              9.7746
 N-N= 1.043384022623D+02 E-N=-1.698060803950D+02  KE=-1.548442970246D+01
 Orbital energies and kinetic energies (alpha):
                                 1                 2
   1         O                -1.941348         -1.404688
   2         O                -1.196744         -1.071818
   3         O                -0.940955         -0.855220
   4         O                -0.819541         -0.602113
   5         O                -0.781533         -0.668854
   6         O                -0.682007         -0.574794
   7         O                -0.650692         -0.522459

 Normal termination of Gaussian 09 at Tue Dec 15 17:07:26 2015.
