 Gaussian 09, Revision D.01,
 Gaussian 09:  ES64L-G09RevD.01 24-Apr-2013

 ------------------------------------------------------------
 #P AM1(Input,print) CIS(Singlets,NStates=15) pop(full) force
 ------------------------------------------------------------

 -----------------
 AM1-Reparam Input
 -----------------
 Symbolic Z-matrix:
 Charge =  0 Multiplicity = 1

                         Standard orientation:
 ---------------------------------------------------------------------
 Center     Atomic      Atomic             Coordinates (Angstroms)
 Number     Number       Type             X           Y           Z
 ---------------------------------------------------------------------
      1          6           0        0.233851    1.154702    0.003250
      2          6           0        1.135344    0.102583   -0.003083
      3          8           0        0.513178   -1.038706   -0.012188
      4          6           0       -0.894355   -0.752286    0.020260
      5          6           0       -1.039467    0.578183   -0.021205
      6          1           0       -1.994764    1.099424   -0.005095
      7          1           0       -1.506241   -1.562490    0.034581
      8          1           0        2.247521    0.079366    0.026829
      9          1           0        0.535823    2.194256    0.045854
 ---------------------------------------------------------------------

 SCF Done:  E(RAM1) =   2.54020283255     A.U. after   14 cycles

 Excitation energies and oscillator strengths:

 Excited State   1:      Singlet-A      5.4563 eV  227.23 nm  f=0.3278  <S**2>=0.000
      13 -> 14         0.69352
 This state for optimization and/or second-order correction.
 Total Energy, E(CIS) =   2.74071815702
 Copying the excited state density for this state as the 1-particle RhoCI density.

 Excited State   2:      Singlet-A      6.1267 eV  202.37 nm  f=0.0028  <S**2>=0.000
      10 -> 15         0.11212
      13 -> 15         0.66270
      13 -> 17         0.18499

 Excited State   3:      Singlet-A      7.0534 eV  175.78 nm  f=0.0023  <S**2>=0.000
       9 -> 14        -0.10121
      12 -> 14         0.56833
      13 -> 16         0.37433

 Excited State   4:      Singlet-A      7.0642 eV  175.51 nm  f=0.0015  <S**2>=0.000
      12 -> 14        -0.39632
      13 -> 16         0.54069
      13 -> 19         0.10713

 Excited State   5:      Singlet-A      7.8154 eV  158.64 nm  f=0.0070  <S**2>=0.000
      11 -> 14         0.67838
      13 -> 17         0.13958

 Excited State   6:      Singlet-A      8.0619 eV  153.79 nm  f=0.0032  <S**2>=0.000
      10 -> 15        -0.10399
      11 -> 14        -0.15546
      13 -> 15        -0.14011
      13 -> 17         0.48284
      13 -> 18         0.36037
      13 -> 20         0.11531
      13 -> 21        -0.23178

 Excited State   7:      Singlet-A      8.2156 eV  150.91 nm  f=0.0055  <S**2>=0.000
      10 -> 16        -0.11679
      13 -> 16         0.10380
      13 -> 17        -0.41841
      13 -> 18         0.47343
      13 -> 21        -0.23122

 Excited State   8:      Singlet-A      8.8636 eV  139.88 nm  f=0.0708  <S**2>=0.000
      10 -> 14         0.65102
      11 -> 15        -0.11966
      11 -> 17        -0.10529

 Excited State   9:      Singlet-A      9.0731 eV  136.65 nm  f=0.0000  <S**2>=0.000
      10 -> 16         0.12963
      13 -> 16        -0.10776
      13 -> 17         0.11902
      13 -> 18         0.12198
      13 -> 19         0.63792
      13 -> 20        -0.11593

 Excited State  10:      Singlet-A      9.3234 eV  132.98 nm  f=0.0329  <S**2>=0.000
       8 -> 15         0.10811
      11 -> 15        -0.23020
      12 -> 15         0.60042
      12 -> 17         0.15495

 Excited State  11:      Singlet-A      9.5009 eV  130.50 nm  f=0.0671  <S**2>=0.000
       9 -> 15        -0.21927
      10 -> 14         0.20565
      11 -> 15         0.37624
      11 -> 16         0.20113
      11 -> 17         0.26933
      12 -> 16        -0.11198
      12 -> 18         0.24768

 Excited State  12:      Singlet-A      9.5438 eV  129.91 nm  f=0.0108  <S**2>=0.000
      10 -> 15         0.10824
      13 -> 18         0.32072
      13 -> 19        -0.18671
      13 -> 20        -0.33822
      13 -> 21         0.46025

 Excited State  13:      Singlet-A      9.6658 eV  128.27 nm  f=0.0175  <S**2>=0.000
       7 -> 15        -0.14672
      10 -> 15         0.63329
      13 -> 15        -0.13376
      13 -> 20         0.15396

 Excited State  14:      Singlet-A     10.0515 eV  123.35 nm  f=0.0733  <S**2>=0.000
       9 -> 14        -0.30804
      13 -> 20         0.50063
      13 -> 21         0.32985

 Excited State  15:      Singlet-A     10.1524 eV  122.12 nm  f=0.2073  <S**2>=0.000
       8 -> 15        -0.11938
       9 -> 14         0.10343
       9 -> 15         0.10065
       9 -> 16         0.10402
      11 -> 16         0.25999
      11 -> 19         0.17257
      12 -> 16         0.49184
      12 -> 17         0.16549
      12 -> 18         0.15809
      12 -> 19         0.14355

 The electronic state is 1-A.
 Alpha  occ. eigenvalues --   -1.74163  -1.16454  -0.95304  -0.80797  -0.76581
 Alpha  occ. eigenvalues --   -0.67498  -0.64742  -0.55446  -0.50102  -0.43967
 Alpha  occ. eigenvalues --   -0.43420  -0.40905  -0.29226
 Alpha virt. eigenvalues --    0.11896   0.15625   0.20962   0.24809   0.27511
 Alpha virt. eigenvalues --    0.28890   0.31478   0.32586   0.39312   0.48328
 Alpha virt. eigenvalues --    0.53029

 Mulliken charges:
               1
     1  C   -0.147691
     2  C   -1.960082
     3  O    3.229956
     4  C   -1.901093
     5  C    0.021327
     6  H    0.113097
     7  H    0.238223
     8  H    0.279158
     9  H    0.127105
 Sum of Mulliken charges =   0.00000

 Dipole moment (field-independent basis, Debye):
    X=              5.1362    Y=             -9.2830    Z=             -0.1886  Tot=             10.6109
 N-N= 1.038283522536D+02 E-N=-1.687523439762D+02  KE=-1.505184566150D+01
 Orbital energies and kinetic energies (alpha):
                                 1                 2
   1         O                -1.741634         -1.235317
   2         O                -1.164538         -1.018028
   3         O                -0.953044         -0.868467
   4         O                -0.807969         -0.612948
   5         O                -0.765807         -0.687966
   6         O                -0.674983         -0.568577
   7         O                -0.647417         -0.521646

 Normal termination of Gaussian 09 at Tue Dec 15 17:06:14 2015.
