 Gaussian 09, Revision D.01,
 Gaussian 09:  ES64L-G09RevD.01 24-Apr-2013

 ------------------------------------------------------------
 #P AM1(Input,print) CIS(Singlets,NStates=15) pop(full) force
 ------------------------------------------------------------

 -----------------
 AM1-Reparam Input
 -----------------
 Symbolic Z-matrix:
 Charge =  0 Multiplicity = 1

                         Standard orientation:
 ---------------------------------------------------------------------
 Center     Atomic      Atomic             Coordinates (Angstroms)
 Number     Number       Type             X           Y           Z
 ---------------------------------------------------------------------
      1          6           0       -0.975310    0.715668   -0.009273
      2          6           0       -0.928919   -0.602198   -0.018064
      3          8           0        0.318882   -1.148367    0.018147
      4          6           0        1.166129   -0.012823   -0.013168
      5          6           0        0.405930    1.103118    0.015270
      6          1           0        0.802026    2.164230   -0.016746
      7          1           0        2.195371   -0.198491   -0.022500
      8          1           0       -1.727105   -1.367089   -0.003242
      9          1           0       -1.828327    1.365698    0.048715
 ---------------------------------------------------------------------

 SCF Done:  E(RAM1) =  -4.89637248919     A.U. after   14 cycles

 Excitation energies and oscillator strengths:

 Excited State   1:      Singlet-A      6.7901 eV  182.60 nm  f=0.2665  <S**2>=0.000
      13 -> 14         0.67499
      13 -> 15         0.11583
 This state for optimization and/or second-order correction.
 Total Energy, E(CIS) =  -4.64684070094
 Copying the excited state density for this state as the 1-particle RhoCI density.

 Excited State   2:      Singlet-A      6.9923 eV  177.31 nm  f=0.0147  <S**2>=0.000
      13 -> 14        -0.11968
      13 -> 15         0.66746
      13 -> 18        -0.10945

 Excited State   3:      Singlet-A      7.2111 eV  171.93 nm  f=0.0007  <S**2>=0.000
      12 -> 14         0.69462

 Excited State   4:      Singlet-A      7.6785 eV  161.47 nm  f=0.0051  <S**2>=0.000
      13 -> 16         0.65994
      13 -> 18        -0.12696
      13 -> 21        -0.11843

 Excited State   5:      Singlet-A      8.2945 eV  149.48 nm  f=0.0045  <S**2>=0.000
      11 -> 14         0.69289

 Excited State   6:      Singlet-A      8.8374 eV  140.29 nm  f=0.0782  <S**2>=0.000
      10 -> 14        -0.27788
      12 -> 15         0.10686
      13 -> 17         0.62541

 Excited State   7:      Singlet-A      8.9425 eV  138.65 nm  f=0.0196  <S**2>=0.000
      13 -> 15         0.10399
      13 -> 16         0.12679
      13 -> 18         0.64154
      13 -> 20        -0.12262
      13 -> 21        -0.10440

 Excited State   8:      Singlet-A      9.3737 eV  132.27 nm  f=0.1001  <S**2>=0.000
       9 -> 15        -0.19685
      12 -> 15         0.59895
      12 -> 16        -0.11736
      12 -> 21         0.12078
      13 -> 17        -0.12306

 Excited State   9:      Singlet-A      9.5623 eV  129.66 nm  f=0.0053  <S**2>=0.000
      13 -> 19         0.66656
      13 -> 21         0.10960

 Excited State  10:      Singlet-A      9.7031 eV  127.78 nm  f=0.0097  <S**2>=0.000
      13 -> 18         0.16344
      13 -> 20         0.61908
      13 -> 21         0.20904
      13 -> 23         0.10421

 Excited State  11:      Singlet-A      9.9024 eV  125.21 nm  f=0.0142  <S**2>=0.000
      11 -> 15         0.16602
      12 -> 15         0.12038
      12 -> 16         0.60123
      12 -> 19        -0.15776
      12 -> 21        -0.14203

 Excited State  12:      Singlet-A     10.0483 eV  123.39 nm  f=0.0022  <S**2>=0.000
      10 -> 16        -0.14947
      13 -> 19        -0.17211
      13 -> 20        -0.23205
      13 -> 21         0.55116
      13 -> 22        -0.24316

 Excited State  13:      Singlet-A     10.1306 eV  122.39 nm  f=0.0697  <S**2>=0.000
       8 -> 16        -0.14230
       9 -> 15        -0.17802
      10 -> 14        -0.37564
      11 -> 16         0.10199
      12 -> 17         0.10094
      12 -> 18         0.43697
      13 -> 17        -0.18971

 Excited State  14:      Singlet-A     10.2577 eV  120.87 nm  f=0.0079  <S**2>=0.000
       9 -> 15         0.19819
      11 -> 15         0.54349
      11 -> 16         0.21325
      11 -> 18        -0.18721
      12 -> 16        -0.16892

 Excited State  15:      Singlet-A     10.4689 eV  118.43 nm  f=0.3083  <S**2>=0.000
       9 -> 14         0.17494
      10 -> 14        -0.33466
      11 -> 15         0.13171
      11 -> 16        -0.14801
      11 -> 18         0.18276
      11 -> 20         0.14462
      12 -> 18        -0.19363
      12 -> 19         0.40236
      12 -> 20        -0.10040
      13 -> 17        -0.11785

 The electronic state is 1-A.
 Alpha  occ. eigenvalues --   -3.96632  -1.21888  -0.92306  -0.90563  -0.89904
 Alpha  occ. eigenvalues --   -0.81293  -0.70730  -0.51672  -0.49572  -0.46817
 Alpha  occ. eigenvalues --   -0.43552  -0.39743  -0.31931
 Alpha virt. eigenvalues --    0.14800   0.17254   0.20258   0.24658   0.25067
 Alpha virt. eigenvalues --    0.26805   0.28337   0.33098   0.36741   0.38192
 Alpha virt. eigenvalues --    0.40556

 Mulliken charges:
               1
     1  C   -0.331689
     2  C   -1.493455
     3  O    2.714103
     4  C   -1.523110
     5  C   -0.277739
     6  H    0.199427
     7  H    0.255923
     8  H    0.246854
     9  H    0.209686
 Sum of Mulliken charges =   0.00000

 Dipole moment (field-independent basis, Debye):
    X=              2.5406    Y=            -10.5568    Z=              0.4164  Tot=             10.8662
 N-N= 1.044011728818D+02 E-N=-1.713851999514D+02  KE=-2.307782730865D+01
 Orbital energies and kinetic energies (alpha):
                                 1                 2
   1         O                -3.966316         -3.276500
   2         O                -1.218877         -1.205445
   3         O                -0.923064         -0.943934
   4         O                -0.905631         -0.943071
   5         O                -0.899045         -0.899860
   6         O                -0.812932         -0.787617
   7         O                -0.707296         -0.698980

 Normal termination of Gaussian 09 at Fri Dec 11 13:41:24 2015.
