 Gaussian 09, Revision D.01,
 Gaussian 09:  ES64L-G09RevD.01 24-Apr-2013

 ------------------------------------------------------------
 #P AM1(Input,print) CIS(Singlets,NStates=15) pop(full) force
 ------------------------------------------------------------

 -----------------
 AM1-Reparam Input
 -----------------
 Symbolic Z-matrix:
 Charge =  0 Multiplicity = 1

                         Standard orientation:
 ---------------------------------------------------------------------
 Center     Atomic      Atomic             Coordinates (Angstroms)
 Number     Number       Type             X           Y           Z
 ---------------------------------------------------------------------
      1          6           0        0.426935    1.086993    0.006452
      2          6           0        1.158484   -0.062068    0.034016
      3          8           0        0.323832   -1.092775   -0.013920
      4          6           0       -0.987586   -0.654582   -0.000887
      5          6           0       -0.950789    0.774502   -0.023468
      6          1           0       -1.781889    1.417671    0.030627
      7          1           0       -1.744242   -1.345937    0.070045
      8          1           0        2.197984   -0.256572   -0.078761
      9          1           0        0.855220    2.057965   -0.007227
 ---------------------------------------------------------------------

 SCF Done:  E(RAM1) =   1.70283947690     A.U. after   13 cycles

 Excitation energies and oscillator strengths:

 Excited State   1:      Singlet-A      5.6088 eV  221.05 nm  f=0.3555  <S**2>=0.000
      13 -> 14         0.69183
 This state for optimization and/or second-order correction.
 Total Energy, E(CIS) =   1.90895955485
 Copying the excited state density for this state as the 1-particle RhoCI density.

 Excited State   2:      Singlet-A      7.1592 eV  173.18 nm  f=0.0009  <S**2>=0.000
      12 -> 14         0.69943

 Excited State   3:      Singlet-A      7.4425 eV  166.59 nm  f=0.0073  <S**2>=0.000
      10 -> 15         0.10400
      13 -> 15         0.65728
      13 -> 16         0.12716
      13 -> 17         0.15349

 Excited State   4:      Singlet-A      7.8071 eV  158.81 nm  f=0.0051  <S**2>=0.000
      11 -> 14        -0.15298
      13 -> 15        -0.12341
      13 -> 16         0.63515
      13 -> 18         0.14351
      13 -> 19         0.13073

 Excited State   5:      Singlet-A      7.9636 eV  155.69 nm  f=0.0048  <S**2>=0.000
      11 -> 14         0.68289
      13 -> 16         0.15672

 Excited State   6:      Singlet-A      9.1981 eV  134.79 nm  f=0.0003  <S**2>=0.000
      13 -> 16        -0.11141
      13 -> 18         0.60751
      13 -> 21        -0.29602

 Excited State   7:      Singlet-A      9.2931 eV  133.41 nm  f=0.1180  <S**2>=0.000
      10 -> 14         0.69143

 Excited State   8:      Singlet-A      9.6080 eV  129.04 nm  f=0.0115  <S**2>=0.000
      10 -> 15        -0.10198
      10 -> 16         0.11235
      13 -> 15        -0.13055
      13 -> 17         0.65400
      13 -> 19        -0.12079

 Excited State   9:      Singlet-A     10.1074 eV  122.67 nm  f=0.0342  <S**2>=0.000
       9 -> 15        -0.10626
      11 -> 15        -0.30364
      11 -> 16        -0.15459
      11 -> 17        -0.23021
      12 -> 16         0.33077
      12 -> 17         0.12991
      12 -> 18         0.31033
      13 -> 14         0.10434

 Excited State  10:      Singlet-A     10.2248 eV  121.26 nm  f=0.0014  <S**2>=0.000
      10 -> 16         0.15600
      13 -> 17         0.10842
      13 -> 19         0.65113

 Excited State  11:      Singlet-A     10.3459 eV  119.84 nm  f=0.1090  <S**2>=0.000
      11 -> 15        -0.12336
      12 -> 15         0.64753
      12 -> 17         0.13384
      12 -> 18        -0.10005

 Excited State  12:      Singlet-A     10.8933 eV  113.82 nm  f=0.0031  <S**2>=0.000
       9 -> 14         0.14620
      13 -> 18         0.29412
      13 -> 20        -0.10555
      13 -> 21         0.60535

 Excited State  13:      Singlet-A     10.9862 eV  112.85 nm  f=0.0986  <S**2>=0.000
      10 -> 15        -0.10373
      10 -> 16         0.10632
      13 -> 20         0.66254

 Excited State  14:      Singlet-A     11.0087 eV  112.62 nm  f=0.1672  <S**2>=0.000
      11 -> 15         0.16980
      11 -> 16         0.40068
      12 -> 16         0.48182
      12 -> 19         0.13262

 Excited State  15:      Singlet-A     11.1524 eV  111.17 nm  f=0.0133  <S**2>=0.000
       8 -> 16         0.12820
       9 -> 14        -0.18515
       9 -> 15         0.11553
      10 -> 15         0.32269
      10 -> 16         0.13701
      11 -> 15         0.11993
      11 -> 16        -0.29367
      11 -> 19        -0.23132
      12 -> 16         0.10496
      12 -> 17        -0.18540
      12 -> 20         0.11633
      13 -> 21         0.10682

 The electronic state is 1-A.
 Alpha  occ. eigenvalues --   -1.91178  -1.17288  -0.92875  -0.82548  -0.78867
 Alpha  occ. eigenvalues --   -0.70680  -0.67970  -0.58373  -0.55972  -0.47362
 Alpha  occ. eigenvalues --   -0.45965  -0.43428  -0.32352
 Alpha virt. eigenvalues --    0.09556   0.18100   0.20494   0.26599   0.27929
 Alpha virt. eigenvalues --    0.29560   0.31681   0.33907   0.34458   0.42474
 Alpha virt. eigenvalues --    0.47268

 Mulliken charges:
               1
     1  C   -0.182426
     2  C   -2.042390
     3  O    3.313070
     4  C   -2.057009
     5  C   -0.129900
     6  H    0.210313
     7  H    0.329065
     8  H    0.343156
     9  H    0.216121
 Sum of Mulliken charges =   0.00000

 Dipole moment (field-independent basis, Debye):
    X=              3.3491    Y=             -9.3716    Z=             -0.4813  Tot=              9.9637
 N-N= 1.038147794215D+02 E-N=-1.690192334160D+02  KE=-1.550746483563D+01
 Orbital energies and kinetic energies (alpha):
                                 1                 2
   1         O                -1.911784         -1.375090
   2         O                -1.172880         -1.043113
   3         O                -0.928749         -0.879647
   4         O                -0.825478         -0.576780
   5         O                -0.788669         -0.700684
   6         O                -0.706804         -0.601957
   7         O                -0.679698         -0.532996

 Normal termination of Gaussian 09 at Tue Dec 15 17:09:34 2015.
