 Gaussian 09, Revision D.01,
 Gaussian 09:  ES64L-G09RevD.01 24-Apr-2013

 ------------------------------------------------------------
 #P AM1(Input,print) CIS(Singlets,NStates=15) pop(full) force
 ------------------------------------------------------------

 -----------------
 AM1-Reparam Input
 -----------------
 Symbolic Z-matrix:
 Charge =  0 Multiplicity = 1

                         Standard orientation:
 ---------------------------------------------------------------------
 Center     Atomic      Atomic             Coordinates (Angstroms)
 Number     Number       Type             X           Y           Z
 ---------------------------------------------------------------------
      1          6           0        0.700864    0.934248    0.006277
      2          6           0        1.108697   -0.337469   -0.004001
      3          8           0       -0.050307   -1.160973    0.005780
      4          6           0       -1.054767   -0.310436   -0.002874
      5          6           0       -0.677206    0.937314   -0.016136
      6          1           0       -1.415149    1.774369    0.062262
      7          1           0       -2.004087   -0.779762   -0.004379
      8          1           0        2.035659   -0.859894    0.004256
      9          1           0        1.320507    1.811136   -0.007975
 ---------------------------------------------------------------------

 SCF Done:  E(RAM1) =   1.77140693508     A.U. after   14 cycles

 Excitation energies and oscillator strengths:

 Excited State   1:      Singlet-A      5.4980 eV  225.51 nm  f=0.3105  <S**2>=0.000
      13 -> 14         0.69031
 This state for optimization and/or second-order correction.
 Total Energy, E(CIS) =   1.97345415848
 Copying the excited state density for this state as the 1-particle RhoCI density.

 Excited State   2:      Singlet-A      5.9404 eV  208.71 nm  f=0.0022  <S**2>=0.000
      11 -> 15         0.10228
      13 -> 15         0.66699
      13 -> 17         0.16208

 Excited State   3:      Singlet-A      6.7640 eV  183.30 nm  f=0.0025  <S**2>=0.000
      11 -> 16        -0.11110
      13 -> 16         0.63860
      13 -> 17         0.17153
      13 -> 20        -0.12148
      13 -> 21         0.11187

 Excited State   4:      Singlet-A      7.2477 eV  171.07 nm  f=0.0003  <S**2>=0.000
      12 -> 14         0.66702
      13 -> 21        -0.19170

 Excited State   5:      Singlet-A      7.5031 eV  165.24 nm  f=0.0172  <S**2>=0.000
      13 -> 15        -0.15556
      13 -> 16        -0.12500
      13 -> 17         0.62460
      13 -> 21        -0.17119

 Excited State   6:      Singlet-A      7.7667 eV  159.64 nm  f=0.0019  <S**2>=0.000
      12 -> 14         0.17547
      13 -> 16        -0.12405
      13 -> 17         0.17378
      13 -> 21         0.63070

 Excited State   7:      Singlet-A      8.0750 eV  153.54 nm  f=0.0019  <S**2>=0.000
      10 -> 14         0.55784
      11 -> 14        -0.39478
      13 -> 18         0.10261

 Excited State   8:      Singlet-A      8.4201 eV  147.25 nm  f=0.0015  <S**2>=0.000
      13 -> 16         0.10897
      13 -> 18         0.59526
      13 -> 19         0.27963
      13 -> 20         0.14294

 Excited State   9:      Singlet-A      8.5915 eV  144.31 nm  f=0.0044  <S**2>=0.000
      13 -> 18        -0.34206
      13 -> 19         0.52735
      13 -> 20         0.29001

 Excited State  10:      Singlet-A      8.8476 eV  140.13 nm  f=0.0530  <S**2>=0.000
      10 -> 14         0.37165
      11 -> 14         0.52773
      12 -> 15        -0.13027
      12 -> 16        -0.10155

 Excited State  11:      Singlet-A      9.0739 eV  136.64 nm  f=0.0869  <S**2>=0.000
      13 -> 19        -0.32428
      13 -> 20         0.58658

 Excited State  12:      Singlet-A      9.1933 eV  134.86 nm  f=0.0261  <S**2>=0.000
       8 -> 15         0.14649
       9 -> 15         0.15499
      10 -> 17         0.20974
      11 -> 17        -0.13231
      12 -> 15         0.48069
      12 -> 16        -0.15291
      12 -> 18         0.16148
      12 -> 21        -0.18554
      13 -> 20         0.12442

 Excited State  13:      Singlet-A      9.4827 eV  130.75 nm  f=0.0421  <S**2>=0.000
       7 -> 15        -0.11424
      11 -> 15         0.59407
      11 -> 17         0.15466
      12 -> 15         0.17319
      13 -> 15        -0.11570

 Excited State  14:      Singlet-A      9.6008 eV  129.14 nm  f=0.0897  <S**2>=0.000
      10 -> 15         0.50928
      10 -> 17         0.21176
      11 -> 14        -0.10521
      11 -> 15         0.13734
      12 -> 15        -0.27878

 Excited State  15:      Singlet-A      9.9588 eV  124.50 nm  f=0.1371  <S**2>=0.000
       8 -> 16        -0.13857
       9 -> 15         0.17739
      10 -> 14         0.11476
      10 -> 15         0.21141
      10 -> 19         0.21499
      11 -> 14         0.16668
      11 -> 19        -0.14106
      12 -> 15         0.14031
      12 -> 16         0.29941
      12 -> 17        -0.17541
      12 -> 18        -0.15490
      12 -> 19         0.16064
      12 -> 20        -0.14394
      12 -> 21         0.18912

 The electronic state is 1-A.
 Alpha  occ. eigenvalues --   -1.92311  -1.24899  -1.00510  -0.82201  -0.80937
 Alpha  occ. eigenvalues --   -0.68958  -0.64520  -0.53585  -0.51517  -0.42177
 Alpha  occ. eigenvalues --   -0.41944  -0.39951  -0.27342
 Alpha virt. eigenvalues --    0.14235   0.16980   0.20756   0.25077   0.27807
 Alpha virt. eigenvalues --    0.29535   0.29933   0.30729   0.36041   0.45367
 Alpha virt. eigenvalues --    0.49261

 Mulliken charges:
               1
     1  C   -0.074068
     2  C   -1.914507
     3  O    3.173191
     4  C   -1.922930
     5  C   -0.186888
     6  H    0.176815
     7  H    0.296670
     8  H    0.284205
     9  H    0.167510
 Sum of Mulliken charges =   0.00000

 Dipole moment (field-independent basis, Debye):
    X=             -1.1186    Y=            -10.8108    Z=              0.1967  Tot=             10.8703
 N-N= 1.046950815984D+02 E-N=-1.706194234998D+02  KE=-1.581084468483D+01
 Orbital energies and kinetic energies (alpha):
                                 1                 2
   1         O                -1.923108         -1.391160
   2         O                -1.248994         -1.121181
   3         O                -1.005105         -0.929558
   4         O                -0.822009         -0.633219
   5         O                -0.809375         -0.696611
   6         O                -0.689580         -0.581987
   7         O                -0.645202         -0.524522

 Normal termination of Gaussian 09 at Tue Dec 15 17:07:07 2015.
