 Gaussian 09, Revision D.01,
 Gaussian 09:  ES64L-G09RevD.01 24-Apr-2013

 ------------------------------------------------------------
 #P AM1(Input,print) CIS(Singlets,NStates=15) pop(full) force
 ------------------------------------------------------------

 -----------------
 AM1-Reparam Input
 -----------------
 Symbolic Z-matrix:
 Charge =  0 Multiplicity = 1

                         Standard orientation:
 ---------------------------------------------------------------------
 Center     Atomic      Atomic             Coordinates (Angstroms)
 Number     Number       Type             X           Y           Z
 ---------------------------------------------------------------------
      1          6           0        0.189453    1.179624   -0.007322
      2          6           0        1.110218    0.098785   -0.010080
      3          8           0        0.524540   -1.018994    0.021351
      4          6           0       -0.864042   -0.752405   -0.027256
      5          6           0       -1.003499    0.533802    0.034799
      6          1           0       -2.008220    1.067352   -0.039839
      7          1           0       -1.475100   -1.599951   -0.033952
      8          1           0        2.209512    0.142955   -0.033423
      9          1           0        0.484703    2.182759   -0.004430
 ---------------------------------------------------------------------

 SCF Done:  E(RAM1) =   2.61735115080     A.U. after   14 cycles

 Excitation energies and oscillator strengths:

 Excited State   1:      Singlet-A      5.3763 eV  230.61 nm  f=0.3358  <S**2>=0.000
      13 -> 14         0.69615
 This state for optimization and/or second-order correction.
 Total Energy, E(CIS) =   2.81492500083
 Copying the excited state density for this state as the 1-particle RhoCI density.

 Excited State   2:      Singlet-A      6.0640 eV  204.46 nm  f=0.0029  <S**2>=0.000
      13 -> 15         0.67402
      13 -> 17        -0.10659
      13 -> 18         0.11412

 Excited State   3:      Singlet-A      6.5405 eV  189.56 nm  f=0.0024  <S**2>=0.000
      12 -> 14         0.69091

 Excited State   4:      Singlet-A      6.9610 eV  178.11 nm  f=0.0019  <S**2>=0.000
      13 -> 16         0.66956
      13 -> 19         0.10517

 Excited State   5:      Singlet-A      7.5963 eV  163.22 nm  f=0.0033  <S**2>=0.000
      10 -> 14        -0.39165
      11 -> 14         0.56626

 Excited State   6:      Singlet-A      8.0766 eV  153.51 nm  f=0.0002  <S**2>=0.000
      13 -> 17         0.63807
      13 -> 18         0.18291
      13 -> 19         0.10516
      13 -> 21         0.11569

 Excited State   7:      Singlet-A      8.5869 eV  144.39 nm  f=0.0298  <S**2>=0.000
      10 -> 14         0.50455
      11 -> 14         0.34111
      12 -> 15         0.21193
      12 -> 17        -0.20282

 Excited State   8:      Singlet-A      9.0998 eV  136.25 nm  f=0.1204  <S**2>=0.000
       9 -> 15         0.13975
      10 -> 14        -0.22495
      10 -> 15        -0.16727
      11 -> 14        -0.16311
      11 -> 15        -0.11267
      11 -> 16         0.12703
      12 -> 15         0.45231
      12 -> 17        -0.16038
      13 -> 18        -0.26077

 Excited State   9:      Singlet-A      9.1276 eV  135.83 nm  f=0.0484  <S**2>=0.000
       7 -> 15         0.11331
      10 -> 14        -0.12379
      10 -> 15         0.23255
      11 -> 14        -0.10353
      11 -> 15         0.29660
      12 -> 15         0.22803
      13 -> 18         0.46375

 Excited State  10:      Singlet-A      9.5220 eV  130.21 nm  f=0.3036  <S**2>=0.000
      10 -> 15        -0.13323
      11 -> 15         0.23556
      12 -> 15        -0.18013
      12 -> 16         0.51567
      12 -> 17        -0.19401
      12 -> 19         0.15435

 Excited State  11:      Singlet-A      9.5890 eV  129.30 nm  f=0.0075  <S**2>=0.000
       9 -> 15         0.10418
      10 -> 15        -0.26184
      11 -> 15         0.49585
      11 -> 18         0.12474
      12 -> 16        -0.25317
      12 -> 17         0.12941
      12 -> 19        -0.10401
      13 -> 18        -0.15836

 Excited State  12:      Singlet-A      9.6989 eV  127.83 nm  f=0.0184  <S**2>=0.000
      10 -> 15        -0.23566
      10 -> 16        -0.21711
      11 -> 16        -0.18364
      13 -> 17        -0.18783
      13 -> 18         0.11941
      13 -> 19         0.52164

 Excited State  13:      Singlet-A      9.7559 eV  127.09 nm  f=0.0036  <S**2>=0.000
      10 -> 15         0.46472
      11 -> 15         0.14393
      13 -> 15         0.16780
      13 -> 18        -0.32581
      13 -> 19         0.29836

 Excited State  14:      Singlet-A      9.9368 eV  124.77 nm  f=0.0585  <S**2>=0.000
       9 -> 15         0.16271
      11 -> 16        -0.11278
      12 -> 15         0.20030
      12 -> 16         0.33661
      12 -> 17         0.46550
      12 -> 18         0.13563
      12 -> 20        -0.11848

 Excited State  15:      Singlet-A     10.5461 eV  117.56 nm  f=0.0006  <S**2>=0.000
       9 -> 14         0.68349

 The electronic state is 1-A.
 Alpha  occ. eigenvalues --   -1.86529  -1.15128  -0.88438  -0.79891  -0.75172
 Alpha  occ. eigenvalues --   -0.67000  -0.64894  -0.56703  -0.54032  -0.45407
 Alpha  occ. eigenvalues --   -0.44931  -0.41463  -0.31004
 Alpha virt. eigenvalues --    0.09723   0.14587   0.18937   0.24550   0.27098
 Alpha virt. eigenvalues --    0.29506   0.36000   0.40977   0.50146   0.57557
 Alpha virt. eigenvalues --    0.61663

 Mulliken charges:
               1
     1  C   -0.254153
     2  C   -2.068174
     3  O    3.426537
     4  C   -1.949014
     5  C   -0.114411
     6  H    0.207734
     7  H    0.255554
     8  H    0.306396
     9  H    0.189529
 Sum of Mulliken charges =   0.00000

 Dipole moment (field-independent basis, Debye):
    X=              5.2835    Y=             -9.5755    Z=              0.4874  Tot=             10.9474
 N-N= 1.048287761107D+02 E-N=-1.709841300320D+02  KE=-1.442691059323D+01
 Orbital energies and kinetic energies (alpha):
                                 1                 2
   1         O                -1.865286         -1.280706
   2         O                -1.151283         -0.985714
   3         O                -0.884380         -0.798853
   4         O                -0.798905         -0.522511
   5         O                -0.751720         -0.627496
   6         O                -0.670001         -0.544035
   7         O                -0.648936         -0.504328

 Normal termination of Gaussian 09 at Tue Dec 15 17:07:48 2015.
