 Gaussian 09, Revision D.01,
 Gaussian 09:  ES64L-G09RevD.01 24-Apr-2013

 ------------------------------------------------------------
 #P AM1(Input,print) CIS(Singlets,NStates=15) pop(full) force
 ------------------------------------------------------------

 -----------------
 AM1-Reparam Input
 -----------------
 Symbolic Z-matrix:
 Charge =  0 Multiplicity = 1

                         Standard orientation:
 ---------------------------------------------------------------------
 Center     Atomic      Atomic             Coordinates (Angstroms)
 Number     Number       Type             X           Y           Z
 ---------------------------------------------------------------------
      1          6           0        0.225668    1.175268    0.009621
      2          6           0        1.134246    0.127333   -0.014697
      3          8           0        0.512387   -1.068016    0.009717
      4          6           0       -0.839463   -0.714196   -0.009019
      5          6           0       -1.062685    0.545460   -0.011297
      6          1           0       -1.968830    1.034051    0.041291
      7          1           0       -1.511663   -1.649770    0.015622
      8          1           0        2.190800    0.169636    0.015316
      9          1           0        0.443995    2.187015    0.002382
 ---------------------------------------------------------------------

 SCF Done:  E(RAM1) =   2.58600712712     A.U. after   14 cycles

 Excitation energies and oscillator strengths:

 Excited State   1:      Singlet-A      5.2855 eV  234.57 nm  f=0.3436  <S**2>=0.000
      13 -> 14         0.69628
 This state for optimization and/or second-order correction.
 Total Energy, E(CIS) =   2.78024721994
 Copying the excited state density for this state as the 1-particle RhoCI density.

 Excited State   2:      Singlet-A      5.8780 eV  210.93 nm  f=0.0003  <S**2>=0.000
      11 -> 15         0.10912
      13 -> 15         0.68062
      13 -> 18         0.10119

 Excited State   3:      Singlet-A      6.2943 eV  196.98 nm  f=0.0026  <S**2>=0.000
      13 -> 16         0.66257
      13 -> 17         0.18414

 Excited State   4:      Singlet-A      6.8216 eV  181.75 nm  f=0.0002  <S**2>=0.000
      12 -> 14         0.69913

 Excited State   5:      Singlet-A      7.8088 eV  158.78 nm  f=0.0020  <S**2>=0.000
      13 -> 18         0.63126
      13 -> 20        -0.10461
      13 -> 21         0.25399

 Excited State   6:      Singlet-A      7.9852 eV  155.27 nm  f=0.0096  <S**2>=0.000
      10 -> 14         0.58204
      11 -> 14        -0.27305
      13 -> 17         0.26028

 Excited State   7:      Singlet-A      8.2138 eV  150.95 nm  f=0.0071  <S**2>=0.000
      10 -> 14        -0.25124
      11 -> 14         0.12660
      13 -> 16        -0.13531
      13 -> 17         0.61401

 Excited State   8:      Singlet-A      8.7160 eV  142.25 nm  f=0.0810  <S**2>=0.000
       8 -> 15        -0.16042
      10 -> 14        -0.21468
      11 -> 14        -0.42235
      12 -> 15         0.44443

 Excited State   9:      Singlet-A      8.7982 eV  140.92 nm  f=0.0001  <S**2>=0.000
      13 -> 19         0.68076

 Excited State  10:      Singlet-A      9.1172 eV  135.99 nm  f=0.2015  <S**2>=0.000
      10 -> 14         0.20263
      11 -> 14         0.44916
      12 -> 15         0.41524
      12 -> 16        -0.18471
      12 -> 18         0.12451

 Excited State  11:      Singlet-A      9.5453 eV  129.89 nm  f=0.0113  <S**2>=0.000
       9 -> 15        -0.10995
      10 -> 15        -0.13756
      10 -> 17        -0.12253
      11 -> 15         0.22372
      12 -> 15        -0.19033
      12 -> 16        -0.28230
      12 -> 18         0.18638
      13 -> 18         0.17623
      13 -> 20         0.29388
      13 -> 21        -0.27758

 Excited State  12:      Singlet-A      9.5777 eV  129.45 nm  f=0.0109  <S**2>=0.000
      10 -> 15        -0.18502
      10 -> 17        -0.11836
      12 -> 15        -0.17097
      12 -> 16        -0.25826
      12 -> 18         0.16301
      13 -> 18        -0.20306
      13 -> 20        -0.31524
      13 -> 21         0.36649

 Excited State  13:      Singlet-A      9.8141 eV  126.33 nm  f=0.0031  <S**2>=0.000
       7 -> 15        -0.13130
      10 -> 15         0.17994
      11 -> 15         0.59171
      11 -> 16         0.12646
      12 -> 16         0.14836
      13 -> 15        -0.13131
      13 -> 20        -0.11631

 Excited State  14:      Singlet-A      9.8765 eV  125.53 nm  f=0.0836  <S**2>=0.000
       9 -> 16         0.14003
      10 -> 15        -0.11713
      10 -> 16        -0.35657
      10 -> 17        -0.20111
      12 -> 16         0.41526
      12 -> 17         0.11595
      12 -> 18         0.17620
      12 -> 19        -0.14161
      13 -> 20         0.10654

 Excited State  15:      Singlet-A      9.9205 eV  124.98 nm  f=0.0750  <S**2>=0.000
      11 -> 16        -0.35536
      13 -> 20         0.42808
      13 -> 21         0.35582

 The electronic state is 1-A.
 Alpha  occ. eigenvalues --   -1.73153  -1.17130  -0.94558  -0.80791  -0.75973
 Alpha  occ. eigenvalues --   -0.67629  -0.64170  -0.53248  -0.49681  -0.43637
 Alpha  occ. eigenvalues --   -0.43252  -0.39633  -0.27408
 Alpha virt. eigenvalues --    0.12640   0.16367   0.18786   0.27104   0.28682
 Alpha virt. eigenvalues --    0.30305   0.32871   0.34238   0.38876   0.48776
 Alpha virt. eigenvalues --    0.52126

 Mulliken charges:
               1
     1  C   -0.121281
     2  C   -1.941516
     3  O    3.213280
     4  C   -1.863646
     5  C   -0.011448
     6  H    0.105703
     7  H    0.237465
     8  H    0.266683
     9  H    0.114760
 Sum of Mulliken charges =   0.00000

 Dipole moment (field-independent basis, Debye):
    X=              4.4855    Y=            -10.4551    Z=              0.3990  Tot=             11.3836
 N-N= 1.039438565987D+02 E-N=-1.690469516607D+02  KE=-1.506350007579D+01
 Orbital energies and kinetic energies (alpha):
                                 1                 2
   1         O                -1.731530         -1.227245
   2         O                -1.171296         -1.036358
   3         O                -0.945580         -0.880229
   4         O                -0.807911         -0.605596
   5         O                -0.759733         -0.677078
   6         O                -0.676286         -0.574464
   7         O                -0.641697         -0.526998

 Normal termination of Gaussian 09 at Tue Dec 15 17:06:12 2015.
