 Gaussian 09, Revision D.01,
 Gaussian 09:  ES64L-G09RevD.01 24-Apr-2013

 ------------------------------------------------------------
 #P AM1(Input,print) CIS(Singlets,NStates=15) pop(full) force
 ------------------------------------------------------------

 -----------------
 AM1-Reparam Input
 -----------------
 Symbolic Z-matrix:
 Charge =  0 Multiplicity = 1

                         Standard orientation:
 ---------------------------------------------------------------------
 Center     Atomic      Atomic             Coordinates (Angstroms)
 Number     Number       Type             X           Y           Z
 ---------------------------------------------------------------------
      1          6           0        0.569653    1.043992    0.004934
      2          6           0        1.183941   -0.220889   -0.006324
      3          8           0        0.135734   -1.131821   -0.002770
      4          6           0       -1.038320   -0.454336    0.013365
      5          6           0       -0.867145    0.820923   -0.009065
      6          1           0       -1.586914    1.554453   -0.018553
      7          1           0       -1.864804   -1.070508   -0.002558
      8          1           0        2.119918   -0.536569    0.003201
      9          1           0        1.157157    1.969053    0.022617
 ---------------------------------------------------------------------

 SCF Done:  E(RAM1) =   1.13832407731     A.U. after   14 cycles

 Excitation energies and oscillator strengths:

 Excited State   1:      Singlet-A      5.3797 eV  230.47 nm  f=0.2035  <S**2>=0.000
      12 -> 15         0.13873
      13 -> 14         0.68059
 This state for optimization and/or second-order correction.
 Total Energy, E(CIS) =   1.33602542526
 Copying the excited state density for this state as the 1-particle RhoCI density.

 Excited State   2:      Singlet-A      6.3345 eV  195.73 nm  f=0.0039  <S**2>=0.000
      13 -> 16         0.66432
      13 -> 17         0.17277

 Excited State   3:      Singlet-A      6.7621 eV  183.35 nm  f=0.0197  <S**2>=0.000
      12 -> 14        -0.34680
      13 -> 15         0.60109

 Excited State   4:      Singlet-A      6.8535 eV  180.91 nm  f=0.0000  <S**2>=0.000
      13 -> 16        -0.15859
      13 -> 17         0.64617
      13 -> 18        -0.15600
      13 -> 21        -0.14166

 Excited State   5:      Singlet-A      7.2281 eV  171.53 nm  f=0.0007  <S**2>=0.000
       9 -> 14         0.16562
      11 -> 14         0.67743

 Excited State   6:      Singlet-A      7.8342 eV  158.26 nm  f=0.0023  <S**2>=0.000
      10 -> 14         0.64182
      11 -> 15         0.24181

 Excited State   7:      Singlet-A      7.9736 eV  155.49 nm  f=0.2602  <S**2>=0.000
      12 -> 14         0.59101
      13 -> 15         0.31886

 Excited State   8:      Singlet-A      8.0484 eV  154.05 nm  f=0.0022  <S**2>=0.000
      12 -> 16        -0.13937
      13 -> 17         0.13042
      13 -> 18         0.63156
      13 -> 19         0.10650
      13 -> 22        -0.12542
      13 -> 24         0.12373

 Excited State   9:      Singlet-A      8.2857 eV  149.64 nm  f=0.0014  <S**2>=0.000
      13 -> 18        -0.12334
      13 -> 19         0.65835
      13 -> 22         0.10085

 Excited State  10:      Singlet-A      8.3552 eV  148.39 nm  f=0.0197  <S**2>=0.000
       6 -> 15        -0.10771
       9 -> 15        -0.19507
      10 -> 14        -0.26623
      11 -> 15         0.59782

 Excited State  11:      Singlet-A      8.6522 eV  143.30 nm  f=0.0017  <S**2>=0.000
      12 -> 16         0.59360
      12 -> 17         0.29038
      12 -> 19         0.10262
      13 -> 18         0.10560

 Excited State  12:      Singlet-A      8.7888 eV  141.07 nm  f=0.2037  <S**2>=0.000
       9 -> 16         0.11780
       9 -> 17        -0.10996
      11 -> 17        -0.10140
      12 -> 15         0.63014
      13 -> 14        -0.12657

 Excited State  13:      Singlet-A      9.1546 eV  135.43 nm  f=0.0568  <S**2>=0.000
       9 -> 16        -0.17962
       9 -> 17        -0.10506
      10 -> 17         0.20484
      11 -> 16         0.52931
      11 -> 17         0.20189
      11 -> 19         0.14258

 Excited State  14:      Singlet-A      9.1810 eV  135.04 nm  f=0.0028  <S**2>=0.000
       7 -> 16         0.11123
      12 -> 16        -0.22390
      12 -> 17         0.49028
      13 -> 20        -0.39447
      13 -> 21         0.10136

 Excited State  15:      Singlet-A      9.3335 eV  132.84 nm  f=0.0004  <S**2>=0.000
       9 -> 14         0.64497
      10 -> 15        -0.11138
      11 -> 14        -0.15908
      12 -> 17         0.10791

 The electronic state is 1-A.
 Alpha  occ. eigenvalues --   -1.82685  -1.19440  -1.01218  -0.88042  -0.81738
 Alpha  occ. eigenvalues --   -0.74683  -0.71838  -0.62351  -0.56395  -0.52525
 Alpha  occ. eigenvalues --   -0.49719  -0.47896  -0.38172
 Alpha virt. eigenvalues --    0.02823   0.08827   0.09879   0.11761   0.18006
 Alpha virt. eigenvalues --    0.18967   0.20048   0.21891   0.26001   0.26833
 Alpha virt. eigenvalues --    0.27656

 Mulliken charges:
               1
     1  C   -0.143129
     2  C   -1.239186
     3  O    2.136363
     4  C   -1.220670
     5  C   -0.131810
     6  H    0.108702
     7  H    0.193352
     8  H    0.179977
     9  H    0.116401
 Sum of Mulliken charges =   0.00000

 Dipole moment (field-independent basis, Debye):
    X=              0.3463    Y=             -7.0683    Z=             -0.0541  Tot=              7.0770
 N-N= 1.045947994583D+02 E-N=-1.713588074116D+02  KE=-1.502011978779D+01
 Orbital energies and kinetic energies (alpha):
                                 1                 2
   1         O                -1.826850         -1.239175
   2         O                -1.194395         -0.965254
   3         O                -1.012175         -0.836149
   4         O                -0.880421         -0.629854
   5         O                -0.817378         -0.692451
   6         O                -0.746833         -0.589342
   7         O                -0.718378         -0.511263

 Normal termination of Gaussian 09 at Tue Dec 15 17:05:37 2015.
