 Gaussian 09, Revision D.01,
 Gaussian 09:  ES64L-G09RevD.01 24-Apr-2013

 ------------------------------------------------------------
 #P AM1(Input,print) CIS(Singlets,NStates=15) pop(full) force
 ------------------------------------------------------------

 -----------------
 AM1-Reparam Input
 -----------------
 Symbolic Z-matrix:
 Charge =  0 Multiplicity = 1

                         Standard orientation:
 ---------------------------------------------------------------------
 Center     Atomic      Atomic             Coordinates (Angstroms)
 Number     Number       Type             X           Y           Z
 ---------------------------------------------------------------------
      1          6           0        0.225668    1.175268    0.009621
      2          6           0        1.134246    0.127333   -0.014697
      3          8           0        0.512387   -1.068016    0.009717
      4          6           0       -0.839463   -0.714196   -0.009019
      5          6           0       -1.062685    0.545460   -0.011297
      6          1           0       -1.968830    1.034051    0.041291
      7          1           0       -1.511663   -1.649770    0.015622
      8          1           0        2.190800    0.169636    0.015316
      9          1           0        0.443995    2.187015    0.002382
 ---------------------------------------------------------------------

 SCF Done:  E(RAM1) =   1.42717241270     A.U. after   13 cycles

 Excitation energies and oscillator strengths:

 Excited State   1:      Singlet-A      5.7943 eV  213.98 nm  f=0.0107  <S**2>=0.000
      12 -> 15         0.11933
      13 -> 14        -0.14892
      13 -> 15         0.66615
 This state for optimization and/or second-order correction.
 Total Energy, E(CIS) =   1.64011004295
 Copying the excited state density for this state as the 1-particle RhoCI density.

 Excited State   2:      Singlet-A      5.9047 eV  209.98 nm  f=0.2906  <S**2>=0.000
      13 -> 14         0.67669
      13 -> 15         0.14665

 Excited State   3:      Singlet-A      6.2814 eV  197.38 nm  f=0.0007  <S**2>=0.000
      12 -> 16        -0.10971
      13 -> 16         0.65906
      13 -> 18        -0.16284
      13 -> 20        -0.11395

 Excited State   4:      Singlet-A      7.3936 eV  167.69 nm  f=0.0003  <S**2>=0.000
      11 -> 14         0.69056

 Excited State   5:      Singlet-A      7.7133 eV  160.74 nm  f=0.0112  <S**2>=0.000
      13 -> 16         0.12213
      13 -> 18         0.64155
      13 -> 19         0.19320

 Excited State   6:      Singlet-A      7.9310 eV  156.33 nm  f=0.0000  <S**2>=0.000
      12 -> 15        -0.11731
      13 -> 16         0.10313
      13 -> 18         0.17429
      13 -> 19        -0.42392
      13 -> 21         0.23876
      13 -> 22         0.43007

 Excited State   7:      Singlet-A      8.2605 eV  150.09 nm  f=0.0070  <S**2>=0.000
      11 -> 15        -0.11461
      12 -> 14         0.44838
      13 -> 17         0.51651

 Excited State   8:      Singlet-A      8.5011 eV  145.85 nm  f=0.0016  <S**2>=0.000
      10 -> 14         0.67380
      13 -> 20         0.13342

 Excited State   9:      Singlet-A      8.6683 eV  143.03 nm  f=0.0003  <S**2>=0.000
      12 -> 15        -0.14179
      12 -> 16        -0.10256
      13 -> 19         0.22364
      13 -> 20         0.50654
      13 -> 21         0.36669

 Excited State  10:      Singlet-A      8.8258 eV  140.48 nm  f=0.0098  <S**2>=0.000
      10 -> 14         0.10696
      12 -> 15        -0.19679
      13 -> 19         0.44737
      13 -> 20        -0.29036
      13 -> 21         0.12995
      13 -> 22         0.35131

 Excited State  11:      Singlet-A      9.0277 eV  137.34 nm  f=0.1516  <S**2>=0.000
       8 -> 15        -0.16058
       9 -> 15        -0.11088
      11 -> 15         0.43724
      11 -> 16        -0.16303
      12 -> 14        -0.26878
      13 -> 17         0.34014

 Excited State  12:      Singlet-A      9.0507 eV  136.99 nm  f=0.0023  <S**2>=0.000
      12 -> 15         0.53111
      12 -> 16         0.27913
      13 -> 15        -0.10063
      13 -> 16         0.11931
      13 -> 19         0.10406
      13 -> 21         0.21290
      13 -> 22         0.15811

 Excited State  13:      Singlet-A      9.1513 eV  135.48 nm  f=0.0370  <S**2>=0.000
      12 -> 15        -0.25396
      12 -> 16         0.43465
      13 -> 20        -0.17283
      13 -> 21         0.29825
      13 -> 22        -0.27267
      13 -> 23         0.11596

 Excited State  14:      Singlet-A      9.3051 eV  133.24 nm  f=0.3649  <S**2>=0.000
       8 -> 15        -0.14387
      11 -> 15         0.37256
      11 -> 16        -0.12059
      12 -> 14         0.44875
      13 -> 17        -0.28135

 Excited State  15:      Singlet-A      9.4317 eV  131.45 nm  f=0.0280  <S**2>=0.000
      12 -> 15        -0.17145
      12 -> 16         0.38644
      13 -> 20         0.29708
      13 -> 21        -0.35847
      13 -> 22         0.24592

 The electronic state is 1-A.
 Alpha  occ. eigenvalues --   -1.88665  -1.20469  -0.95201  -0.78695  -0.77532
 Alpha  occ. eigenvalues --   -0.67679  -0.61839  -0.48672  -0.47377  -0.40244
 Alpha  occ. eigenvalues --   -0.36806  -0.36702  -0.23531
 Alpha virt. eigenvalues --    0.18519   0.20403   0.22650   0.29903   0.30205
 Alpha virt. eigenvalues --    0.32455   0.34282   0.35317   0.36727   0.40887
 Alpha virt. eigenvalues --    0.45183

 Mulliken charges:
               1
     1  C   -0.116336
     2  C   -1.555634
     3  O    2.753237
     4  C   -1.478568
     5  C   -0.010071
     6  H    0.053810
     7  H    0.123975
     8  H    0.167825
     9  H    0.061762
 Sum of Mulliken charges =   0.00000

 Dipole moment (field-independent basis, Debye):
    X=              4.0857    Y=             -9.2489    Z=              0.3240  Tot=             10.1164
 N-N= 1.037990857096D+02 E-N=-1.703843819856D+02  KE=-1.589116967045D+01
 Orbital energies and kinetic energies (alpha):
                                 1                 2
   1         O                -1.886650         -1.376238
   2         O                -1.204686         -1.099325
   3         O                -0.952014         -0.893272
   4         O                -0.786951         -0.620452
   5         O                -0.775321         -0.696638
   6         O                -0.676791         -0.628531
   7         O                -0.618390         -0.548156

 Normal termination of Gaussian 09 at Tue Dec 15 17:07:54 2015.
