 Gaussian 09, Revision D.01,
 Gaussian 09:  ES64L-G09RevD.01 24-Apr-2013

 ------------------------------------------------------------
 #P AM1(Input,print) CIS(Singlets,NStates=15) pop(full) force
 ------------------------------------------------------------

 -----------------
 AM1-Reparam Input
 -----------------
 Symbolic Z-matrix:
 Charge =  0 Multiplicity = 1

                         Standard orientation:
 ---------------------------------------------------------------------
 Center     Atomic      Atomic             Coordinates (Angstroms)
 Number     Number       Type             X           Y           Z
 ---------------------------------------------------------------------
      1          6           0        0.700864    0.934248    0.006277
      2          6           0        1.108697   -0.337469   -0.004001
      3          8           0       -0.050307   -1.160973    0.005780
      4          6           0       -1.054767   -0.310436   -0.002874
      5          6           0       -0.677206    0.937314   -0.016136
      6          1           0       -1.415149    1.774369    0.062262
      7          1           0       -2.004087   -0.779762   -0.004379
      8          1           0        2.035659   -0.859894    0.004256
      9          1           0        1.320507    1.811136   -0.007975
 ---------------------------------------------------------------------

 SCF Done:  E(RAM1) =   2.10677452577     A.U. after   13 cycles

 Excitation energies and oscillator strengths:

 Excited State   1:      Singlet-A      5.4957 eV  225.60 nm  f=0.3189  <S**2>=0.000
      13 -> 14         0.69194
 This state for optimization and/or second-order correction.
 Total Energy, E(CIS) =   2.30873896271
 Copying the excited state density for this state as the 1-particle RhoCI density.

 Excited State   2:      Singlet-A      6.4769 eV  191.42 nm  f=0.0051  <S**2>=0.000
      10 -> 15         0.10379
      13 -> 15         0.65688
      13 -> 17         0.20632

 Excited State   3:      Singlet-A      6.9747 eV  177.76 nm  f=0.0010  <S**2>=0.000
      12 -> 14         0.69400

 Excited State   4:      Singlet-A      7.2187 eV  171.75 nm  f=0.0064  <S**2>=0.000
      10 -> 16        -0.10363
      13 -> 16         0.63773
      13 -> 18        -0.22866

 Excited State   5:      Singlet-A      7.6358 eV  162.37 nm  f=0.0065  <S**2>=0.000
      11 -> 14         0.69632

 Excited State   6:      Singlet-A      8.1208 eV  152.67 nm  f=0.0019  <S**2>=0.000
      13 -> 15        -0.13952
      13 -> 16         0.12917
      13 -> 17         0.27826
      13 -> 18         0.38423
      13 -> 19         0.30547
      13 -> 20         0.18786
      13 -> 21        -0.29508

 Excited State   7:      Singlet-A      8.4281 eV  147.11 nm  f=0.0135  <S**2>=0.000
      10 -> 16         0.10272
      13 -> 15        -0.14815
      13 -> 17         0.58637
      13 -> 18        -0.11638
      13 -> 19        -0.26156
      13 -> 21         0.13926

 Excited State   8:      Singlet-A      8.9423 eV  138.65 nm  f=0.0869  <S**2>=0.000
      10 -> 14         0.66815

 Excited State   9:      Singlet-A      9.1432 eV  135.60 nm  f=0.0036  <S**2>=0.000
      10 -> 16         0.14003
      13 -> 16        -0.16456
      13 -> 17         0.11091
      13 -> 18        -0.42551
      13 -> 19         0.49340

 Excited State  10:      Singlet-A      9.4213 eV  131.60 nm  f=0.0052  <S**2>=0.000
       9 -> 15         0.18157
      10 -> 14        -0.10280
      11 -> 15        -0.19793
      11 -> 16        -0.18314
      11 -> 17        -0.25023
      12 -> 15         0.36241
      12 -> 16        -0.13461
      12 -> 18         0.25410
      12 -> 19         0.15376

 Excited State  11:      Singlet-A      9.6387 eV  128.63 nm  f=0.0201  <S**2>=0.000
      12 -> 15         0.12531
      13 -> 18        -0.25962
      13 -> 19        -0.27597
      13 -> 20         0.42954
      13 -> 21        -0.36792

 Excited State  12:      Singlet-A      9.6609 eV  128.34 nm  f=0.1284  <S**2>=0.000
      11 -> 15         0.45781
      11 -> 17         0.18544
      12 -> 15         0.41352
      12 -> 17         0.14897

 Excited State  13:      Singlet-A      9.9953 eV  124.04 nm  f=0.0657  <S**2>=0.000
      10 -> 15         0.13506
      13 -> 20         0.48575
      13 -> 21         0.46864

 Excited State  14:      Singlet-A     10.2152 eV  121.37 nm  f=0.0037  <S**2>=0.000
       7 -> 15        -0.13204
      10 -> 15         0.59212
      10 -> 16         0.11219
      10 -> 17         0.10721
      12 -> 15        -0.10350
      12 -> 16        -0.15085
      13 -> 15        -0.12749
      13 -> 21        -0.11588

 Excited State  15:      Singlet-A     10.2597 eV  120.85 nm  f=0.1390  <S**2>=0.000
      10 -> 15         0.18766
      11 -> 16        -0.20691
      11 -> 18         0.10479
      12 -> 16         0.53840
      12 -> 18        -0.19435
      12 -> 20        -0.14020

 The electronic state is 1-A.
 Alpha  occ. eigenvalues --   -1.94953  -1.22719  -0.96858  -0.82262  -0.79343
 Alpha  occ. eigenvalues --   -0.68943  -0.66200  -0.54484  -0.53252  -0.43858
 Alpha  occ. eigenvalues --   -0.42159  -0.40563  -0.28977
 Alpha virt. eigenvalues --    0.12563   0.18074   0.21732   0.25869   0.28380
 Alpha virt. eigenvalues --    0.29622   0.31195   0.32073   0.35181   0.44440
 Alpha virt. eigenvalues --    0.48092

 Mulliken charges:
               1
     1  C   -0.157181
     2  C   -1.981766
     3  O    3.177258
     4  C   -1.992464
     5  C   -0.276814
     6  H    0.262773
     7  H    0.366938
     8  H    0.351272
     9  H    0.249984
 Sum of Mulliken charges =   0.00000

 Dipole moment (field-independent basis, Debye):
    X=             -1.1915    Y=            -10.6355    Z=              0.2202  Tot=             10.7043
 N-N= 1.051246742640D+02 E-N=-1.709768879346D+02  KE=-1.556749045915D+01
 Orbital energies and kinetic energies (alpha):
                                 1                 2
   1         O                -1.949528         -1.397314
   2         O                -1.227189         -1.090090
   3         O                -0.968581         -0.888015
   4         O                -0.822625         -0.592510
   5         O                -0.793429         -0.680989
   6         O                -0.689426         -0.568480
   7         O                -0.662001         -0.533202

 Normal termination of Gaussian 09 at Tue Dec 15 17:07:27 2015.
