 Gaussian 09, Revision D.01,
 Gaussian 09:  ES64L-G09RevD.01 24-Apr-2013

 ------------------------------------------------------------
 #P AM1(Input,print) CIS(Singlets,NStates=15) pop(full) force
 ------------------------------------------------------------

 -----------------
 AM1-Reparam Input
 -----------------
 Symbolic Z-matrix:
 Charge =  0 Multiplicity = 1

                         Standard orientation:
 ---------------------------------------------------------------------
 Center     Atomic      Atomic             Coordinates (Angstroms)
 Number     Number       Type             X           Y           Z
 ---------------------------------------------------------------------
      1          6           0        0.924730    0.802116   -0.001519
      2          6           0        0.978904   -0.505533   -0.017753
      3          8           0       -0.216221   -1.150469    0.005277
      4          6           0       -1.100722   -0.163239    0.001189
      5          6           0       -0.573084    1.091656    0.000874
      6          1           0       -1.070051    1.991082   -0.016060
      7          1           0       -2.123968   -0.465702    0.005121
      8          1           0        1.856634   -1.238558    0.028856
      9          1           0        1.688186    1.566931    0.043121
 ---------------------------------------------------------------------

 SCF Done:  E(RAM1) =   1.41381527490     A.U. after   13 cycles

 Excitation energies and oscillator strengths:

 Excited State   1:      Singlet-A      5.5460 eV  223.56 nm  f=0.2735  <S**2>=0.000
      13 -> 14         0.65251
      13 -> 15        -0.22717
 This state for optimization and/or second-order correction.
 Total Energy, E(CIS) =   1.61762695650
 Copying the excited state density for this state as the 1-particle RhoCI density.

 Excited State   2:      Singlet-A      5.6205 eV  220.59 nm  f=0.0398  <S**2>=0.000
      13 -> 14         0.22811
      13 -> 15         0.63250
      13 -> 16        -0.12855

 Excited State   3:      Singlet-A      5.8688 eV  211.26 nm  f=0.0014  <S**2>=0.000
      13 -> 15         0.13435
      13 -> 16         0.65827
      13 -> 17        -0.12778
      13 -> 20         0.13643

 Excited State   4:      Singlet-A      7.0291 eV  176.39 nm  f=0.0002  <S**2>=0.000
      12 -> 14         0.69206

 Excited State   5:      Singlet-A      7.4957 eV  165.41 nm  f=0.0000  <S**2>=0.000
      13 -> 16        -0.14306
      13 -> 17        -0.29474
      13 -> 19         0.23480
      13 -> 20         0.42023
      13 -> 21         0.18033
      13 -> 22        -0.32051

 Excited State   6:      Singlet-A      7.6053 eV  163.02 nm  f=0.0088  <S**2>=0.000
      13 -> 17         0.58573
      13 -> 19         0.30346
      13 -> 20         0.12127
      13 -> 21         0.10347
      13 -> 22        -0.10621

 Excited State   7:      Singlet-A      8.2788 eV  149.76 nm  f=0.0099  <S**2>=0.000
      11 -> 14         0.54768
      12 -> 15         0.12385
      13 -> 18         0.40383

 Excited State   8:      Singlet-A      8.3364 eV  148.73 nm  f=0.0019  <S**2>=0.000
      13 -> 17        -0.17499
      13 -> 19         0.47704
      13 -> 20        -0.43714
      13 -> 22        -0.16240

 Excited State   9:      Singlet-A      8.5757 eV  144.58 nm  f=0.0001  <S**2>=0.000
      10 -> 14         0.47322
      13 -> 19        -0.22233
      13 -> 20        -0.17915
      13 -> 21         0.23754
      13 -> 22        -0.33718

 Excited State  10:      Singlet-A      8.6448 eV  143.42 nm  f=0.0003  <S**2>=0.000
      10 -> 14         0.49233
      13 -> 19         0.24282
      13 -> 20         0.15120
      13 -> 22         0.40180

 Excited State  11:      Singlet-A      8.9050 eV  139.23 nm  f=0.0335  <S**2>=0.000
      11 -> 15         0.56290
      12 -> 15         0.12635
      13 -> 20        -0.12419
      13 -> 21         0.26356
      13 -> 22         0.19518

 Excited State  12:      Singlet-A      8.9665 eV  138.27 nm  f=0.0454  <S**2>=0.000
      11 -> 15        -0.28860
      11 -> 16        -0.33112
      13 -> 21         0.47604
      13 -> 22         0.15612

 Excited State  13:      Singlet-A      9.0697 eV  136.70 nm  f=0.2453  <S**2>=0.000
       8 -> 15        -0.20247
      12 -> 15         0.48906
      12 -> 16        -0.26778
      13 -> 18        -0.25144

 Excited State  14:      Singlet-A      9.1914 eV  134.89 nm  f=0.0075  <S**2>=0.000
      11 -> 15        -0.16309
      11 -> 16         0.56633
      13 -> 21         0.26897
      13 -> 22         0.11934

 Excited State  15:      Singlet-A      9.2942 eV  133.40 nm  f=0.3505  <S**2>=0.000
      11 -> 14        -0.39561
      12 -> 15         0.16922
      12 -> 16        -0.12829
      13 -> 18         0.48499

 The electronic state is 1-A.
 Alpha  occ. eigenvalues --   -1.90184  -1.17830  -0.95848  -0.79552  -0.76061
 Alpha  occ. eigenvalues --   -0.67982  -0.62199  -0.48357  -0.47619  -0.41787
 Alpha  occ. eigenvalues --   -0.37336  -0.36640  -0.22942
 Alpha virt. eigenvalues --    0.17026   0.19877   0.21373   0.30257   0.31352
 Alpha virt. eigenvalues --    0.32054   0.33475   0.34275   0.35650   0.41892
 Alpha virt. eigenvalues --    0.46556

 Mulliken charges:
               1
     1  C   -0.042400
     2  C   -1.485550
     3  O    2.752720
     4  C   -1.529104
     5  C   -0.106699
     6  H    0.063489
     7  H    0.156067
     8  H    0.134409
     9  H    0.057068
 Sum of Mulliken charges =   0.00000

 Dipole moment (field-independent basis, Debye):
    X=             -1.6990    Y=             -9.8282    Z=              0.2226  Tot=              9.9764
 N-N= 1.036396929835D+02 E-N=-1.700999493394D+02  KE=-1.586504125135D+01
 Orbital energies and kinetic energies (alpha):
                                 1                 2
   1         O                -1.901845         -1.397041
   2         O                -1.178303         -1.071895
   3         O                -0.958481         -0.880145
   4         O                -0.795519         -0.633241
   5         O                -0.760612         -0.692252
   6         O                -0.679820         -0.616264
   7         O                -0.621992         -0.540570

 Normal termination of Gaussian 09 at Tue Dec 15 17:08:02 2015.
