 Gaussian 09, Revision D.01,
 Gaussian 09:  ES64L-G09RevD.01 24-Apr-2013

 ------------------------------------------------------------
 #P AM1(Input,print) CIS(Singlets,NStates=15) pop(full) force
 ------------------------------------------------------------

 -----------------
 AM1-Reparam Input
 -----------------
 Symbolic Z-matrix:
 Charge =  0 Multiplicity = 1

                         Standard orientation:
 ---------------------------------------------------------------------
 Center     Atomic      Atomic             Coordinates (Angstroms)
 Number     Number       Type             X           Y           Z
 ---------------------------------------------------------------------
      1          6           0       -0.255349    1.154326   -0.018917
      2          6           0       -1.171603    0.043826    0.001751
      3          8           0       -0.444608   -1.028435    0.007647
      4          6           0        0.888982   -0.700744   -0.033743
      5          6           0        0.990899    0.587051    0.036535
      6          1           0        1.995673    1.179372   -0.013098
      7          1           0        1.550679   -1.601472    0.026153
      8          1           0       -2.157597    0.016672    0.021472
      9          1           0       -0.549466    2.126148   -0.009459
 ---------------------------------------------------------------------

 SCF Done:  E(RAM1) =   1.83623292491     A.U. after   14 cycles

 Excitation energies and oscillator strengths:

 Excited State   1:      Singlet-A      5.7305 eV  216.36 nm  f=0.3207  <S**2>=0.000
      13 -> 14         0.68634
 This state for optimization and/or second-order correction.
 Total Energy, E(CIS) =   2.04682460369
 Copying the excited state density for this state as the 1-particle RhoCI density.

 Excited State   2:      Singlet-A      6.8036 eV  182.23 nm  f=0.0102  <S**2>=0.000
      13 -> 15         0.62985
      13 -> 16        -0.27422

 Excited State   3:      Singlet-A      7.1780 eV  172.73 nm  f=0.0000  <S**2>=0.000
      10 -> 15         0.10528
      13 -> 15         0.26610
      13 -> 16         0.61385
      13 -> 18        -0.10276
      13 -> 19        -0.14221

 Excited State   4:      Singlet-A      7.5084 eV  165.13 nm  f=0.0015  <S**2>=0.000
      12 -> 14         0.69885

 Excited State   5:      Singlet-A      8.3006 eV  149.37 nm  f=0.0037  <S**2>=0.000
      10 -> 14        -0.23165
      11 -> 14         0.62733
      13 -> 17        -0.14462
      13 -> 18         0.11103

 Excited State   6:      Singlet-A      8.4525 eV  146.68 nm  f=0.0023  <S**2>=0.000
      11 -> 14        -0.18561
      13 -> 17        -0.41526
      13 -> 18         0.46967
      13 -> 20        -0.11130
      13 -> 21         0.19631

 Excited State   7:      Singlet-A      9.1456 eV  135.57 nm  f=0.0304  <S**2>=0.000
      10 -> 14         0.55669
      11 -> 14         0.20204
      11 -> 15         0.15998
      12 -> 16         0.15767
      12 -> 17         0.22227

 Excited State   8:      Singlet-A      9.2659 eV  133.81 nm  f=0.0068  <S**2>=0.000
      10 -> 16         0.15247
      13 -> 17         0.49855
      13 -> 18         0.38712
      13 -> 19         0.21673

 Excited State   9:      Singlet-A      9.7532 eV  127.12 nm  f=0.3070  <S**2>=0.000
       9 -> 16        -0.13675
      10 -> 14         0.28617
      11 -> 14         0.11983
      11 -> 15        -0.24981
      11 -> 18         0.20270
      12 -> 15         0.37387
      12 -> 17        -0.24630
      13 -> 14        -0.12644

 Excited State  10:      Singlet-A      9.9266 eV  124.90 nm  f=0.0024  <S**2>=0.000
      10 -> 15         0.25673
      10 -> 16        -0.16461
      11 -> 15         0.19633
      11 -> 16        -0.14528
      13 -> 18        -0.17389
      13 -> 19         0.52162
      13 -> 21         0.10102

 Excited State  11:      Singlet-A      9.9947 eV  124.05 nm  f=0.0999  <S**2>=0.000
      10 -> 14        -0.14549
      11 -> 15         0.11070
      12 -> 15         0.44699
      12 -> 16         0.44483
      12 -> 18        -0.13202

 Excited State  12:      Singlet-A     10.2113 eV  121.42 nm  f=0.0776  <S**2>=0.000
      10 -> 15         0.11471
      10 -> 16        -0.15567
      11 -> 15        -0.32995
      11 -> 16         0.40577
      11 -> 19        -0.13778
      12 -> 15        -0.13900
      12 -> 16         0.29143
      12 -> 17         0.11028
      13 -> 19         0.13664

 Excited State  13:      Singlet-A     10.4553 eV  118.59 nm  f=0.0050  <S**2>=0.000
      10 -> 15         0.43983
      10 -> 16        -0.26529
      11 -> 15         0.13281
      12 -> 17         0.11920
      13 -> 16        -0.14725
      13 -> 17         0.14564
      13 -> 19        -0.28978
      13 -> 20        -0.18162

 Excited State  14:      Singlet-A     10.6068 eV  116.89 nm  f=0.0268  <S**2>=0.000
       8 -> 16        -0.10885
       9 -> 15         0.13464
      12 -> 15         0.19781
      12 -> 16        -0.25930
      12 -> 17         0.32592
      12 -> 18        -0.13533
      12 -> 19         0.16003
      13 -> 20         0.21634
      13 -> 21        -0.27186

 Excited State  15:      Singlet-A     10.6885 eV  116.00 nm  f=0.0225  <S**2>=0.000
      10 -> 15        -0.17676
      12 -> 15         0.10067
      12 -> 16        -0.13722
      12 -> 17         0.20924
      13 -> 18        -0.18142
      13 -> 20        -0.25589
      13 -> 21         0.48030

 The electronic state is 1-A.
 Alpha  occ. eigenvalues --   -2.02025  -1.29338  -1.02256  -0.90827  -0.86153
 Alpha  occ. eigenvalues --   -0.77268  -0.76259  -0.65481  -0.62303  -0.53341
 Alpha  occ. eigenvalues --   -0.52861  -0.49935  -0.38917
 Alpha virt. eigenvalues --    0.04063   0.10307   0.11064   0.18057   0.19844
 Alpha virt. eigenvalues --    0.21722   0.24980   0.26467   0.30636   0.38029
 Alpha virt. eigenvalues --    0.44234

 Mulliken charges:
               1
     1  C   -0.168858
     2  C   -1.942428
     3  O    3.179817
     4  C   -1.878299
     5  C   -0.080904
     6  H    0.174097
     7  H    0.284074
     8  H    0.279678
     9  H    0.152824
 Sum of Mulliken charges =   0.00000

 Dipole moment (field-independent basis, Debye):
    X=             -3.1456    Y=             -9.1658    Z=              0.4578  Tot=              9.7013
 N-N= 1.064692238450D+02 E-N=-1.717850954969D+02  KE=-1.574159092268D+01
 Orbital energies and kinetic energies (alpha):
                                 1                 2
   1         O                -2.020245         -1.413515
   2         O                -1.293381         -1.054398
   3         O                -1.022565         -0.877192
   4         O                -0.908273         -0.603982
   5         O                -0.861529         -0.702539
   6         O                -0.772682         -0.600778
   7         O                -0.762594         -0.563847

 Normal termination of Gaussian 09 at Tue Dec 15 17:09:01 2015.
