 Gaussian 09, Revision D.01,
 Gaussian 09:  ES64L-G09RevD.01 24-Apr-2013

 ------------------------------------------------------------
 #P AM1(Input,print) CIS(Singlets,NStates=15) pop(full) force
 ------------------------------------------------------------

 -----------------
 AM1-Reparam Input
 -----------------
 Symbolic Z-matrix:
 Charge =  0 Multiplicity = 1

                         Standard orientation:
 ---------------------------------------------------------------------
 Center     Atomic      Atomic             Coordinates (Angstroms)
 Number     Number       Type             X           Y           Z
 ---------------------------------------------------------------------
      1          6           0        1.007904    0.735301   -0.010651
      2          6           0        0.916886   -0.666669   -0.015906
      3          8           0       -0.356045   -1.062698    0.009082
      4          6           0       -1.117933   -0.040962   -0.017816
      5          6           0       -0.431617    1.100602    0.019935
      6          1           0       -0.735326    2.120375   -0.047185
      7          1           0       -2.221389   -0.217233    0.035419
      8          1           0        1.722424   -1.466074    0.028507
      9          1           0        1.831221    1.294886    0.057225
 ---------------------------------------------------------------------

 SCF Done:  E(RAM1) =   2.12385876706     A.U. after   13 cycles

 Excitation energies and oscillator strengths:

 Excited State   1:      Singlet-A      5.3716 eV  230.81 nm  f=0.3751  <S**2>=0.000
      13 -> 14         0.69681
 This state for optimization and/or second-order correction.
 Total Energy, E(CIS) =   2.32126191489
 Copying the excited state density for this state as the 1-particle RhoCI density.

 Excited State   2:      Singlet-A      6.2389 eV  198.73 nm  f=0.0020  <S**2>=0.000
      11 -> 15         0.10560
      13 -> 15         0.67898
      13 -> 18         0.13196

 Excited State   3:      Singlet-A      6.5746 eV  188.58 nm  f=0.0020  <S**2>=0.000
      11 -> 16        -0.11624
      13 -> 16         0.65876
      13 -> 17        -0.18288

 Excited State   4:      Singlet-A      6.8930 eV  179.87 nm  f=0.0003  <S**2>=0.000
      12 -> 14         0.70020

 Excited State   5:      Singlet-A      7.9088 eV  156.77 nm  f=0.0003  <S**2>=0.000
      11 -> 16        -0.10128
      13 -> 16         0.14974
      13 -> 17         0.41944
      13 -> 18         0.43552
      13 -> 20         0.12438
      13 -> 21        -0.27564

 Excited State   6:      Singlet-A      8.3188 eV  149.04 nm  f=0.0104  <S**2>=0.000
      10 -> 14         0.65399
      13 -> 17         0.14461
      13 -> 18        -0.17153

 Excited State   7:      Singlet-A      8.5452 eV  145.09 nm  f=0.0115  <S**2>=0.000
      10 -> 14        -0.23199
      13 -> 15         0.10175
      13 -> 17         0.48699
      13 -> 18        -0.39826

 Excited State   8:      Singlet-A      8.7938 eV  140.99 nm  f=0.1057  <S**2>=0.000
      11 -> 14         0.67211
      12 -> 15        -0.12451

 Excited State   9:      Singlet-A      9.1319 eV  135.77 nm  f=0.0048  <S**2>=0.000
      11 -> 16         0.10890
      13 -> 19         0.66848
      13 -> 20         0.12681

 Excited State  10:      Singlet-A      9.4531 eV  131.16 nm  f=0.1781  <S**2>=0.000
       8 -> 15         0.12627
      11 -> 14         0.11364
      12 -> 15         0.57791
      12 -> 16        -0.23481
      12 -> 18         0.18332

 Excited State  11:      Singlet-A      9.5634 eV  129.64 nm  f=0.0141  <S**2>=0.000
      13 -> 17         0.11631
      13 -> 18         0.29581
      13 -> 19         0.11958
      13 -> 20        -0.31571
      13 -> 21         0.51416

 Excited State  12:      Singlet-A      9.8133 eV  126.34 nm  f=0.0136  <S**2>=0.000
       8 -> 16        -0.10887
       9 -> 15        -0.12204
      10 -> 15        -0.18955
      10 -> 17         0.10226
      10 -> 18        -0.12628
      11 -> 15        -0.16545
      12 -> 15         0.27950
      12 -> 16         0.41797
      12 -> 17        -0.22703
      13 -> 20        -0.12937
      13 -> 21        -0.11024

 Excited State  13:      Singlet-A      9.9287 eV  124.87 nm  f=0.0355  <S**2>=0.000
      11 -> 15         0.49465
      12 -> 15         0.11640
      12 -> 16         0.18205
      13 -> 20         0.33533
      13 -> 21         0.17384

 Excited State  14:      Singlet-A      9.9988 eV  124.00 nm  f=0.0444  <S**2>=0.000
      11 -> 15        -0.34051
      11 -> 16        -0.25125
      13 -> 20         0.44324
      13 -> 21         0.30303

 Excited State  15:      Singlet-A     10.2620 eV  120.82 nm  f=0.0023  <S**2>=0.000
      11 -> 15        -0.21903
      11 -> 16         0.59275
      13 -> 16         0.14652
      13 -> 17         0.10006
      13 -> 20         0.14474

 The electronic state is 1-A.
 Alpha  occ. eigenvalues --   -1.96387  -1.18506  -0.93500  -0.82330  -0.77186
 Alpha  occ. eigenvalues --   -0.69852  -0.67345  -0.55685  -0.53508  -0.47069
 Alpha  occ. eigenvalues --   -0.45140  -0.42128  -0.29804
 Alpha virt. eigenvalues --    0.10034   0.15329   0.17190   0.25485   0.27015
 Alpha virt. eigenvalues --    0.28856   0.30522   0.31056   0.35614   0.43272
 Alpha virt. eigenvalues --    0.48411

 Mulliken charges:
               1
     1  C   -0.119532
     2  C   -1.911039
     3  O    3.205819
     4  C   -1.892039
     5  C   -0.172162
     6  H    0.162964
     7  H    0.291323
     8  H    0.279205
     9  H    0.155460
 Sum of Mulliken charges =   0.00000

 Dipole moment (field-independent basis, Debye):
    X=             -3.5021    Y=             -9.3618    Z=              0.5086  Tot=             10.0084
 N-N= 1.045924459082D+02 E-N=-1.700166989281D+02  KE=-1.535166330341D+01
 Orbital energies and kinetic energies (alpha):
                                 1                 2
   1         O                -1.963870         -1.413192
   2         O                -1.185060         -1.040572
   3         O                -0.935002         -0.868129
   4         O                -0.823305         -0.573448
   5         O                -0.771858         -0.680385
   6         O                -0.698520         -0.589571
   7         O                -0.673451         -0.528407

 Normal termination of Gaussian 09 at Tue Dec 15 17:08:42 2015.
