 Gaussian 09, Revision D.01,
 Gaussian 09:  ES64L-G09RevD.01 24-Apr-2013

 ------------------------------------------------------------
 #P AM1(Input,print) CIS(Singlets,NStates=15) pop(full) force
 ------------------------------------------------------------

 -----------------
 AM1-Reparam Input
 -----------------
 Symbolic Z-matrix:
 Charge =  0 Multiplicity = 1

                         Standard orientation:
 ---------------------------------------------------------------------
 Center     Atomic      Atomic             Coordinates (Angstroms)
 Number     Number       Type             X           Y           Z
 ---------------------------------------------------------------------
      1          6           0       -0.589631    1.054575   -0.016792
      2          6           0       -1.111765   -0.243624    0.022295
      3          8           0       -0.166484   -1.104616   -0.019738
      4          6           0        1.022811   -0.500155    0.018573
      5          6           0        0.862725    0.830863    0.001271
      6          1           0        1.536019    1.614345    0.031805
      7          1           0        1.917824   -1.073725   -0.032990
      8          1           0       -2.131600   -0.546810    0.034210
      9          1           0       -1.095214    1.993169   -0.027213
 ---------------------------------------------------------------------

 SCF Done:  E(RAM1) =   1.72303916783     A.U. after   14 cycles

 Excitation energies and oscillator strengths:

 Excited State   1:      Singlet-A      5.3692 eV  230.92 nm  f=0.3878  <S**2>=0.000
      13 -> 14         0.69676
 This state for optimization and/or second-order correction.
 Total Energy, E(CIS) =   1.92035420550
 Copying the excited state density for this state as the 1-particle RhoCI density.

 Excited State   2:      Singlet-A      6.7719 eV  183.09 nm  f=0.0004  <S**2>=0.000
      12 -> 14         0.70142

 Excited State   3:      Singlet-A      7.1416 eV  173.61 nm  f=0.0044  <S**2>=0.000
      13 -> 15         0.66305
      13 -> 17         0.20577

 Excited State   4:      Singlet-A      7.4652 eV  166.08 nm  f=0.0042  <S**2>=0.000
      13 -> 16         0.66074
      13 -> 18        -0.17877

 Excited State   5:      Singlet-A      8.1056 eV  152.96 nm  f=0.0060  <S**2>=0.000
      11 -> 14         0.70150

 Excited State   6:      Singlet-A      8.7139 eV  142.28 nm  f=0.0001  <S**2>=0.000
      13 -> 15        -0.11983
      13 -> 16         0.14560
      13 -> 17         0.46312
      13 -> 18         0.40321
      13 -> 21        -0.24303

 Excited State   7:      Singlet-A      9.2508 eV  134.03 nm  f=0.1194  <S**2>=0.000
      10 -> 14         0.67933

 Excited State   8:      Singlet-A      9.4588 eV  131.08 nm  f=0.0097  <S**2>=0.000
      10 -> 15        -0.10193
      13 -> 15         0.12980
      13 -> 17        -0.43951
      13 -> 18         0.50477

 Excited State   9:      Singlet-A      9.8649 eV  125.68 nm  f=0.0635  <S**2>=0.000
      10 -> 14         0.10715
      11 -> 15        -0.10320
      11 -> 16        -0.11753
      11 -> 18         0.15261
      12 -> 15         0.39669
      12 -> 16        -0.28602
      12 -> 17         0.28903
      12 -> 18         0.22332

 Excited State  10:      Singlet-A      9.9643 eV  124.43 nm  f=0.0006  <S**2>=0.000
      13 -> 16        -0.10118
      13 -> 19         0.67854

 Excited State  11:      Singlet-A     10.4352 eV  118.81 nm  f=0.0100  <S**2>=0.000
      11 -> 15         0.21625
      11 -> 17         0.11299
      12 -> 15         0.46933
      12 -> 16         0.39908
      12 -> 18        -0.15627

 Excited State  12:      Singlet-A     10.5407 eV  117.62 nm  f=0.0431  <S**2>=0.000
      13 -> 17        -0.15537
      13 -> 18        -0.12483
      13 -> 20         0.54142
      13 -> 21        -0.37923

 Excited State  13:      Singlet-A     10.6817 eV  116.07 nm  f=0.2034  <S**2>=0.000
       9 -> 15         0.10404
      11 -> 15        -0.30162
      11 -> 16        -0.20299
      11 -> 17        -0.11065
      11 -> 18         0.15834
      12 -> 15        -0.16838
      12 -> 16         0.43224
      12 -> 17         0.12204
      12 -> 18         0.14701
      12 -> 19         0.17326

 Excited State  14:      Singlet-A     10.7794 eV  115.02 nm  f=0.0222  <S**2>=0.000
       9 -> 14         0.58478
      13 -> 20        -0.26967
      13 -> 21        -0.23294

 Excited State  15:      Singlet-A     10.8663 eV  114.10 nm  f=0.0360  <S**2>=0.000
       9 -> 14         0.36032
      13 -> 18         0.11135
      13 -> 20         0.30705
      13 -> 21         0.47631

 The electronic state is 1-A.
 Alpha  occ. eigenvalues --   -1.93303  -1.17387  -0.93685  -0.83439  -0.78638
 Alpha  occ. eigenvalues --   -0.70901  -0.69292  -0.58363  -0.55021  -0.48288
 Alpha  occ. eigenvalues --   -0.47261  -0.42853  -0.31595
 Alpha virt. eigenvalues --    0.08731   0.17868   0.19095   0.26520   0.27256
 Alpha virt. eigenvalues --    0.29598   0.31357   0.33635   0.37606   0.45466
 Alpha virt. eigenvalues --    0.50516

 Mulliken charges:
               1
     1  C   -0.212445
     2  C   -2.065728
     3  O    3.299908
     4  C   -2.031175
     5  C   -0.116451
     6  H    0.207198
     7  H    0.348160
     8  H    0.355791
     9  H    0.214742
 Sum of Mulliken charges =   0.00000

 Dipole moment (field-independent basis, Debye):
    X=             -1.3686    Y=             -9.3619    Z=             -0.6123  Tot=              9.4811
 N-N= 1.045068717060D+02 E-N=-1.702187276124D+02  KE=-1.554841991508D+01
 Orbital energies and kinetic energies (alpha):
                                 1                 2
   1         O                -1.933034         -1.420440
   2         O                -1.173868         -1.041543
   3         O                -0.936847         -0.880448
   4         O                -0.834393         -0.574757
   5         O                -0.786379         -0.710072
   6         O                -0.709009         -0.588271
   7         O                -0.692919         -0.538680

 Normal termination of Gaussian 09 at Tue Dec 15 17:09:45 2015.
