 Gaussian 09, Revision D.01,
 Gaussian 09:  ES64L-G09RevD.01 24-Apr-2013

 ------------------------------------------------------------
 #P AM1(Input,print) CIS(Singlets,NStates=15) pop(full) force
 ------------------------------------------------------------

 -----------------
 AM1-Reparam Input
 -----------------
 Symbolic Z-matrix:
 Charge =  0 Multiplicity = 1

                         Standard orientation:
 ---------------------------------------------------------------------
 Center     Atomic      Atomic             Coordinates (Angstroms)
 Number     Number       Type             X           Y           Z
 ---------------------------------------------------------------------
      1          6           0        0.891225    0.800723    0.015921
      2          6           0        1.016608   -0.509661    0.031629
      3          8           0       -0.214954   -1.150807   -0.014098
      4          6           0       -1.141199   -0.136255   -0.007561
      5          6           0       -0.532356    1.050949   -0.024795
      6          1           0       -1.111574    2.035757    0.060398
      7          1           0       -2.156911   -0.506916    0.075583
      8          1           0        1.919511   -1.151118   -0.050373
      9          1           0        1.662937    1.594196   -0.063994
 ---------------------------------------------------------------------

 SCF Done:  E(RAM1) =   2.61263256798     A.U. after   13 cycles

 Excitation energies and oscillator strengths:

 Excited State   1:      Singlet-A      4.9265 eV  251.67 nm  f=0.3530  <S**2>=0.000
      13 -> 14         0.69860
 This state for optimization and/or second-order correction.
 Total Energy, E(CIS) =   2.79367732188
 Copying the excited state density for this state as the 1-particle RhoCI density.

 Excited State   2:      Singlet-A      5.8879 eV  210.57 nm  f=0.0002  <S**2>=0.000
      13 -> 15         0.67173
      13 -> 17         0.11558
      13 -> 19        -0.13759

 Excited State   3:      Singlet-A      6.2755 eV  197.57 nm  f=0.0053  <S**2>=0.000
      10 -> 15        -0.10457
      13 -> 16         0.67962
      13 -> 18        -0.11140

 Excited State   4:      Singlet-A      6.4628 eV  191.84 nm  f=0.0005  <S**2>=0.000
      12 -> 14         0.69718

 Excited State   5:      Singlet-A      7.3181 eV  169.42 nm  f=0.0076  <S**2>=0.000
      11 -> 14         0.69750

 Excited State   6:      Singlet-A      7.5616 eV  163.97 nm  f=0.0001  <S**2>=0.000
      13 -> 15        -0.12086
      13 -> 17         0.67343
      13 -> 21        -0.12069

 Excited State   7:      Singlet-A      8.5320 eV  145.32 nm  f=0.1140  <S**2>=0.000
      10 -> 14         0.69354

 Excited State   8:      Singlet-A      8.7901 eV  141.05 nm  f=0.0042  <S**2>=0.000
      10 -> 15        -0.22875
      13 -> 18         0.64450

 Excited State   9:      Singlet-A      9.1143 eV  136.03 nm  f=0.0849  <S**2>=0.000
       8 -> 16         0.10428
      11 -> 16        -0.11495
      11 -> 18         0.15815
      12 -> 15         0.55212
      12 -> 17         0.28029

 Excited State  10:      Singlet-A      9.1938 eV  134.86 nm  f=0.0018  <S**2>=0.000
      10 -> 16        -0.19938
      13 -> 19         0.64597

 Excited State  11:      Singlet-A      9.5097 eV  130.38 nm  f=0.2255  <S**2>=0.000
      11 -> 15         0.26260
      11 -> 16         0.33410
      11 -> 18        -0.20244
      12 -> 15         0.33581
      12 -> 16         0.20562
      12 -> 17        -0.27517

 Excited State  12:      Singlet-A      9.7278 eV  127.45 nm  f=0.0904  <S**2>=0.000
      11 -> 15         0.29807
      11 -> 16        -0.26168
      11 -> 19        -0.11875
      12 -> 16         0.49245
      12 -> 17         0.19269

 Excited State  13:      Singlet-A     10.0233 eV  123.70 nm  f=0.0101  <S**2>=0.000
       7 -> 16         0.10571
      10 -> 15         0.59339
      10 -> 16         0.16331
      13 -> 16         0.11380
      13 -> 18         0.20767

 Excited State  14:      Singlet-A     10.1737 eV  121.87 nm  f=0.0187  <S**2>=0.000
       8 -> 15         0.14357
       9 -> 15        -0.10412
       9 -> 16         0.14562
      10 -> 15        -0.18976
      10 -> 16         0.41248
      11 -> 15        -0.24675
      11 -> 17         0.12973
      11 -> 19         0.12505
      12 -> 16         0.22938
      13 -> 19         0.14791

 Excited State  15:      Singlet-A     10.3285 eV  120.04 nm  f=0.0236  <S**2>=0.000
       7 -> 15         0.10949
       8 -> 15        -0.15225
       9 -> 16        -0.15683
      10 -> 16         0.43989
      11 -> 15         0.24743
      11 -> 17        -0.18371
      11 -> 19        -0.16219
      12 -> 16        -0.17102
      12 -> 18        -0.14495
      13 -> 19         0.11437

 The electronic state is 1-A.
 Alpha  occ. eigenvalues --   -1.84052  -1.12040  -0.87133  -0.78668  -0.74073
 Alpha  occ. eigenvalues --   -0.66027  -0.62782  -0.54804  -0.53848  -0.44366
 Alpha  occ. eigenvalues --   -0.43273  -0.41036  -0.28243
 Alpha virt. eigenvalues --    0.09738   0.16741   0.17840   0.25649   0.27744
 Alpha virt. eigenvalues --    0.30292   0.36628   0.41086   0.47204   0.55224
 Alpha virt. eigenvalues --    0.58627

 Mulliken charges:
               1
     1  C   -0.181513
     2  C   -1.987601
     3  O    3.434790
     4  C   -1.969412
     5  C   -0.220777
     6  H    0.197903
     7  H    0.257657
     8  H    0.281115
     9  H    0.187838
 Sum of Mulliken charges =   0.00000

 Dipole moment (field-independent basis, Debye):
    X=             -2.0473    Y=            -11.8082    Z=             -0.3685  Tot=             11.9901
 N-N= 1.037085430867D+02 E-N=-1.692757584969D+02  KE=-1.430916759646D+01
 Orbital energies and kinetic energies (alpha):
                                 1                 2
   1         O                -1.840521         -1.232612
   2         O                -1.120395         -0.964008
   3         O                -0.871333         -0.797859
   4         O                -0.786684         -0.525352
   5         O                -0.740726         -0.618257
   6         O                -0.660273         -0.525814
   7         O                -0.627825         -0.498085

 Normal termination of Gaussian 09 at Tue Dec 15 17:07:48 2015.
