 Gaussian 09, Revision D.01,
 Gaussian 09:  ES64L-G09RevD.01 24-Apr-2013

 ------------------------------------------------------------
 #P AM1(Input,print) CIS(Singlets,NStates=15) pop(full) force
 ------------------------------------------------------------

 -----------------
 AM1-Reparam Input
 -----------------
 Symbolic Z-matrix:
 Charge =  0 Multiplicity = 1

                         Standard orientation:
 ---------------------------------------------------------------------
 Center     Atomic      Atomic             Coordinates (Angstroms)
 Number     Number       Type             X           Y           Z
 ---------------------------------------------------------------------
      1          6           0        0.959612    0.811778    0.014553
      2          6           0        0.988970   -0.599361   -0.004518
      3          8           0       -0.284980   -1.155866    0.008552
      4          6           0       -1.119805   -0.053989   -0.024754
      5          6           0       -0.525720    1.073199    0.000333
      6          1           0       -0.919785    2.022008   -0.017033
      7          1           0       -2.191863   -0.412602    0.069901
      8          1           0        1.864087   -1.278295   -0.035103
      9          1           0        1.709057    1.526061    0.000133
 ---------------------------------------------------------------------

 SCF Done:  E(RAM1) =   1.74303833537     A.U. after   14 cycles

 Excitation energies and oscillator strengths:

 Excited State   1:      Singlet-A      5.0226 eV  246.85 nm  f=0.3536  <S**2>=0.000
      13 -> 14         0.69606
 This state for optimization and/or second-order correction.
 Total Energy, E(CIS) =   1.92761499439
 Copying the excited state density for this state as the 1-particle RhoCI density.

 Excited State   2:      Singlet-A      5.4123 eV  229.08 nm  f=0.0025  <S**2>=0.000
      13 -> 15         0.68057
      13 -> 18         0.12049

 Excited State   3:      Singlet-A      6.0759 eV  204.06 nm  f=0.0021  <S**2>=0.000
      11 -> 16        -0.10552
      13 -> 16         0.63829
      13 -> 17         0.21763
      13 -> 18        -0.12305
      13 -> 19         0.10043

 Excited State   4:      Singlet-A      6.6204 eV  187.28 nm  f=0.0003  <S**2>=0.000
      12 -> 14         0.69110
      13 -> 19         0.11063

 Excited State   5:      Singlet-A      7.0376 eV  176.17 nm  f=0.0003  <S**2>=0.000
      12 -> 14        -0.11658
      13 -> 16        -0.17580
      13 -> 17         0.12291
      13 -> 18        -0.28765
      13 -> 19         0.53983
      13 -> 21         0.21540

 Excited State   6:      Singlet-A      7.5284 eV  164.69 nm  f=0.0300  <S**2>=0.000
      13 -> 16        -0.13565
      13 -> 17         0.62692
      13 -> 18         0.25778

 Excited State   7:      Singlet-A      7.9886 eV  155.20 nm  f=0.0016  <S**2>=0.000
      13 -> 16         0.12111
      13 -> 17        -0.18226
      13 -> 18         0.54136
      13 -> 19         0.28129
      13 -> 20        -0.10781
      13 -> 21         0.22926

 Excited State   8:      Singlet-A      8.3713 eV  148.11 nm  f=0.0149  <S**2>=0.000
      10 -> 14         0.57112
      11 -> 14         0.24980
      12 -> 15         0.17572
      13 -> 21         0.23343

 Excited State   9:      Singlet-A      8.3959 eV  147.67 nm  f=0.0504  <S**2>=0.000
       8 -> 15         0.11173
      10 -> 14        -0.27747
      11 -> 14         0.47859
      12 -> 15         0.33242
      13 -> 21        -0.16140

 Excited State  10:      Singlet-A      8.4726 eV  146.33 nm  f=0.0007  <S**2>=0.000
      10 -> 14         0.19559
      13 -> 18         0.14557
      13 -> 19         0.26838
      13 -> 20         0.42537
      13 -> 21        -0.42182

 Excited State  11:      Singlet-A      8.7699 eV  141.37 nm  f=0.0831  <S**2>=0.000
      10 -> 14        -0.20874
      13 -> 19        -0.12326
      13 -> 20         0.53754
      13 -> 21         0.36625

 Excited State  12:      Singlet-A      8.8353 eV  140.33 nm  f=0.2980  <S**2>=0.000
       8 -> 15         0.11506
      11 -> 14        -0.40055
      12 -> 15         0.46287
      12 -> 16        -0.19583
      12 -> 18         0.12088

 Excited State  13:      Singlet-A      9.3332 eV  132.84 nm  f=0.0085  <S**2>=0.000
       7 -> 15        -0.14698
      11 -> 15         0.62551
      11 -> 16         0.11943
      12 -> 16        -0.12834
      13 -> 15        -0.11291

 Excited State  14:      Singlet-A      9.4784 eV  130.81 nm  f=0.0456  <S**2>=0.000
       9 -> 16         0.12258
      10 -> 15         0.12137
      10 -> 17         0.12010
      11 -> 14        -0.11136
      11 -> 15         0.20403
      12 -> 15         0.26306
      12 -> 16         0.42491
      12 -> 17         0.17206
      12 -> 18        -0.17451
      12 -> 19         0.15237
      12 -> 21         0.12469

 Excited State  15:      Singlet-A      9.7040 eV  127.77 nm  f=0.0032  <S**2>=0.000
       7 -> 16         0.12424
      11 -> 15        -0.10489
      11 -> 16         0.63145
      12 -> 19         0.10406
      13 -> 16         0.13964

 The electronic state is 1-A.
 Alpha  occ. eigenvalues --   -1.89764  -1.20748  -0.97898  -0.81777  -0.79808
 Alpha  occ. eigenvalues --   -0.68360  -0.61978  -0.52476  -0.51278  -0.44561
 Alpha  occ. eigenvalues --   -0.41565  -0.38658  -0.25464
 Alpha virt. eigenvalues --    0.12780   0.15976   0.19275   0.26915   0.28423
 Alpha virt. eigenvalues --    0.29091   0.30253   0.30957   0.35026   0.44586
 Alpha virt. eigenvalues --    0.48261

 Mulliken charges:
               1
     1  C   -0.172262
     2  C   -1.936364
     3  O    3.162842
     4  C   -1.845255
     5  C   -0.122646
     6  H    0.168184
     7  H    0.267404
     8  H    0.299216
     9  H    0.178881
 Sum of Mulliken charges =   0.00000

 Dipole moment (field-independent basis, Debye):
    X=             -3.1780    Y=            -10.8973    Z=              0.3801  Tot=             11.3576
 N-N= 1.033282533602D+02 E-N=-1.684066510772D+02  KE=-1.567705887237D+01
 Orbital energies and kinetic energies (alpha):
                                 1                 2
   1         O                -1.897637         -1.348560
   2         O                -1.207478         -1.102768
   3         O                -0.978984         -0.913980
   4         O                -0.817770         -0.632637
   5         O                -0.798077         -0.690069
   6         O                -0.683605         -0.590500
   7         O                -0.619783         -0.505559

 Normal termination of Gaussian 09 at Tue Dec 15 17:07:06 2015.
