 Gaussian 09, Revision D.01,
 Gaussian 09:  ES64L-G09RevD.01 24-Apr-2013

 ------------------------------------------------------------
 #P AM1(Input,print) CIS(Singlets,NStates=15) pop(full) force
 ------------------------------------------------------------

 -----------------
 AM1-Reparam Input
 -----------------
 Symbolic Z-matrix:
 Charge =  0 Multiplicity = 1

                         Standard orientation:
 ---------------------------------------------------------------------
 Center     Atomic      Atomic             Coordinates (Angstroms)
 Number     Number       Type             X           Y           Z
 ---------------------------------------------------------------------
      1          6           0        1.183146   -0.228693   -0.021820
      2          6           0        0.131479   -1.124025    0.023699
      3          8           0       -1.081956   -0.484701   -0.003147
      4          6           0       -0.778228    0.813362   -0.018620
      5          6           0        0.600632    1.066765    0.002432
      6          1           0        1.055902    1.943485    0.029827
      7          1           0       -1.586302    1.494695    0.066785
      8          1           0        0.102560   -2.200021   -0.025526
      9          1           0        2.261317   -0.525000    0.039941
 ---------------------------------------------------------------------

 SCF Done:  E(RAM1) = -0.456706625661     A.U. after   14 cycles

 Excitation energies and oscillator strengths:

 Excited State   1:      Singlet-A      4.5539 eV  272.26 nm  f=0.0582  <S**2>=0.000
      12 -> 15        -0.13704
      13 -> 14         0.53310
      13 -> 16         0.41627
 This state for optimization and/or second-order correction.
 Total Energy, E(CIS) = -0.289353456504
 Copying the excited state density for this state as the 1-particle RhoCI density.

 Excited State   2:      Singlet-A      4.6150 eV  268.65 nm  f=0.0412  <S**2>=0.000
      12 -> 15         0.11400
      13 -> 14        -0.41491
      13 -> 15         0.13605
      13 -> 16         0.52497

 Excited State   3:      Singlet-A      5.0509 eV  245.47 nm  f=0.0419  <S**2>=0.000
      12 -> 14         0.30238
      13 -> 15         0.60710
      13 -> 16        -0.16239

 Excited State   4:      Singlet-A      5.2000 eV  238.43 nm  f=0.0010  <S**2>=0.000
      12 -> 17        -0.11062
      12 -> 18        -0.14918
      12 -> 20        -0.10100
      13 -> 17         0.53999
      13 -> 18         0.25362
      13 -> 20         0.17235
      13 -> 21         0.11311
      13 -> 23        -0.15091

 Excited State   5:      Singlet-A      5.4272 eV  228.45 nm  f=0.0010  <S**2>=0.000
      12 -> 17        -0.18071
      12 -> 19         0.17321
      13 -> 17        -0.16695
      13 -> 18         0.42521
      13 -> 19         0.37828
      13 -> 20         0.14473
      13 -> 21         0.12969

 Excited State   6:      Singlet-A      6.1819 eV  200.56 nm  f=0.0095  <S**2>=0.000
       7 -> 16        -0.15729
      12 -> 14         0.10415
      12 -> 15         0.16609
      12 -> 16         0.61162
      13 -> 19         0.14619

 Excited State   7:      Singlet-A      6.2060 eV  199.78 nm  f=0.0020  <S**2>=0.000
      12 -> 16        -0.13423
      13 -> 17         0.25403
      13 -> 18        -0.36782
      13 -> 19         0.48659

 Excited State   8:      Singlet-A      6.4524 eV  192.15 nm  f=0.3025  <S**2>=0.000
      12 -> 14         0.58958
      12 -> 16        -0.10750
      13 -> 15        -0.27517

 Excited State   9:      Singlet-A      6.6350 eV  186.86 nm  f=0.1326  <S**2>=0.000
      12 -> 15         0.64427
      12 -> 16        -0.17359
      13 -> 14         0.16073

 Excited State  10:      Singlet-A      6.8594 eV  180.75 nm  f=0.0043  <S**2>=0.000
      12 -> 17         0.37503
      12 -> 18        -0.32484
      12 -> 19         0.26554
      12 -> 20        -0.12737
      12 -> 21         0.21160
      12 -> 22        -0.16284
      12 -> 23        -0.10510
      13 -> 20         0.14552
      13 -> 21         0.11929
      13 -> 22         0.16166

 Excited State  11:      Singlet-A      7.1062 eV  174.47 nm  f=0.0011  <S**2>=0.000
      12 -> 17         0.36316
      12 -> 18         0.25088
      12 -> 21         0.13893
      13 -> 17         0.15975
      13 -> 18         0.26583
      13 -> 19         0.13306
      13 -> 20        -0.31944
      13 -> 21        -0.14931

 Excited State  12:      Singlet-A      7.2525 eV  170.95 nm  f=0.0034  <S**2>=0.000
      12 -> 18         0.27558
      12 -> 19         0.26296
      12 -> 22         0.11038
      13 -> 19        -0.17354
      13 -> 20        -0.15165
      13 -> 21         0.49061
      13 -> 24        -0.13897

 Excited State  13:      Singlet-A      7.4352 eV  166.75 nm  f=0.0012  <S**2>=0.000
      10 -> 14        -0.10280
      11 -> 14         0.22641
      11 -> 15         0.14127
      12 -> 17         0.18646
      12 -> 19        -0.36621
      12 -> 21        -0.10141
      13 -> 21         0.11828
      13 -> 22         0.40485

 Excited State  14:      Singlet-A      7.4881 eV  165.57 nm  f=0.0101  <S**2>=0.000
       9 -> 14         0.15047
      11 -> 14        -0.19894
      11 -> 15        -0.14866
      12 -> 18         0.15260
      12 -> 22         0.22852
      13 -> 17         0.16600
      13 -> 20         0.14932
      13 -> 21        -0.20799
      13 -> 22         0.32841
      13 -> 23         0.30346

 Excited State  15:      Singlet-A      7.5430 eV  164.37 nm  f=0.0059  <S**2>=0.000
       9 -> 14        -0.19883
      11 -> 14         0.40210
      11 -> 15         0.31436
      12 -> 19         0.23295
      12 -> 21         0.10493
      13 -> 17         0.14746
      13 -> 21        -0.21394
      13 -> 23         0.16053

 The electronic state is 1-A.
 Alpha  occ. eigenvalues --   -1.75192  -1.33547  -1.13840  -0.89423  -0.87270
 Alpha  occ. eigenvalues --   -0.73351  -0.67153  -0.59666  -0.54955  -0.52781
 Alpha  occ. eigenvalues --   -0.52090  -0.42026  -0.35812
 Alpha virt. eigenvalues --    0.01726   0.04098   0.06888   0.10374   0.11633
 Alpha virt. eigenvalues --    0.12417   0.14805   0.15846   0.16547   0.18127
 Alpha virt. eigenvalues --    0.21912

 Mulliken charges:
               1
     1  C   -0.201621
     2  C   -0.061742
     3  O   -0.054591
     4  C   -0.031191
     5  C   -0.197576
     6  H    0.117032
     7  H    0.142590
     8  H    0.149762
     9  H    0.137338
 Sum of Mulliken charges =   0.00000

 Dipole moment (field-independent basis, Debye):
    X=             -0.2886    Y=             -0.2383    Z=              0.0880  Tot=              0.3844
 N-N= 1.040643742850D+02 E-N=-1.710076756649D+02  KE=-1.729238129775D+01
 Orbital energies and kinetic energies (alpha):
                                 1                 2
   1         O                -1.751922         -1.410999
   2         O                -1.335471         -1.142936
   3         O                -1.138401         -0.974043
   4         O                -0.894226         -0.768492
   5         O                -0.872695         -0.740849
   6         O                -0.733514         -0.628329
   7         O                -0.671528         -0.520407

 Normal termination of Gaussian 09 at Sat Nov 14 17:36:38 2015.
