 Gaussian 09, Revision D.01,
 Gaussian 09:  ES64L-G09RevD.01 24-Apr-2013

 ------------------------------------------------------------
 #P AM1(Input,print) CIS(Singlets,NStates=15) pop(full) force
 ------------------------------------------------------------

 -----------------
 AM1-Reparam Input
 -----------------
 Symbolic Z-matrix:
 Charge =  0 Multiplicity = 1

                         Standard orientation:
 ---------------------------------------------------------------------
 Center     Atomic      Atomic             Coordinates (Angstroms)
 Number     Number       Type             X           Y           Z
 ---------------------------------------------------------------------
      1          6           0        0.285540    1.128025   -0.022795
      2          6           0        1.182488    0.050844   -0.009044
      3          8           0        0.402109   -1.082291    0.000520
      4          6           0       -0.907967   -0.694371    0.000924
      5          6           0       -0.980951    0.676219    0.016464
      6          1           0       -1.943050    1.161635   -0.007027
      7          1           0       -1.636924   -1.524341   -0.014432
      8          1           0        2.254782   -0.096142    0.061871
      9          1           0        0.633659    2.152871    0.042130
 ---------------------------------------------------------------------

 SCF Done:  E(RAM1) =   1.37669070039     A.U. after   13 cycles

 Excitation energies and oscillator strengths:

 Excited State   1:      Singlet-A      6.4124 eV  193.35 nm  f=0.2552  <S**2>=0.000
      13 -> 14         0.67331
      13 -> 15         0.12840
 This state for optimization and/or second-order correction.
 Total Energy, E(CIS) =   1.61234103232
 Copying the excited state density for this state as the 1-particle RhoCI density.

 Excited State   2:      Singlet-A      6.6392 eV  186.74 nm  f=0.0183  <S**2>=0.000
      12 -> 15         0.12556
      12 -> 16        -0.10594
      13 -> 14        -0.14374
      13 -> 15         0.62674
      13 -> 17         0.20998

 Excited State   3:      Singlet-A      7.1165 eV  174.22 nm  f=0.0008  <S**2>=0.000
      12 -> 15        -0.19917
      12 -> 16        -0.13134
      13 -> 16         0.62364
      13 -> 17         0.13146

 Excited State   4:      Singlet-A      7.8050 eV  158.85 nm  f=0.0141  <S**2>=0.000
      11 -> 14         0.45973
      12 -> 16         0.12100
      13 -> 15        -0.14846
      13 -> 16        -0.10922
      13 -> 17         0.47637

 Excited State   5:      Singlet-A      7.8748 eV  157.44 nm  f=0.0050  <S**2>=0.000
      10 -> 14        -0.17384
      11 -> 14         0.49308
      13 -> 17        -0.41446
      13 -> 22        -0.11772

 Excited State   6:      Singlet-A      8.2785 eV  149.77 nm  f=0.0033  <S**2>=0.000
      10 -> 14         0.63480
      11 -> 14         0.16167
      12 -> 14        -0.16986
      13 -> 17        -0.12579

 Excited State   7:      Singlet-A      8.5224 eV  145.48 nm  f=0.0021  <S**2>=0.000
      10 -> 14         0.14986
      12 -> 14         0.12657
      12 -> 15         0.19934
      13 -> 19         0.44116
      13 -> 22        -0.42707

 Excited State   8:      Singlet-A      8.5376 eV  145.22 nm  f=0.0324  <S**2>=0.000
      10 -> 14         0.14855
      12 -> 14         0.59035
      13 -> 18         0.29083
      13 -> 22         0.12372

 Excited State   9:      Singlet-A      8.9627 eV  138.33 nm  f=0.0007  <S**2>=0.000
      12 -> 15         0.45691
      12 -> 16         0.10785
      13 -> 16         0.10366
      13 -> 19        -0.28122
      13 -> 20        -0.17108
      13 -> 21        -0.34296
      13 -> 22        -0.11495

 Excited State  10:      Singlet-A      9.1124 eV  136.06 nm  f=0.0008  <S**2>=0.000
      12 -> 15         0.14337
      12 -> 17         0.11213
      13 -> 16         0.16429
      13 -> 19        -0.33629
      13 -> 20         0.30565
      13 -> 21         0.45126

 Excited State  11:      Singlet-A      9.3285 eV  132.91 nm  f=0.0290  <S**2>=0.000
      12 -> 15        -0.26350
      12 -> 16         0.38357
      13 -> 15         0.11790
      13 -> 19        -0.20776
      13 -> 20        -0.31008
      13 -> 21         0.14585
      13 -> 22        -0.27089

 Excited State  12:      Singlet-A      9.3773 eV  132.22 nm  f=0.0159  <S**2>=0.000
      12 -> 15         0.19096
      12 -> 16         0.29472
      12 -> 17         0.11785
      13 -> 16         0.17312
      13 -> 19         0.22257
      13 -> 20        -0.18959
      13 -> 21         0.22263
      13 -> 22         0.40493

 Excited State  13:      Singlet-A      9.5051 eV  130.44 nm  f=0.1807  <S**2>=0.000
      11 -> 15         0.11044
      12 -> 14        -0.29131
      13 -> 18         0.59630

 Excited State  14:      Singlet-A      9.6696 eV  128.22 nm  f=0.0637  <S**2>=0.000
       8 -> 15         0.13659
       9 -> 16        -0.10822
      10 -> 15         0.14088
      10 -> 16         0.14437
      10 -> 17         0.29078
      10 -> 19         0.15390
      11 -> 15         0.34104
      11 -> 17         0.32641
      11 -> 19        -0.14322
      13 -> 18        -0.12607

 Excited State  15:      Singlet-A      9.7906 eV  126.64 nm  f=0.0280  <S**2>=0.000
      12 -> 15        -0.10312
      12 -> 16         0.37506
      13 -> 15         0.15511
      13 -> 16         0.10470
      13 -> 20         0.45181
      13 -> 21        -0.26131

 The electronic state is 1-A.
 Alpha  occ. eigenvalues --   -1.88760  -1.20159  -0.94783  -0.78680  -0.77975
 Alpha  occ. eigenvalues --   -0.66965  -0.61863  -0.50350  -0.48374  -0.39822
 Alpha  occ. eigenvalues --   -0.38519  -0.36378  -0.26670
 Alpha virt. eigenvalues --    0.18222   0.21185   0.22884   0.27173   0.29907
 Alpha virt. eigenvalues --    0.30472   0.33071   0.33300   0.36172   0.40264
 Alpha virt. eigenvalues --    0.45751

 Mulliken charges:
               1
     1  C   -0.052462
     2  C   -1.580686
     3  O    2.798644
     4  C   -1.576523
     5  C   -0.038082
     6  H    0.067623
     7  H    0.156201
     8  H    0.160024
     9  H    0.065259
 Sum of Mulliken charges =   0.00000

 Dipole moment (field-independent basis, Debye):
    X=              2.9721    Y=             -8.8928    Z=              0.1524  Tot=              9.3776
 N-N= 1.035475415280D+02 E-N=-1.698894475644D+02  KE=-1.586627385133D+01
 Orbital energies and kinetic energies (alpha):
                                 1                 2
   1         O                -1.887603         -1.377818
   2         O                -1.201588         -1.084945
   3         O                -0.947834         -0.870672
   4         O                -0.786796         -0.633192
   5         O                -0.779753         -0.694474
   6         O                -0.669652         -0.635456
   7         O                -0.618627         -0.547282

 Normal termination of Gaussian 09 at Tue Dec 15 17:07:59 2015.
