 Gaussian 09, Revision D.01,
 Gaussian 09:  ES64L-G09RevD.01 24-Apr-2013

 ------------------------------------------------------------
 #P AM1(Input,print) CIS(Singlets,NStates=15) pop(full) force
 ------------------------------------------------------------

 -----------------
 AM1-Reparam Input
 -----------------
 Symbolic Z-matrix:
 Charge =  0 Multiplicity = 1

                         Standard orientation:
 ---------------------------------------------------------------------
 Center     Atomic      Atomic             Coordinates (Angstroms)
 Number     Number       Type             X           Y           Z
 ---------------------------------------------------------------------
      1          6           0        0.210344    1.215219    0.000537
      2          6           0        1.154654    0.153317    0.005513
      3          8           0        0.507579   -1.068729   -0.020091
      4          6           0       -0.798119   -0.745271    0.028571
      5          6           0       -1.090367    0.497913   -0.007144
      6          1           0       -2.018436    1.049665   -0.014923
      7          1           0       -1.467395   -1.591341   -0.012691
      8          1           0        2.158500    0.144025    0.042539
      9          1           0        0.407627    2.220422   -0.019058
 ---------------------------------------------------------------------

 SCF Done:  E(RAM1) =   2.64879538313     A.U. after   13 cycles

 Excitation energies and oscillator strengths:

 Excited State   1:      Singlet-A      4.8731 eV  254.43 nm  f=0.3658  <S**2>=0.000
      13 -> 14         0.69968
 This state for optimization and/or second-order correction.
 Total Energy, E(CIS) =   2.82787692093
 Copying the excited state density for this state as the 1-particle RhoCI density.

 Excited State   2:      Singlet-A      5.7831 eV  214.39 nm  f=0.0004  <S**2>=0.000
      13 -> 15         0.65744
      13 -> 16        -0.15513
      13 -> 17         0.13220

 Excited State   3:      Singlet-A      6.2293 eV  199.03 nm  f=0.0002  <S**2>=0.000
      12 -> 14         0.70161

 Excited State   4:      Singlet-A      6.4004 eV  193.71 nm  f=0.0029  <S**2>=0.000
      13 -> 15         0.17407
      13 -> 16         0.65607
      13 -> 17        -0.11265

 Excited State   5:      Singlet-A      7.5715 eV  163.75 nm  f=0.0053  <S**2>=0.000
      10 -> 14         0.68428
      13 -> 17         0.13550

 Excited State   6:      Singlet-A      7.6173 eV  162.77 nm  f=0.0003  <S**2>=0.000
      10 -> 14        -0.13952
      13 -> 16         0.13500
      13 -> 17         0.64915
      13 -> 21         0.11039

 Excited State   7:      Singlet-A      8.3267 eV  148.90 nm  f=0.1214  <S**2>=0.000
      11 -> 14         0.68824

 Excited State   8:      Singlet-A      8.9795 eV  138.07 nm  f=0.2197  <S**2>=0.000
       9 -> 15        -0.12011
      11 -> 14         0.12107
      12 -> 15         0.57851
      12 -> 16        -0.20002
      12 -> 17         0.22129

 Excited State   9:      Singlet-A      9.0596 eV  136.85 nm  f=0.0038  <S**2>=0.000
      11 -> 15         0.20408
      13 -> 18         0.64604
      13 -> 19         0.11462

 Excited State  10:      Singlet-A      9.4793 eV  130.79 nm  f=0.0024  <S**2>=0.000
       7 -> 16         0.11013
      11 -> 15        -0.12539
      11 -> 16         0.38668
      13 -> 19         0.55320

 Excited State  11:      Singlet-A      9.5561 eV  129.74 nm  f=0.0338  <S**2>=0.000
       8 -> 15        -0.10306
      10 -> 15         0.23870
      10 -> 18        -0.17137
      12 -> 15         0.32078
      12 -> 16         0.36738
      12 -> 17        -0.34672

 Excited State  12:      Singlet-A      9.9996 eV  123.99 nm  f=0.0015  <S**2>=0.000
       7 -> 15        -0.15912
      11 -> 15         0.62162
      11 -> 16         0.10137
      13 -> 15        -0.12539
      13 -> 18        -0.20590

 Excited State  13:      Singlet-A     10.1636 eV  121.99 nm  f=0.1429  <S**2>=0.000
      10 -> 16         0.42404
      10 -> 19         0.12725
      12 -> 16        -0.41377
      12 -> 17        -0.26402
      12 -> 19        -0.13082

 Excited State  14:      Singlet-A     10.2750 eV  120.67 nm  f=0.0005  <S**2>=0.000
       6 -> 15         0.10340
       8 -> 16        -0.10434
       9 -> 15         0.33089
      10 -> 15         0.45406
      10 -> 19        -0.12022
      12 -> 16        -0.19422
      12 -> 17         0.12978
      12 -> 18        -0.19901

 Excited State  15:      Singlet-A     10.3321 eV  120.00 nm  f=0.0011  <S**2>=0.000
       8 -> 14        -0.15060
       9 -> 14         0.14668
      10 -> 16        -0.11127
      11 -> 16         0.49721
      13 -> 16         0.12399
      13 -> 18         0.11462
      13 -> 19        -0.34860

 The electronic state is 1-A.
 Alpha  occ. eigenvalues --   -1.84639  -1.11993  -0.88430  -0.79510  -0.75064
 Alpha  occ. eigenvalues --   -0.67595  -0.63105  -0.54819  -0.54204  -0.45491
 Alpha  occ. eigenvalues --   -0.44391  -0.41418  -0.28722
 Alpha virt. eigenvalues --    0.08685   0.15796   0.18866   0.25587   0.28892
 Alpha virt. eigenvalues --    0.30665   0.36535   0.40531   0.47933   0.56019
 Alpha virt. eigenvalues --    0.59222

 Mulliken charges:
               1
     1  C   -0.163598
     2  C   -1.998313
     3  O    3.425963
     4  C   -1.973696
     5  C   -0.184253
     6  H    0.184917
     7  H    0.284859
     8  H    0.253428
     9  H    0.170693
 Sum of Mulliken charges =   0.00000

 Dipole moment (field-independent basis, Debye):
    X=              4.1261    Y=            -11.1512    Z=             -0.5608  Tot=             11.9033
 N-N= 1.040076692068D+02 E-N=-1.695591084053D+02  KE=-1.437104655127D+01
 Orbital energies and kinetic energies (alpha):
                                 1                 2
   1         O                -1.846386         -1.241462
   2         O                -1.119934         -0.971149
   3         O                -0.884296         -0.800253
   4         O                -0.795101         -0.531092
   5         O                -0.750635         -0.630487
   6         O                -0.675951         -0.543609
   7         O                -0.631046         -0.491859

 Normal termination of Gaussian 09 at Tue Dec 15 17:07:37 2015.
