 Gaussian 09, Revision D.01,
 Gaussian 09:  ES64L-G09RevD.01 24-Apr-2013

 -------------------------------------------------------
 #P B3LYP/3-21G CIS(Singlets,NStates=15) pop(full) force
 -------------------------------------------------------

 --------
 FuranDFT
 --------
 Symbolic Z-matrix:
 Charge =  0 Multiplicity = 1

                         Standard orientation:
 ---------------------------------------------------------------------
 Center     Atomic      Atomic             Coordinates (Angstroms)
 Number     Number       Type             X           Y           Z
 ---------------------------------------------------------------------
      1          6           0       -0.244090    1.138976    0.015891
      2          6           0       -1.154905    0.138667   -0.008544
      3          8           0       -0.490985   -1.047759    0.008506
      4          6           0        0.834666   -0.734532   -0.013608
      5          6           0        1.090518    0.567164   -0.001785
      6          1           0        1.981054    1.088215   -0.020108
      7          1           0        1.450457   -1.651998    0.033422
      8          1           0       -2.169599    0.093377   -0.031228
      9          1           0       -0.491172    2.190821   -0.001858
 ---------------------------------------------------------------------

 SCF Done:  E(RB3LYP) =  -228.740990144     A.U. after   14 cycles

 Excitation energies and oscillator strengths:

 Excited State   1:      Singlet-A      7.3168 eV  169.45 nm  f=0.0637  <S**2>=0.000
      17 -> 19        -0.39345
      18 -> 19         0.41107
      18 -> 20        -0.40052
 This state for optimization and/or second-order correction.
 Total Energy, E(CIS) =  -228.472103902
 Copying the excited state density for this state as the 1-particle RhoCI density.

 Excited State   2:      Singlet-A      7.5044 eV  165.22 nm  f=0.1509  <S**2>=0.000
      17 -> 19         0.33069
      18 -> 19         0.54610
      18 -> 20         0.26026

 Excited State   3:      Singlet-A      8.8337 eV  140.35 nm  f=0.0006  <S**2>=0.000
      18 -> 21         0.69242

 Excited State   4:      Singlet-A      9.0324 eV  137.27 nm  f=0.0055  <S**2>=0.000
      16 -> 19         0.69664

 Excited State   5:      Singlet-A      9.4806 eV  130.78 nm  f=0.1699  <S**2>=0.000
      17 -> 19         0.15715
      17 -> 20         0.63173
      18 -> 20        -0.19175

 Excited State   6:      Singlet-A      9.5798 eV  129.42 nm  f=0.0014  <S**2>=0.000
      15 -> 19        -0.13167
      17 -> 21         0.13103
      18 -> 22         0.63750
      18 -> 23        -0.19625

 Excited State   7:      Singlet-A      9.8812 eV  125.48 nm  f=0.0908  <S**2>=0.000
      15 -> 19         0.58367
      17 -> 19         0.16666
      17 -> 20        -0.13023
      17 -> 21         0.13064
      18 -> 20        -0.18463
      18 -> 22         0.13237
      18 -> 23         0.16637

 Excited State   8:      Singlet-A      9.8996 eV  125.24 nm  f=0.1192  <S**2>=0.000
      15 -> 19        -0.10700
      17 -> 19         0.19675
      17 -> 20        -0.10239
      17 -> 21         0.41449
      18 -> 20        -0.21269
      18 -> 22        -0.22307
      18 -> 23        -0.37089

 Excited State   9:      Singlet-A      9.9923 eV  124.08 nm  f=0.3049  <S**2>=0.000
      15 -> 19         0.30760
      17 -> 19        -0.30542
      17 -> 20         0.17852
      17 -> 21         0.20191
      18 -> 20         0.32896
      18 -> 23        -0.28302

 Excited State  10:      Singlet-A     10.0867 eV  122.92 nm  f=0.0291  <S**2>=0.000
      15 -> 19        -0.15436
      17 -> 21         0.48902
      18 -> 23         0.44147

 Excited State  11:      Singlet-A     10.5842 eV  117.14 nm  f=0.0007  <S**2>=0.000
      14 -> 19        -0.30684
      16 -> 20         0.57360
      18 -> 24        -0.22051

 Excited State  12:      Singlet-A     10.6824 eV  116.06 nm  f=0.0012  <S**2>=0.000
      16 -> 20         0.19147
      18 -> 24         0.65059

 Excited State  13:      Singlet-A     10.7407 eV  115.43 nm  f=0.0060  <S**2>=0.000
      16 -> 20        -0.12649
      17 -> 22         0.67581

 Excited State  14:      Singlet-A     11.0286 eV  112.42 nm  f=0.0015  <S**2>=0.000
      13 -> 19        -0.19670
      14 -> 19         0.51163
      16 -> 20         0.26816
      17 -> 22         0.10632
      18 -> 25        -0.29674

 Excited State  15:      Singlet-A     11.1066 eV  111.63 nm  f=0.0062  <S**2>=0.000
      14 -> 19         0.25211
      15 -> 20        -0.11146
      16 -> 20         0.10324
      17 -> 23         0.29310
      18 -> 25         0.53712

 The electronic state is 1-A.
 Alpha  occ. eigenvalues --  -19.11049 -10.17596 -10.16714 -10.12410 -10.12212
 Alpha  occ. eigenvalues --   -1.12965  -0.80888  -0.75280  -0.60825  -0.57248
 Alpha  occ. eigenvalues --   -0.54866  -0.45057  -0.44360  -0.43262  -0.39282
 Alpha  occ. eigenvalues --   -0.36472  -0.27791  -0.23572
 Alpha virt. eigenvalues --    0.02589   0.08083   0.13621   0.16088   0.17887
 Alpha virt. eigenvalues --    0.19584   0.21676   0.23203   0.36396   0.42547
 Alpha virt. eigenvalues --    0.46893   0.68321   0.69921   0.70099   0.75297

 Mulliken charges:
               1
     1  C   -0.262492
     2  C    0.093235
     3  O   -0.486697
     4  C    0.097166
     5  C   -0.246688
     6  H    0.193083
     7  H    0.209104
     8  H    0.219912
     9  H    0.183377
 Sum of Mulliken charges =   0.00000

 Dipole moment (field-independent basis, Debye):
    X=              0.2799    Y=              0.6760    Z=             -0.0333  Tot=              0.7324
 Quadrupole moment (field-independent basis, Debye-Ang):
   XX=            -24.3414   YY=            -27.4692   ZZ=            -31.6436
   XY=             -1.3294   XZ=              0.1090   YZ=             -0.1103

 Normal termination of Gaussian 09 at Tue Dec 15 16:23:06 2015.
