 Gaussian 09, Revision D.01,
 Gaussian 09:  ES64L-G09RevD.01 24-Apr-2013

 ------------------------------------------------------------
 #P AM1(Input,print) CIS(Singlets,NStates=15) pop(full) force
 ------------------------------------------------------------

 -----------------
 AM1-Reparam Input
 -----------------
 Symbolic Z-matrix:
 Charge =  0 Multiplicity = 1

                         Standard orientation:
 ---------------------------------------------------------------------
 Center     Atomic      Atomic             Coordinates (Angstroms)
 Number     Number       Type             X           Y           Z
 ---------------------------------------------------------------------
      1          6           0        0.811789    0.906537    0.025962
      2          6           0        1.075719   -0.432537   -0.019495
      3          8           0       -0.075229   -1.151355    0.012376
      4          6           0       -1.172783   -0.259584   -0.018905
      5          6           0       -0.628214    1.018835    0.000406
      6          1           0       -1.201693    1.945600   -0.018772
      7          1           0       -2.175478   -0.712502    0.035409
      8          1           0        1.920125   -1.066049   -0.008658
      9          1           0        1.539818    1.644287   -0.034797
 ---------------------------------------------------------------------

 SCF Done:  E(RAM1) =   1.71662019435     A.U. after   13 cycles

 Excitation energies and oscillator strengths:

 Excited State   1:      Singlet-A      5.4107 eV  229.15 nm  f=0.3691  <S**2>=0.000
      13 -> 14         0.69388
 This state for optimization and/or second-order correction.
 Total Energy, E(CIS) =   1.91546056537
 Copying the excited state density for this state as the 1-particle RhoCI density.

 Excited State   2:      Singlet-A      7.0761 eV  175.22 nm  f=0.0027  <S**2>=0.000
      12 -> 14         0.34847
      13 -> 15         0.58107
      13 -> 17        -0.13364

 Excited State   3:      Singlet-A      7.0948 eV  174.75 nm  f=0.0004  <S**2>=0.000
      12 -> 14         0.60820
      13 -> 15        -0.33329

 Excited State   4:      Singlet-A      7.5222 eV  164.82 nm  f=0.0027  <S**2>=0.000
      10 -> 16        -0.11573
      13 -> 16         0.65942
      13 -> 18         0.15883

 Excited State   5:      Singlet-A      7.9305 eV  156.34 nm  f=0.0062  <S**2>=0.000
      11 -> 14         0.69952

 Excited State   6:      Singlet-A      8.8323 eV  140.38 nm  f=0.0014  <S**2>=0.000
      13 -> 15         0.11977
      13 -> 17         0.35991
      13 -> 18         0.51794
      13 -> 22        -0.25165

 Excited State   7:      Singlet-A      9.2276 eV  134.36 nm  f=0.0160  <S**2>=0.000
      10 -> 16        -0.11421
      13 -> 16         0.12937
      13 -> 17         0.56035
      13 -> 18        -0.33629
      13 -> 22         0.10243

 Excited State   8:      Singlet-A      9.3079 eV  133.20 nm  f=0.0943  <S**2>=0.000
      10 -> 14         0.67509

 Excited State   9:      Singlet-A      9.7877 eV  126.67 nm  f=0.0006  <S**2>=0.000
      13 -> 19         0.68148

 Excited State  10:      Singlet-A     10.0381 eV  123.51 nm  f=0.0060  <S**2>=0.000
       9 -> 15        -0.10660
      11 -> 16         0.16997
      11 -> 17        -0.20033
      11 -> 18         0.12611
      12 -> 15         0.43731
      12 -> 16        -0.16694
      12 -> 17        -0.17291
      12 -> 18        -0.28412

 Excited State  11:      Singlet-A     10.5317 eV  117.72 nm  f=0.1707  <S**2>=0.000
      11 -> 15         0.44955
      11 -> 16         0.10274
      11 -> 17        -0.19750
      12 -> 15        -0.39680
      12 -> 18        -0.16746
      12 -> 19         0.10999

 Excited State  12:      Singlet-A     10.6216 eV  116.73 nm  f=0.0342  <S**2>=0.000
      12 -> 16        -0.10335
      13 -> 18         0.24738
      13 -> 20         0.22941
      13 -> 21        -0.37425
      13 -> 22         0.45805

 Excited State  13:      Singlet-A     10.6620 eV  116.29 nm  f=0.1646  <S**2>=0.000
      11 -> 16         0.19589
      12 -> 16         0.60164
      12 -> 17        -0.15038
      12 -> 19         0.11451

 Excited State  14:      Singlet-A     10.7572 eV  115.26 nm  f=0.0588  <S**2>=0.000
      13 -> 18         0.11751
      13 -> 20        -0.37993
      13 -> 21         0.36871
      13 -> 22         0.42208

 Excited State  15:      Singlet-A     10.8971 eV  113.78 nm  f=0.0702  <S**2>=0.000
      10 -> 14         0.12124
      11 -> 15        -0.15005
      11 -> 16         0.14073
      13 -> 20         0.47129
      13 -> 21         0.39752

 The electronic state is 1-A.
 Alpha  occ. eigenvalues --   -1.90172  -1.16048  -0.91876  -0.82347  -0.77948
 Alpha  occ. eigenvalues --   -0.69684  -0.66720  -0.57421  -0.55895  -0.47007
 Alpha  occ. eigenvalues --   -0.45114  -0.42414  -0.30548
 Alpha virt. eigenvalues --    0.10145   0.18190   0.19947   0.26848   0.28709
 Alpha virt. eigenvalues --    0.30005   0.32190   0.32634   0.34617   0.40745
 Alpha virt. eigenvalues --    0.44763

 Mulliken charges:
               1
     1  C   -0.201831
     2  C   -2.009311
     3  O    3.306111
     4  C   -2.017273
     5  C   -0.143294
     6  H    0.208753
     7  H    0.324836
     8  H    0.318670
     9  H    0.213339
 Sum of Mulliken charges =   0.00000

 Dipole moment (field-independent basis, Debye):
    X=             -0.4892    Y=            -10.9361    Z=              0.4976  Tot=             10.9583
 N-N= 1.032169479989D+02 E-N=-1.680932532724D+02  KE=-1.544353101425D+01
 Orbital energies and kinetic energies (alpha):
                                 1                 2
   1         O                -1.901717         -1.345722
   2         O                -1.160476         -1.038181
   3         O                -0.918760         -0.872832
   4         O                -0.823466         -0.592482
   5         O                -0.779479         -0.679984
   6         O                -0.696838         -0.596586
   7         O                -0.667203         -0.528283

 Normal termination of Gaussian 09 at Tue Dec 15 17:09:45 2015.
