 Gaussian 09, Revision D.01,
 Gaussian 09:  ES64L-G09RevD.01 24-Apr-2013

 ------------------------------------------------------------
 #P AM1(Input,print) CIS(Singlets,NStates=15) pop(full) force
 ------------------------------------------------------------

 -----------------
 AM1-Reparam Input
 -----------------
 Symbolic Z-matrix:
 Charge =  0 Multiplicity = 1

                         Standard orientation:
 ---------------------------------------------------------------------
 Center     Atomic      Atomic             Coordinates (Angstroms)
 Number     Number       Type             X           Y           Z
 ---------------------------------------------------------------------
      1          6           0       -1.032729    0.572104    0.000414
      2          6           0       -0.867807   -0.779098    0.021517
      3          8           0        0.523989   -1.052383   -0.018254
      4          6           0        1.173568    0.160036    0.029286
      5          6           0        0.178627    1.165936   -0.031989
      6          1           0        0.403013    2.173500    0.036660
      7          1           0        2.222840    0.172623    0.001934
      8          1           0       -1.443409   -1.672987   -0.025621
      9          1           0       -2.084308    1.032058    0.017688
 ---------------------------------------------------------------------

 SCF Done:  E(RAM1) =   2.59531335547     A.U. after   13 cycles

 Excitation energies and oscillator strengths:

 Excited State   1:      Singlet-A      5.4292 eV  228.36 nm  f=0.3259  <S**2>=0.000
      13 -> 14         0.69461
 This state for optimization and/or second-order correction.
 Total Energy, E(CIS) =   2.79483432167
 Copying the excited state density for this state as the 1-particle RhoCI density.

 Excited State   2:      Singlet-A      6.7015 eV  185.01 nm  f=0.0019  <S**2>=0.000
      10 -> 15        -0.10716
      13 -> 15         0.65367
      13 -> 16        -0.14483
      13 -> 19         0.13856

 Excited State   3:      Singlet-A      6.7812 eV  182.84 nm  f=0.0047  <S**2>=0.000
      10 -> 16         0.11673
      12 -> 14         0.18989
      13 -> 15         0.13833
      13 -> 16         0.63484
      13 -> 18        -0.10783

 Excited State   4:      Singlet-A      6.9963 eV  177.21 nm  f=0.0007  <S**2>=0.000
      11 -> 14        -0.39798
      12 -> 14         0.55808
      13 -> 16        -0.12496

 Excited State   5:      Singlet-A      7.1914 eV  172.41 nm  f=0.0025  <S**2>=0.000
      11 -> 14         0.56800
      12 -> 14         0.37175
      13 -> 15        -0.10418
      13 -> 16        -0.13507

 Excited State   6:      Singlet-A      8.2738 eV  149.85 nm  f=0.0005  <S**2>=0.000
      13 -> 17         0.64966
      13 -> 18        -0.18198
      13 -> 21        -0.12437

 Excited State   7:      Singlet-A      8.5148 eV  145.61 nm  f=0.0995  <S**2>=0.000
      10 -> 14         0.69050

 Excited State   8:      Singlet-A      9.3099 eV  133.17 nm  f=0.1548  <S**2>=0.000
       9 -> 15         0.11652
      11 -> 15         0.11064
      11 -> 16         0.27528
      11 -> 17         0.17300
      11 -> 18        -0.18234
      12 -> 15         0.33534
      12 -> 16         0.23848
      12 -> 17        -0.24706
      12 -> 18        -0.11960
      13 -> 18         0.14488

 Excited State   9:      Singlet-A      9.3672 eV  132.36 nm  f=0.0267  <S**2>=0.000
       7 -> 16        -0.11453
      10 -> 15        -0.29136
      10 -> 16         0.22586
      12 -> 16        -0.18444
      13 -> 17         0.14970
      13 -> 18         0.50623

 Excited State  10:      Singlet-A      9.6706 eV  128.21 nm  f=0.0030  <S**2>=0.000
       7 -> 15         0.13242
      10 -> 15         0.37805
      10 -> 16         0.27865
      11 -> 15        -0.15665
      13 -> 17         0.12894
      13 -> 19         0.43407

 Excited State  11:      Singlet-A      9.7988 eV  126.53 nm  f=0.0640  <S**2>=0.000
      11 -> 15        -0.19105
      11 -> 16        -0.15707
      12 -> 15        -0.23134
      12 -> 16         0.54979
      12 -> 19        -0.14745

 Excited State  12:      Singlet-A      9.8686 eV  125.64 nm  f=0.1948  <S**2>=0.000
      10 -> 15         0.12233
      11 -> 15         0.59620
      11 -> 16        -0.14575
      11 -> 19         0.15525
      12 -> 16         0.14951
      13 -> 19         0.12125

 Excited State  13:      Singlet-A     10.4029 eV  119.18 nm  f=0.0171  <S**2>=0.000
       9 -> 15         0.13903
      10 -> 15        -0.19980
      10 -> 16        -0.20419
      11 -> 16        -0.15269
      11 -> 17         0.10481
      12 -> 15         0.22917
      12 -> 17         0.24326
      13 -> 15        -0.12855
      13 -> 19         0.38088

 Excited State  14:      Singlet-A     10.4456 eV  118.70 nm  f=0.0260  <S**2>=0.000
       8 -> 16         0.11389
       9 -> 15        -0.17053
      10 -> 15        -0.27390
      10 -> 16        -0.12993
      11 -> 15         0.10984
      11 -> 16         0.17907
      11 -> 17        -0.14747
      11 -> 18         0.10894
      12 -> 15        -0.16785
      12 -> 17        -0.27724
      13 -> 15        -0.11697
      13 -> 18        -0.10671
      13 -> 19         0.30685

 Excited State  15:      Singlet-A     10.4906 eV  118.19 nm  f=0.0004  <S**2>=0.000
      10 -> 15        -0.25027
      10 -> 16         0.47805
      13 -> 16        -0.16043
      13 -> 18        -0.36876

 The electronic state is 1-A.
 Alpha  occ. eigenvalues --   -1.83372  -1.13121  -0.86721  -0.78515  -0.75778
 Alpha  occ. eigenvalues --   -0.66240  -0.62295  -0.56283  -0.55246  -0.44029
 Alpha  occ. eigenvalues --   -0.43613  -0.42699  -0.31165
 Alpha virt. eigenvalues --    0.09782   0.17576   0.17815   0.25280   0.27767
 Alpha virt. eigenvalues --    0.29914   0.35621   0.40785   0.46312   0.53944
 Alpha virt. eigenvalues --    0.57964

 Mulliken charges:
               1
     1  C   -0.153969
     2  C   -1.972558
     3  O    3.447288
     4  C   -2.023794
     5  C   -0.205462
     6  H    0.192629
     7  H    0.266661
     8  H    0.244846
     9  H    0.204360
 Sum of Mulliken charges =   0.00000

 Dipole moment (field-independent basis, Debye):
    X=              4.8852    Y=            -10.4306    Z=             -0.6880  Tot=             11.5385
 N-N= 1.035903849307D+02 E-N=-1.688670832691D+02  KE=-1.434147128007D+01
 Orbital energies and kinetic energies (alpha):
                                 1                 2
   1         O                -1.833723         -1.216153
   2         O                -1.131215         -0.975549
   3         O                -0.867213         -0.788247
   4         O                -0.785151         -0.538861
   5         O                -0.757781         -0.618542
   6         O                -0.662401         -0.566612
   7         O                -0.622952         -0.496961

 Normal termination of Gaussian 09 at Tue Dec 15 17:07:45 2015.
