 Gaussian 09, Revision D.01,
 Gaussian 09:  ES64L-G09RevD.01 24-Apr-2013

 ------------------------------------------------------------
 #P AM1(Input,print) CIS(Singlets,NStates=15) pop(full) force
 ------------------------------------------------------------

 -----------------
 AM1-Reparam Input
 -----------------
 Symbolic Z-matrix:
 Charge =  0 Multiplicity = 1

                         Standard orientation:
 ---------------------------------------------------------------------
 Center     Atomic      Atomic             Coordinates (Angstroms)
 Number     Number       Type             X           Y           Z
 ---------------------------------------------------------------------
      1          6           0        0.811789    0.906537    0.025962
      2          6           0        1.075719   -0.432537   -0.019495
      3          8           0       -0.075229   -1.151355    0.012376
      4          6           0       -1.172783   -0.259584   -0.018905
      5          6           0       -0.628214    1.018835    0.000406
      6          1           0       -1.201693    1.945600   -0.018772
      7          1           0       -2.175478   -0.712502    0.035409
      8          1           0        1.920125   -1.066049   -0.008658
      9          1           0        1.539818    1.644287   -0.034797
 ---------------------------------------------------------------------

 SCF Done:  E(RAM1) =   1.12168872874     A.U. after   14 cycles

 Excitation energies and oscillator strengths:

 Excited State   1:      Singlet-A      5.4718 eV  226.59 nm  f=0.1985  <S**2>=0.000
      12 -> 15         0.15200
      13 -> 14         0.67757
 This state for optimization and/or second-order correction.
 Total Energy, E(CIS) =   1.32277391093
 Copying the excited state density for this state as the 1-particle RhoCI density.

 Excited State   2:      Singlet-A      6.4110 eV  193.39 nm  f=0.0043  <S**2>=0.000
      13 -> 15         0.19839
      13 -> 16         0.63991
      13 -> 17         0.10409
      13 -> 18        -0.10315
      13 -> 19         0.12969

 Excited State   3:      Singlet-A      6.7293 eV  184.25 nm  f=0.0150  <S**2>=0.000
      12 -> 14        -0.36269
      13 -> 15         0.55992
      13 -> 16        -0.18778

 Excited State   4:      Singlet-A      7.0234 eV  176.53 nm  f=0.0002  <S**2>=0.000
      13 -> 16        -0.10241
      13 -> 17         0.64468
      13 -> 18         0.13366
      13 -> 19         0.10801
      13 -> 21        -0.15409

 Excited State   5:      Singlet-A      7.3282 eV  169.19 nm  f=0.0015  <S**2>=0.000
       9 -> 14         0.16070
      11 -> 14         0.67622

 Excited State   6:      Singlet-A      7.8614 eV  157.71 nm  f=0.1031  <S**2>=0.000
      10 -> 14         0.48907
      11 -> 15        -0.17923
      12 -> 14        -0.37676
      13 -> 15        -0.21874

 Excited State   7:      Singlet-A      7.8883 eV  157.18 nm  f=0.1587  <S**2>=0.000
      10 -> 14         0.40956
      11 -> 15        -0.15336
      12 -> 14         0.45308
      13 -> 15         0.25283

 Excited State   8:      Singlet-A      8.1882 eV  151.42 nm  f=0.0013  <S**2>=0.000
      12 -> 16         0.26859
      13 -> 17        -0.10858
      13 -> 18         0.50958
      13 -> 19         0.20280
      13 -> 20        -0.23185
      13 -> 22         0.13012
      13 -> 24        -0.12620

 Excited State   9:      Singlet-A      8.3284 eV  148.87 nm  f=0.0190  <S**2>=0.000
       9 -> 15        -0.20709
      10 -> 14         0.26615
      10 -> 15         0.11138
      11 -> 15         0.59256

 Excited State  10:      Singlet-A      8.3732 eV  148.07 nm  f=0.0004  <S**2>=0.000
      13 -> 19         0.47833
      13 -> 20         0.46533
      13 -> 22         0.10311

 Excited State  11:      Singlet-A      8.5027 eV  145.82 nm  f=0.0897  <S**2>=0.000
      12 -> 15         0.44031
      12 -> 16         0.41525
      12 -> 17         0.10231
      13 -> 17         0.10476
      13 -> 18        -0.19049
      13 -> 20         0.11543

 Excited State  12:      Singlet-A      8.6126 eV  143.96 nm  f=0.1615  <S**2>=0.000
      12 -> 15         0.48511
      12 -> 16        -0.41855
      12 -> 17        -0.13289
      13 -> 14        -0.10893
      13 -> 18         0.10255

 Excited State  13:      Singlet-A      8.9608 eV  138.36 nm  f=0.0072  <S**2>=0.000
       7 -> 16         0.10675
      12 -> 16        -0.14502
      12 -> 17         0.52597
      13 -> 18        -0.22139
      13 -> 19         0.19186
      13 -> 20        -0.29289

 Excited State  14:      Singlet-A      9.3036 eV  133.26 nm  f=0.0609  <S**2>=0.000
       9 -> 16        -0.21837
      10 -> 16         0.19957
      10 -> 17        -0.13330
      11 -> 16         0.51737
      11 -> 17         0.18809
      11 -> 19         0.14925
      13 -> 15        -0.10084

 Excited State  15:      Singlet-A      9.4272 eV  131.52 nm  f=0.0003  <S**2>=0.000
       9 -> 14        -0.43193
      11 -> 14         0.10204
      12 -> 17        -0.14029
      13 -> 19         0.11742
      13 -> 21         0.44850

 The electronic state is 1-A.
 Alpha  occ. eigenvalues --   -1.80810  -1.17638  -0.98361  -0.87105  -0.80328
 Alpha  occ. eigenvalues --   -0.73522  -0.70334  -0.61170  -0.56532  -0.52296
 Alpha  occ. eigenvalues --   -0.49841  -0.47029  -0.38286
 Alpha virt. eigenvalues --    0.03102   0.08445   0.09943   0.11684   0.18186
 Alpha virt. eigenvalues --    0.18573   0.19364   0.21388   0.26380   0.26391
 Alpha virt. eigenvalues --    0.27109

 Mulliken charges:
               1
     1  C   -0.149175
     2  C   -1.222726
     3  O    2.129817
     4  C   -1.244707
     5  C   -0.111867
     6  H    0.112073
     7  H    0.193508
     8  H    0.185310
     9  H    0.107767
 Sum of Mulliken charges =   0.00000

 Dipole moment (field-independent basis, Debye):
    X=             -0.3219    Y=             -7.2746    Z=              0.3028  Tot=              7.2880
 N-N= 1.037114879944D+02 E-N=-1.700113959044D+02  KE=-1.490317030934D+01
 Orbital energies and kinetic energies (alpha):
                                 1                 2
   1         O                -1.808104         -1.215403
   2         O                -1.176376         -0.958768
   3         O                -0.983610         -0.803062
   4         O                -0.871048         -0.641301
   5         O                -0.803275         -0.665267
   6         O                -0.735218         -0.600282
   7         O                -0.703344         -0.502515

 Normal termination of Gaussian 09 at Tue Dec 15 17:05:43 2015.
