 Gaussian 09, Revision D.01,
 Gaussian 09:  ES64L-G09RevD.01 24-Apr-2013

 ------------------------------------------------------------
 #P AM1(Input,print) CIS(Singlets,NStates=15) pop(full) force
 ------------------------------------------------------------

 -----------------
 AM1-Reparam Input
 -----------------
 Symbolic Z-matrix:
 Charge =  0 Multiplicity = 1

                         Standard orientation:
 ---------------------------------------------------------------------
 Center     Atomic      Atomic             Coordinates (Angstroms)
 Number     Number       Type             X           Y           Z
 ---------------------------------------------------------------------
      1          6           0       -1.157311    0.290330   -0.028214
      2          6           0       -0.572330   -0.964085    0.039219
      3          8           0        0.763191   -0.880420   -0.007601
      4          6           0        1.032317    0.418708   -0.009386
      5          6           0       -0.081540    1.193798    0.014300
      6          1           0       -0.168388    2.210029    0.033333
      7          1           0        2.082468    0.696339   -0.010745
      8          1           0       -1.054420   -1.966954   -0.042835
      9          1           0       -2.292005    0.471443   -0.014456
 ---------------------------------------------------------------------

 SCF Done:  E(RAM1) =  0.273054588715E-01 A.U. after   14 cycles

 Excitation energies and oscillator strengths:

 Excited State   1:      Singlet-A      4.3810 eV  283.00 nm  f=0.0936  <S**2>=0.000
      12 -> 15         0.19337
      13 -> 14         0.67287
 This state for optimization and/or second-order correction.
 Total Energy, E(CIS) =  0.188305786601
 Copying the excited state density for this state as the 1-particle RhoCI density.

 Excited State   2:      Singlet-A      4.8228 eV  257.08 nm  f=0.0038  <S**2>=0.000
      12 -> 14         0.15340
      13 -> 15        -0.30781
      13 -> 16         0.59448
      13 -> 21         0.11305

 Excited State   3:      Singlet-A      4.9972 eV  248.11 nm  f=0.0118  <S**2>=0.000
      12 -> 14        -0.34904
      13 -> 15         0.50687
      13 -> 16         0.33390

 Excited State   4:      Singlet-A      5.8317 eV  212.60 nm  f=0.0020  <S**2>=0.000
      12 -> 19         0.14334
      12 -> 20        -0.11013
      12 -> 21        -0.14641
      13 -> 17         0.30732
      13 -> 18         0.26747
      13 -> 19         0.41556
      13 -> 21        -0.15800
      13 -> 23        -0.23139

 Excited State   5:      Singlet-A      5.9814 eV  207.28 nm  f=0.0004  <S**2>=0.000
      12 -> 17        -0.14524
      12 -> 18        -0.13441
      12 -> 20        -0.14418
      12 -> 23         0.11642
      13 -> 17         0.18246
      13 -> 18         0.27301
      13 -> 19        -0.24717
      13 -> 20         0.35466
      13 -> 21         0.30602

 Excited State   6:      Singlet-A      6.2013 eV  199.93 nm  f=0.0443  <S**2>=0.000
       7 -> 16        -0.15473
      12 -> 14        -0.18170
      12 -> 15        -0.23759
      12 -> 16         0.56616
      12 -> 21         0.12537
      13 -> 15        -0.11735

 Excited State   7:      Singlet-A      6.2679 eV  197.81 nm  f=0.3410  <S**2>=0.000
      12 -> 14         0.52906
      12 -> 16         0.21615
      13 -> 15         0.33713

 Excited State   8:      Singlet-A      6.4567 eV  192.03 nm  f=0.0410  <S**2>=0.000
      11 -> 14         0.10651
      12 -> 15         0.32275
      13 -> 17        -0.35063
      13 -> 18         0.44471

 Excited State   9:      Singlet-A      6.4900 eV  191.04 nm  f=0.1047  <S**2>=0.000
      12 -> 15         0.53387
      12 -> 16         0.21160
      13 -> 14        -0.14654
      13 -> 17         0.22593
      13 -> 18        -0.22226

 Excited State  10:      Singlet-A      7.0217 eV  176.57 nm  f=0.0018  <S**2>=0.000
      12 -> 18         0.40276
      12 -> 19         0.10974
      13 -> 17         0.16612
      13 -> 18         0.16470
      13 -> 19        -0.35565
      13 -> 21        -0.26835

 Excited State  11:      Singlet-A      7.0419 eV  176.07 nm  f=0.0062  <S**2>=0.000
       9 -> 14         0.14619
      10 -> 14        -0.27337
      10 -> 15        -0.14491
      11 -> 14         0.49001
      11 -> 15         0.28665
      13 -> 21        -0.11853

 Excited State  12:      Singlet-A      7.2474 eV  171.07 nm  f=0.0017  <S**2>=0.000
      11 -> 15         0.14622
      12 -> 17         0.41330
      12 -> 19        -0.17928
      12 -> 21         0.19035
      12 -> 22        -0.11793
      12 -> 23        -0.14181
      13 -> 17         0.22079
      13 -> 18         0.14034
      13 -> 20        -0.23017
      13 -> 21         0.14743
      13 -> 24         0.11071

 Excited State  13:      Singlet-A      7.3078 eV  169.66 nm  f=0.0019  <S**2>=0.000
       9 -> 14         0.31454
       9 -> 15        -0.11859
      10 -> 14         0.40967
      10 -> 15        -0.27618
      11 -> 14         0.18169
      11 -> 15        -0.18558
      12 -> 18         0.10454
      13 -> 17         0.13976
      13 -> 21         0.12655

 Excited State  14:      Singlet-A      7.4464 eV  166.50 nm  f=0.0035  <S**2>=0.000
      10 -> 14        -0.14661
      12 -> 18         0.24996
      12 -> 19         0.11334
      12 -> 20         0.20824
      12 -> 22         0.24824
      12 -> 23         0.14826
      13 -> 16        -0.10122
      13 -> 19         0.20993
      13 -> 21         0.31483
      13 -> 22         0.25415
      13 -> 23         0.14270

 Excited State  15:      Singlet-A      7.6425 eV  162.23 nm  f=0.0155  <S**2>=0.000
      10 -> 14         0.11953
      12 -> 20        -0.16814
      12 -> 23        -0.10161
      13 -> 17         0.12473
      13 -> 20         0.28971
      13 -> 21        -0.24425
      13 -> 22         0.29548
      13 -> 23         0.39958

 The electronic state is 1-A.
 Alpha  occ. eigenvalues --   -1.59555  -1.24959  -1.09009  -0.83158  -0.81195
 Alpha  occ. eigenvalues --   -0.68843  -0.61756  -0.56544  -0.51784  -0.49674
 Alpha  occ. eigenvalues --   -0.49176  -0.39554  -0.34193
 Alpha virt. eigenvalues --    0.03209   0.06423   0.09768   0.13989   0.14499
 Alpha virt. eigenvalues --    0.15341   0.17457   0.18517   0.19250   0.20825
 Alpha virt. eigenvalues --    0.22722

 Mulliken charges:
               1
     1  C   -0.211320
     2  C   -0.140008
     3  O   -0.031389
     4  C   -0.118331
     5  C   -0.195106
     6  H    0.154531
     7  H    0.183203
     8  H    0.190775
     9  H    0.167645
 Sum of Mulliken charges =   0.00000

 Dipole moment (field-independent basis, Debye):
    X=             -0.2876    Y=              0.1011    Z=             -0.0580  Tot=              0.3103
 N-N= 1.038197233820D+02 E-N=-1.715992395729D+02  KE=-1.659755942118D+01
 Orbital energies and kinetic energies (alpha):
                                 1                 2
   1         O                -1.595552         -1.330399
   2         O                -1.249591         -1.063887
   3         O                -1.090095         -0.949971
   4         O                -0.831580         -0.708540
   5         O                -0.811955         -0.715850
   6         O                -0.688432         -0.604543
   7         O                -0.617556         -0.495337

 Normal termination of Gaussian 09 at Tue Dec 15 16:10:33 2015.
