 Gaussian 09, Revision D.01,
 Gaussian 09:  ES64L-G09RevD.01 24-Apr-2013

 ------------------------------------------------------------
 #P AM1(Input,print) CIS(Singlets,NStates=15) pop(full) force
 ------------------------------------------------------------

 -----------------
 AM1-Reparam Input
 -----------------
 Symbolic Z-matrix:
 Charge =  0 Multiplicity = 1

                         Standard orientation:
 ---------------------------------------------------------------------
 Center     Atomic      Atomic             Coordinates (Angstroms)
 Number     Number       Type             X           Y           Z
 ---------------------------------------------------------------------
      1          6           0        0.867254    0.750367   -0.006659
      2          6           0        1.031277   -0.573175    0.003733
      3          8           0       -0.267478   -1.103384   -0.017968
      4          6           0       -1.161435   -0.142458    0.039961
      5          6           0       -0.452088    1.109645   -0.021723
      6          1           0       -0.915346    2.034524    0.000670
      7          1           0       -2.163544   -0.350638   -0.026643
      8          1           0        1.785176   -1.221629    0.023659
      9          1           0        1.723492    1.498536    0.054184
 ---------------------------------------------------------------------

 SCF Done:  E(RAM1) =   2.04540756385     A.U. after   14 cycles

 Excitation energies and oscillator strengths:

 Excited State   1:      Singlet-A      5.6496 eV  219.46 nm  f=0.3205  <S**2>=0.000
      13 -> 14         0.68929
 This state for optimization and/or second-order correction.
 Total Energy, E(CIS) =   2.25302759252
 Copying the excited state density for this state as the 1-particle RhoCI density.

 Excited State   2:      Singlet-A      6.8319 eV  181.48 nm  f=0.0175  <S**2>=0.000
      12 -> 14        -0.21235
      13 -> 15         0.64609
      13 -> 17        -0.15159

 Excited State   3:      Singlet-A      6.8996 eV  179.70 nm  f=0.0055  <S**2>=0.000
      12 -> 14         0.66012
      13 -> 15         0.20026

 Excited State   4:      Singlet-A      7.5992 eV  163.15 nm  f=0.0048  <S**2>=0.000
      13 -> 16         0.63820
      13 -> 19        -0.23166

 Excited State   5:      Singlet-A      7.7578 eV  159.82 nm  f=0.0045  <S**2>=0.000
      10 -> 14         0.53348
      11 -> 14        -0.42929

 Excited State   6:      Singlet-A      8.3012 eV  149.36 nm  f=0.0003  <S**2>=0.000
      13 -> 16        -0.16951
      13 -> 17         0.17788
      13 -> 18         0.46466
      13 -> 19        -0.24827
      13 -> 20         0.35478

 Excited State   7:      Singlet-A      8.7795 eV  141.22 nm  f=0.0742  <S**2>=0.000
      10 -> 14         0.42080
      11 -> 14         0.51190
      12 -> 15        -0.10541
      12 -> 17         0.10481

 Excited State   8:      Singlet-A      9.3015 eV  133.29 nm  f=0.0084  <S**2>=0.000
      11 -> 15        -0.15374
      11 -> 16         0.12782
      13 -> 17         0.60212
      13 -> 19         0.15383
      13 -> 20        -0.14735

 Excited State   9:      Singlet-A      9.4721 eV  130.89 nm  f=0.1899  <S**2>=0.000
       9 -> 15         0.13251
      10 -> 14         0.12795
      10 -> 15        -0.18146
      10 -> 16        -0.12290
      10 -> 19         0.11631
      11 -> 14         0.16308
      11 -> 15         0.17361
      11 -> 16         0.11393
      12 -> 15         0.43226
      12 -> 17        -0.17606
      12 -> 18        -0.13828
      13 -> 14        -0.10621

 Excited State  10:      Singlet-A      9.5890 eV  129.30 nm  f=0.0013  <S**2>=0.000
      10 -> 15         0.17194
      11 -> 15         0.16431
      13 -> 16         0.11395
      13 -> 18         0.46566
      13 -> 19         0.36130
      13 -> 20        -0.19089

 Excited State  11:      Singlet-A      9.9635 eV  124.44 nm  f=0.0132  <S**2>=0.000
      12 -> 16         0.11104
      13 -> 18        -0.12456
      13 -> 19         0.39370
      13 -> 20         0.47502
      13 -> 21         0.19748

 Excited State  12:      Singlet-A      9.9910 eV  124.10 nm  f=0.0071  <S**2>=0.000
      10 -> 15         0.37644
      10 -> 17        -0.11814
      11 -> 15        -0.29959
      12 -> 15         0.30994
      12 -> 16         0.26354
      12 -> 19        -0.12573
      13 -> 19        -0.12857
      13 -> 20        -0.10626

 Excited State  13:      Singlet-A     10.1721 eV  121.89 nm  f=0.0638  <S**2>=0.000
      10 -> 16         0.11840
      11 -> 15         0.37568
      12 -> 16         0.30844
      12 -> 17         0.19044
      12 -> 18         0.27884
      12 -> 19        -0.18037

 Excited State  14:      Singlet-A     10.2195 eV  121.32 nm  f=0.0308  <S**2>=0.000
       9 -> 15         0.16928
      10 -> 15        -0.20582
      11 -> 15        -0.24106
      12 -> 15         0.20579
      12 -> 16        -0.25802
      12 -> 17         0.11500
      12 -> 18         0.38838

 Excited State  15:      Singlet-A     10.2330 eV  121.16 nm  f=0.0886  <S**2>=0.000
      10 -> 15         0.38443
      11 -> 15         0.22979
      12 -> 15         0.12806
      12 -> 16        -0.38373
      12 -> 18         0.12545
      12 -> 19         0.12610
      13 -> 17         0.10581
      13 -> 21         0.19056

 The electronic state is 1-A.
 Alpha  occ. eigenvalues --   -1.94909  -1.21281  -0.97291  -0.82638  -0.80326
 Alpha  occ. eigenvalues --   -0.69507  -0.65888  -0.57622  -0.54458  -0.45139
 Alpha  occ. eigenvalues --   -0.44924  -0.42068  -0.31882
 Alpha virt. eigenvalues --    0.10348   0.18046   0.21284   0.24791   0.26816
 Alpha virt. eigenvalues --    0.27535   0.29068   0.30488   0.35882   0.44073
 Alpha virt. eigenvalues --    0.49640

 Mulliken charges:
               1
     1  C   -0.150218
     2  C   -1.997844
     3  O    3.204657
     4  C   -2.071849
     5  C   -0.249055
     6  H    0.263159
     7  H    0.378252
     8  H    0.354579
     9  H    0.268318
 Sum of Mulliken charges =   0.00000

 Dipole moment (field-independent basis, Debye):
    X=             -2.1683    Y=             -8.9433    Z=             -0.5546  Tot=              9.2191
 N-N= 1.047587613319D+02 E-N=-1.701121852078D+02  KE=-1.555585520687D+01
 Orbital energies and kinetic energies (alpha):
                                 1                 2
   1         O                -1.949091         -1.398620
   2         O                -1.212813         -1.067027
   3         O                -0.972911         -0.873015
   4         O                -0.826383         -0.609902
   5         O                -0.803260         -0.690085
   6         O                -0.695071         -0.578173
   7         O                -0.658883         -0.524529

 Normal termination of Gaussian 09 at Tue Dec 15 17:07:29 2015.
