 Gaussian 09, Revision D.01,
 Gaussian 09:  ES64L-G09RevD.01 24-Apr-2013

 ------------------------------------------------------------
 #P AM1(Input,print) CIS(Singlets,NStates=15) pop(full) force
 ------------------------------------------------------------

 -----------------
 AM1-Reparam Input
 -----------------
 Symbolic Z-matrix:
 Charge =  0 Multiplicity = 1

                         Standard orientation:
 ---------------------------------------------------------------------
 Center     Atomic      Atomic             Coordinates (Angstroms)
 Number     Number       Type             X           Y           Z
 ---------------------------------------------------------------------
      1          6           0       -0.649209    0.952741   -0.010527
      2          6           0       -1.125689   -0.286260   -0.018166
      3          8           0       -0.016815   -1.185070    0.020537
      4          6           0        1.071734   -0.378041   -0.018015
      5          6           0        0.715134    0.952553    0.003449
      6          1           0        1.405952    1.806359    0.024339
      7          1           0        1.996069   -0.867944    0.000200
      8          1           0       -2.049384   -0.749091    0.004314
      9          1           0       -1.289940    1.845278    0.066410
 ---------------------------------------------------------------------

 SCF Done:  E(RAM1) =   1.73766049523     A.U. after   14 cycles

 Excitation energies and oscillator strengths:

 Excited State   1:      Singlet-A      5.6243 eV  220.45 nm  f=0.3106  <S**2>=0.000
      13 -> 14         0.68985
 This state for optimization and/or second-order correction.
 Total Energy, E(CIS) =   1.94434841721
 Copying the excited state density for this state as the 1-particle RhoCI density.

 Excited State   2:      Singlet-A      6.4413 eV  192.48 nm  f=0.0042  <S**2>=0.000
      11 -> 15        -0.11931
      13 -> 15         0.64086
      13 -> 17         0.23060

 Excited State   3:      Singlet-A      6.9184 eV  179.21 nm  f=0.0011  <S**2>=0.000
      11 -> 16         0.12846
      13 -> 16         0.63692
      13 -> 17         0.11081
      13 -> 20         0.11813
      13 -> 21         0.13345

 Excited State   4:      Singlet-A      7.2867 eV  170.15 nm  f=0.0009  <S**2>=0.000
      12 -> 14         0.67335
      13 -> 21         0.13756

 Excited State   5:      Singlet-A      7.7236 eV  160.53 nm  f=0.0143  <S**2>=0.000
      10 -> 14         0.14238
      11 -> 15         0.10106
      13 -> 15        -0.19055
      13 -> 17         0.55379
      13 -> 21        -0.31669

 Excited State   6:      Singlet-A      7.9600 eV  155.76 nm  f=0.0053  <S**2>=0.000
      11 -> 16        -0.10452
      12 -> 14        -0.14250
      13 -> 16        -0.12104
      13 -> 17         0.32275
      13 -> 21         0.57298

 Excited State   7:      Singlet-A      8.1422 eV  152.27 nm  f=0.0018  <S**2>=0.000
      10 -> 14         0.62380
      11 -> 14        -0.22977
      13 -> 17        -0.10426
      13 -> 18        -0.11599
      13 -> 21         0.13428

 Excited State   8:      Singlet-A      8.5126 eV  145.65 nm  f=0.0027  <S**2>=0.000
      10 -> 14         0.12700
      13 -> 16         0.11626
      13 -> 18         0.62797
      13 -> 19         0.17907
      13 -> 20        -0.14391

 Excited State   9:      Singlet-A      8.6863 eV  142.74 nm  f=0.0002  <S**2>=0.000
      13 -> 18        -0.25983
      13 -> 19         0.54650
      13 -> 20        -0.33342

 Excited State  10:      Singlet-A      8.8354 eV  140.33 nm  f=0.0575  <S**2>=0.000
      10 -> 14         0.23789
      11 -> 14         0.61206
      12 -> 17         0.11551

 Excited State  11:      Singlet-A      9.1746 eV  135.14 nm  f=0.0970  <S**2>=0.000
      13 -> 19         0.37460
      13 -> 20         0.57590

 Excited State  12:      Singlet-A      9.3978 eV  131.93 nm  f=0.0301  <S**2>=0.000
       9 -> 15        -0.15665
      10 -> 15         0.10185
      10 -> 16         0.16679
      10 -> 17         0.26208
      10 -> 18        -0.10679
      10 -> 21         0.11812
      11 -> 14        -0.11102
      12 -> 15         0.35572
      12 -> 16        -0.11104
      12 -> 17         0.21385
      12 -> 18         0.16037
      12 -> 21        -0.19387

 Excited State  13:      Singlet-A      9.7037 eV  127.77 nm  f=0.0067  <S**2>=0.000
       7 -> 15         0.12420
      10 -> 15         0.11858
      11 -> 15         0.62066
      11 -> 17         0.12483
      13 -> 15         0.16303

 Excited State  14:      Singlet-A      9.9047 eV  125.18 nm  f=0.2304  <S**2>=0.000
       8 -> 15         0.10378
       9 -> 15        -0.14617
      10 -> 19         0.15131
      11 -> 14         0.17084
      12 -> 15         0.38273
      12 -> 16         0.14384
      12 -> 17        -0.17361
      12 -> 18        -0.13175
      12 -> 19         0.35482

 Excited State  15:      Singlet-A     10.0601 eV  123.24 nm  f=0.2489  <S**2>=0.000
      12 -> 16         0.58623
      12 -> 17         0.21302
      12 -> 19        -0.12160
      12 -> 20         0.11702
      12 -> 21         0.10449

 The electronic state is 1-A.
 Alpha  occ. eigenvalues --   -1.90474  -1.23886  -0.99121  -0.82284  -0.80753
 Alpha  occ. eigenvalues --   -0.68652  -0.62917  -0.53860  -0.51732  -0.42481
 Alpha  occ. eigenvalues --   -0.41534  -0.39953  -0.27886
 Alpha virt. eigenvalues --    0.14292   0.18788   0.20939   0.25067   0.27446
 Alpha virt. eigenvalues --    0.29016   0.30038   0.30808   0.34764   0.44171
 Alpha virt. eigenvalues --    0.48064

 Mulliken charges:
               1
     1  C   -0.072337
     2  C   -1.913245
     3  O    3.178309
     4  C   -1.951208
     5  C   -0.161516
     6  H    0.177583
     7  H    0.296058
     8  H    0.281435
     9  H    0.164921
 Sum of Mulliken charges =   0.00000

 Dipole moment (field-independent basis, Debye):
    X=              0.0486    Y=            -10.8706    Z=              0.6653  Tot=             10.8910
 N-N= 1.040442357406D+02 E-N=-1.695406318994D+02  KE=-1.576187653101D+01
 Orbital energies and kinetic energies (alpha):
                                 1                 2
   1         O                -1.904738         -1.359925
   2         O                -1.238857         -1.119685
   3         O                -0.991207         -0.921972
   4         O                -0.822842         -0.693442
   5         O                -0.807530         -0.644521
   6         O                -0.686525         -0.590295
   7         O                -0.629171         -0.517580

 Normal termination of Gaussian 09 at Tue Dec 15 17:07:03 2015.
