 Gaussian 09, Revision D.01,
 Gaussian 09:  ES64L-G09RevD.01 24-Apr-2013

 ------------------------------------------------------------
 #P AM1(Input,print) CIS(Singlets,NStates=15) pop(full) force
 ------------------------------------------------------------

 -----------------
 AM1-Reparam Input
 -----------------
 Symbolic Z-matrix:
 Charge =  0 Multiplicity = 1

                         Standard orientation:
 ---------------------------------------------------------------------
 Center     Atomic      Atomic             Coordinates (Angstroms)
 Number     Number       Type             X           Y           Z
 ---------------------------------------------------------------------
      1          6           0       -0.635852    0.987878    0.013521
      2          6           0       -1.130008   -0.288040    0.007647
      3          8           0       -0.073227   -1.147976    0.000258
      4          6           0        1.100177   -0.403273   -0.007055
      5          6           0        0.726460    0.910716   -0.029787
      6          1           0        1.488692    1.726728    0.064265
      7          1           0        2.010116   -0.945801    0.059112
      8          1           0       -2.049912   -0.717208   -0.032770
      9          1           0       -1.227742    1.876404    0.001369
 ---------------------------------------------------------------------

 SCF Done:  E(RAM1) =   1.10321670329     A.U. after   14 cycles

 Excitation energies and oscillator strengths:

 Excited State   1:      Singlet-A      5.7621 eV  215.17 nm  f=0.1603  <S**2>=0.000
      12 -> 15         0.16171
      13 -> 14         0.66897
 This state for optimization and/or second-order correction.
 Total Energy, E(CIS) =   1.31496886373
 Copying the excited state density for this state as the 1-particle RhoCI density.

 Excited State   2:      Singlet-A      6.6695 eV  185.90 nm  f=0.0051  <S**2>=0.000
      13 -> 16         0.68024
      13 -> 20        -0.13124

 Excited State   3:      Singlet-A      6.9896 eV  177.38 nm  f=0.0083  <S**2>=0.000
      12 -> 14        -0.39571
      13 -> 15         0.56353

 Excited State   4:      Singlet-A      7.3726 eV  168.17 nm  f=0.0000  <S**2>=0.000
      12 -> 16        -0.14099
      13 -> 17         0.64871
      13 -> 18         0.10614
      13 -> 21        -0.15644

 Excited State   5:      Singlet-A      7.5575 eV  164.05 nm  f=0.0014  <S**2>=0.000
       9 -> 14         0.14967
      10 -> 14        -0.13773
      11 -> 14         0.66232

 Excited State   6:      Singlet-A      7.7116 eV  160.78 nm  f=0.0076  <S**2>=0.000
       9 -> 14         0.11075
      10 -> 14         0.64949
      11 -> 14         0.13855
      11 -> 15        -0.11875

 Excited State   7:      Singlet-A      8.0520 eV  153.98 nm  f=0.2268  <S**2>=0.000
      10 -> 14        -0.14340
      11 -> 16         0.11216
      12 -> 14         0.55220
      13 -> 15         0.36216

 Excited State   8:      Singlet-A      8.3461 eV  148.55 nm  f=0.0238  <S**2>=0.000
       9 -> 15        -0.21824
      10 -> 14         0.15619
      10 -> 15         0.20234
      11 -> 15         0.58850
      12 -> 15        -0.11809

 Excited State   9:      Singlet-A      8.3474 eV  148.53 nm  f=0.0018  <S**2>=0.000
      12 -> 16         0.51902
      13 -> 18         0.39517
      13 -> 19        -0.14991
      13 -> 24        -0.12664

 Excited State  10:      Singlet-A      8.5648 eV  144.76 nm  f=0.0110  <S**2>=0.000
      12 -> 15        -0.15798
      12 -> 16        -0.17297
      13 -> 18         0.34884
      13 -> 19         0.47730
      13 -> 20        -0.21239
      13 -> 22         0.11676

 Excited State  11:      Singlet-A      8.6251 eV  143.75 nm  f=0.0857  <S**2>=0.000
      12 -> 15         0.37291
      12 -> 16        -0.30216
      13 -> 17        -0.13954
      13 -> 18         0.36213
      13 -> 19        -0.25018
      13 -> 24        -0.12254

 Excited State  12:      Singlet-A      8.6400 eV  143.50 nm  f=0.1563  <S**2>=0.000
      12 -> 15         0.51193
      12 -> 16         0.22124
      13 -> 14        -0.11094
      13 -> 18        -0.10702
      13 -> 19         0.33282

 Excited State  13:      Singlet-A      9.0976 eV  136.28 nm  f=0.0052  <S**2>=0.000
       7 -> 16         0.10142
      11 -> 16        -0.16998
      12 -> 17         0.58570
      13 -> 19        -0.12350
      13 -> 20        -0.25071

 Excited State  14:      Singlet-A      9.2448 eV  134.11 nm  f=0.0648  <S**2>=0.000
       9 -> 16        -0.21121
      10 -> 16         0.13143
      10 -> 17        -0.19394
      11 -> 16         0.52341
      11 -> 17         0.11380
      11 -> 20        -0.11876
      12 -> 17         0.15393
      13 -> 15        -0.10256

 Excited State  15:      Singlet-A      9.3470 eV  132.65 nm  f=0.1133  <S**2>=0.000
       9 -> 17         0.19614
      10 -> 16         0.49834
      10 -> 19        -0.19933
      10 -> 20        -0.10471
      11 -> 18         0.27855
      13 -> 14         0.11919

 The electronic state is 1-A.
 Alpha  occ. eigenvalues --   -1.82318  -1.20390  -0.99511  -0.87228  -0.82003
 Alpha  occ. eigenvalues --   -0.74060  -0.71617  -0.61698  -0.56788  -0.51117
 Alpha  occ. eigenvalues --   -0.49989  -0.47033  -0.39524
 Alpha virt. eigenvalues --    0.03907   0.08773   0.10097   0.12141   0.17868
 Alpha virt. eigenvalues --    0.18739   0.19400   0.21752   0.26607   0.26734
 Alpha virt. eigenvalues --    0.27547

 Mulliken charges:
               1
     1  C   -0.138884
     2  C   -1.247957
     3  O    2.150696
     4  C   -1.258854
     5  C   -0.124168
     6  H    0.124103
     7  H    0.192763
     8  H    0.185885
     9  H    0.116416
 Sum of Mulliken charges =   0.00000

 Dipole moment (field-independent basis, Debye):
    X=             -0.3740    Y=             -6.9586    Z=              0.0791  Tot=              6.9691
 N-N= 1.045224181224D+02 E-N=-1.713702638082D+02  KE=-1.500261310161D+01
 Orbital energies and kinetic energies (alpha):
                                 1                 2
   1         O                -1.823175         -1.236902
   2         O                -1.203895         -0.975171
   3         O                -0.995111         -0.820409
   4         O                -0.872282         -0.632016
   5         O                -0.820034         -0.671962
   6         O                -0.740603         -0.604441
   7         O                -0.716171         -0.516342

 Normal termination of Gaussian 09 at Tue Dec 15 17:05:38 2015.
