 Gaussian 09, Revision D.01,
 Gaussian 09:  ES64L-G09RevD.01 24-Apr-2013

 ------------------------------------------------------------
 #P AM1(Input,print) CIS(Singlets,NStates=15) pop(full) force
 ------------------------------------------------------------

 -----------------
 AM1-Reparam Input
 -----------------
 Symbolic Z-matrix:
 Charge =  0 Multiplicity = 1

                         Standard orientation:
 ---------------------------------------------------------------------
 Center     Atomic      Atomic             Coordinates (Angstroms)
 Number     Number       Type             X           Y           Z
 ---------------------------------------------------------------------
      1          6           0       -0.684561    0.942479   -0.004022
      2          6           0       -1.128426   -0.256752    0.028697
      3          8           0       -0.062078   -1.183638   -0.026626
      4          6           0        1.134487   -0.371953    0.024121
      5          6           0        0.738963    0.954621   -0.025195
      6          1           0        1.430802    1.758637    0.020651
      7          1           0        2.086086   -0.898317    0.043721
      8          1           0       -2.030648   -0.814098   -0.001215
      9          1           0       -1.352394    1.812515    0.008243
 ---------------------------------------------------------------------

 SCF Done:  E(RAM1) =   1.76290165560     A.U. after   14 cycles

 Excitation energies and oscillator strengths:

 Excited State   1:      Singlet-A      5.2495 eV  236.18 nm  f=0.3234  <S**2>=0.000
      13 -> 14         0.69274
 This state for optimization and/or second-order correction.
 Total Energy, E(CIS) =   1.95581734954
 Copying the excited state density for this state as the 1-particle RhoCI density.

 Excited State   2:      Singlet-A      5.9213 eV  209.39 nm  f=0.0002  <S**2>=0.000
      11 -> 15         0.12298
      13 -> 15         0.67277
      13 -> 17         0.11079

 Excited State   3:      Singlet-A      6.4346 eV  192.68 nm  f=0.0029  <S**2>=0.000
      11 -> 16        -0.12185
      13 -> 16         0.62640
      13 -> 17         0.23106
      13 -> 19         0.13627
      13 -> 20        -0.10436

 Excited State   4:      Singlet-A      7.1315 eV  173.85 nm  f=0.0014  <S**2>=0.000
      12 -> 14         0.63970
      13 -> 20         0.21693
      13 -> 21         0.13169

 Excited State   5:      Singlet-A      7.3779 eV  168.05 nm  f=0.0127  <S**2>=0.000
      11 -> 16         0.11381
      12 -> 14         0.14530
      13 -> 16        -0.22208
      13 -> 17         0.51298
      13 -> 18        -0.12663
      13 -> 20        -0.30188
      13 -> 21        -0.17678

 Excited State   6:      Singlet-A      7.4449 eV  166.54 nm  f=0.0105  <S**2>=0.000
      12 -> 14        -0.24175
      13 -> 15        -0.11407
      13 -> 17         0.38967
      13 -> 20         0.44288
      13 -> 21         0.24936

 Excited State   7:      Singlet-A      8.0595 eV  153.84 nm  f=0.0018  <S**2>=0.000
      10 -> 14         0.69149

 Excited State   8:      Singlet-A      8.2234 eV  150.77 nm  f=0.0005  <S**2>=0.000
      13 -> 16        -0.13879
      13 -> 18         0.30624
      13 -> 19         0.58403
      13 -> 21         0.12497

 Excited State   9:      Singlet-A      8.4575 eV  146.60 nm  f=0.0031  <S**2>=0.000
      13 -> 18         0.60839
      13 -> 19        -0.30924
      13 -> 21        -0.12569

 Excited State  10:      Singlet-A      8.6755 eV  142.91 nm  f=0.0362  <S**2>=0.000
      11 -> 14         0.62831
      12 -> 15        -0.20597
      13 -> 22         0.15855

 Excited State  11:      Singlet-A      8.9512 eV  138.51 nm  f=0.0897  <S**2>=0.000
      13 -> 19        -0.15734
      13 -> 20        -0.34284
      13 -> 21         0.57664

 Excited State  12:      Singlet-A      9.2326 eV  134.29 nm  f=0.1154  <S**2>=0.000
       8 -> 15        -0.16989
      10 -> 17        -0.16214
      11 -> 14         0.19279
      12 -> 15         0.50283
      12 -> 16        -0.19990
      12 -> 20         0.19881
      13 -> 22         0.11848

 Excited State  13:      Singlet-A      9.5955 eV  129.21 nm  f=0.0975  <S**2>=0.000
       9 -> 15         0.12198
      10 -> 15         0.23935
      10 -> 17         0.27424
      12 -> 15         0.36537
      12 -> 16         0.17699
      12 -> 17         0.24123
      12 -> 20        -0.16807
      12 -> 21        -0.14787

 Excited State  14:      Singlet-A      9.7512 eV  127.15 nm  f=0.0044  <S**2>=0.000
       7 -> 15        -0.14661
      11 -> 15         0.62833
      11 -> 16         0.15877
      11 -> 17         0.12034
      13 -> 15        -0.13583

 Excited State  15:      Singlet-A      9.8630 eV  125.71 nm  f=0.1350  <S**2>=0.000
      11 -> 14        -0.20330
      13 -> 22         0.64860

 The electronic state is 1-A.
 Alpha  occ. eigenvalues --   -1.89169  -1.22373  -0.99086  -0.81728  -0.80129
 Alpha  occ. eigenvalues --   -0.68166  -0.61817  -0.53262  -0.51730  -0.42183
 Alpha  occ. eigenvalues --   -0.41458  -0.39464  -0.26108
 Alpha virt. eigenvalues --    0.13866   0.17821   0.20476   0.25607   0.28749
 Alpha virt. eigenvalues --    0.29582   0.30107   0.30638   0.32234   0.41653
 Alpha virt. eigenvalues --    0.45543

 Mulliken charges:
               1
     1  C   -0.139222
     2  C   -1.859602
     3  O    3.177517
     4  C   -1.929987
     5  C   -0.149117
     6  H    0.178020
     7  H    0.288173
     8  H    0.261931
     9  H    0.172286
 Sum of Mulliken charges =   0.00000

 Dipole moment (field-independent basis, Debye):
    X=             -1.0023    Y=            -11.5734    Z=             -0.6823  Tot=             11.6367
 N-N= 1.033410104707D+02 E-N=-1.683426969227D+02  KE=-1.568009626717D+01
 Orbital energies and kinetic energies (alpha):
                                 1                 2
   1         O                -1.891687         -1.323370
   2         O                -1.223725         -1.106497
   3         O                -0.990857         -0.928853
   4         O                -0.817283         -0.668283
   5         O                -0.801287         -0.664615
   6         O                -0.681657         -0.586538
   7         O                -0.618171         -0.510852

 Normal termination of Gaussian 09 at Tue Dec 15 17:06:55 2015.
