 Gaussian 09, Revision D.01,
 Gaussian 09:  ES64L-G09RevD.01 24-Apr-2013

 ------------------------------------------------------------
 #P AM1(Input,print) CIS(Singlets,NStates=15) pop(full) force
 ------------------------------------------------------------

 -----------------
 AM1-Reparam Input
 -----------------
 Symbolic Z-matrix:
 Charge =  0 Multiplicity = 1

                         Standard orientation:
 ---------------------------------------------------------------------
 Center     Atomic      Atomic             Coordinates (Angstroms)
 Number     Number       Type             X           Y           Z
 ---------------------------------------------------------------------
      1          6           0        0.210344    1.215219    0.000537
      2          6           0        1.154654    0.153317    0.005513
      3          8           0        0.507579   -1.068729   -0.020091
      4          6           0       -0.798119   -0.745271    0.028571
      5          6           0       -1.090367    0.497913   -0.007144
      6          1           0       -2.018436    1.049665   -0.014923
      7          1           0       -1.467395   -1.591341   -0.012691
      8          1           0        2.158500    0.144025    0.042539
      9          1           0        0.407627    2.220422   -0.019058
 ---------------------------------------------------------------------

 SCF Done:  E(RAM1) =   1.87858225078     A.U. after   14 cycles

 Excitation energies and oscillator strengths:

 Excited State   1:      Singlet-A      5.4740 eV  226.50 nm  f=0.3485  <S**2>=0.000
      13 -> 14         0.69455
 This state for optimization and/or second-order correction.
 Total Energy, E(CIS) =   2.07974795778
 Copying the excited state density for this state as the 1-particle RhoCI density.

 Excited State   2:      Singlet-A      5.9830 eV  207.23 nm  f=0.0005  <S**2>=0.000
      13 -> 15         0.68300
      13 -> 18        -0.11438

 Excited State   3:      Singlet-A      6.4309 eV  192.79 nm  f=0.0001  <S**2>=0.000
      12 -> 14         0.70262

 Excited State   4:      Singlet-A      6.7076 eV  184.84 nm  f=0.0029  <S**2>=0.000
      13 -> 16         0.65268
      13 -> 17        -0.19881
      13 -> 19        -0.12706

 Excited State   5:      Singlet-A      7.8696 eV  157.55 nm  f=0.0055  <S**2>=0.000
      10 -> 14        -0.30329
      11 -> 14         0.61768
      13 -> 18        -0.10647

 Excited State   6:      Singlet-A      7.9394 eV  156.16 nm  f=0.0021  <S**2>=0.000
      13 -> 16        -0.13166
      13 -> 17        -0.26588
      13 -> 18         0.56322
      13 -> 21        -0.26638

 Excited State   7:      Singlet-A      8.3051 eV  149.29 nm  f=0.0071  <S**2>=0.000
      11 -> 14         0.11335
      13 -> 16         0.11298
      13 -> 17         0.58789
      13 -> 18         0.29206
      13 -> 19        -0.12730

 Excited State   8:      Singlet-A      8.5098 eV  145.70 nm  f=0.0983  <S**2>=0.000
       8 -> 15        -0.13886
      10 -> 14        -0.26944
      11 -> 14        -0.11910
      11 -> 17         0.10091
      12 -> 15         0.53271
      12 -> 16        -0.12322
      12 -> 17         0.13653
      12 -> 18        -0.13985

 Excited State   9:      Singlet-A      8.9385 eV  138.71 nm  f=0.0093  <S**2>=0.000
      10 -> 14        -0.12258
      10 -> 16        -0.11299
      13 -> 16         0.11171
      13 -> 18         0.10013
      13 -> 19         0.64435

 Excited State  10:      Singlet-A      8.9510 eV  138.51 nm  f=0.1318  <S**2>=0.000
      10 -> 14         0.51886
      11 -> 14         0.26204
      12 -> 15         0.21671
      12 -> 16        -0.17210
      12 -> 18        -0.13887
      13 -> 19         0.15558

 Excited State  11:      Singlet-A      9.2872 eV  133.50 nm  f=0.0140  <S**2>=0.000
      11 -> 15         0.20263
      11 -> 17        -0.12330
      11 -> 18        -0.13716
      12 -> 15         0.34639
      12 -> 16         0.32547
      12 -> 17        -0.26512
      12 -> 18         0.21018
      12 -> 21        -0.11464

 Excited State  12:      Singlet-A      9.5891 eV  129.30 nm  f=0.0005  <S**2>=0.000
      10 -> 15        -0.10665
      13 -> 17        -0.13895
      13 -> 18         0.23928
      13 -> 21         0.62193

 Excited State  13:      Singlet-A      9.7546 eV  127.10 nm  f=0.0832  <S**2>=0.000
      10 -> 15        -0.21488
      11 -> 15        -0.12899
      13 -> 20         0.62696
      13 -> 21        -0.11515

 Excited State  14:      Singlet-A      9.8131 eV  126.35 nm  f=0.0209  <S**2>=0.000
       8 -> 15         0.13672
       9 -> 15         0.29730
      10 -> 14        -0.10641
      10 -> 15        -0.22710
      11 -> 15         0.40279
      11 -> 19         0.10294
      12 -> 16        -0.10034
      12 -> 18        -0.29572

 Excited State  15:      Singlet-A      9.8815 eV  125.47 nm  f=0.0061  <S**2>=0.000
       6 -> 15        -0.10919
      10 -> 15         0.52838
      11 -> 15         0.29366
      13 -> 15        -0.11786
      13 -> 20         0.25686
      13 -> 21         0.11613

 The electronic state is 1-A.
 Alpha  occ. eigenvalues --   -1.93995  -1.21045  -0.98573  -0.81186  -0.80568
 Alpha  occ. eigenvalues --   -0.68655  -0.67524  -0.50894  -0.49200  -0.41906
 Alpha  occ. eigenvalues --   -0.41661  -0.36954  -0.26511
 Alpha virt. eigenvalues --    0.13809   0.17849   0.21850   0.27992   0.29248
 Alpha virt. eigenvalues --    0.31221   0.33331   0.35317   0.35855   0.45154
 Alpha virt. eigenvalues --    0.48897

 Mulliken charges:
               1
     1  C   -0.127660
     2  C   -1.923525
     3  O    3.112876
     4  C   -1.874970
     5  C   -0.081404
     6  H    0.144304
     7  H    0.301024
     8  H    0.296714
     9  H    0.152640
 Sum of Mulliken charges =   0.00000

 Dipole moment (field-independent basis, Debye):
    X=              3.7259    Y=            -10.1639    Z=             -0.5087  Tot=             10.8373
 N-N= 1.041821457718D+02 E-N=-1.697584686620D+02  KE=-1.567518638007D+01
 Orbital energies and kinetic energies (alpha):
                                 1                 2
   1         O                -1.939952         -1.407483
   2         O                -1.210446         -1.086304
   3         O                -0.985732         -0.914127
   4         O                -0.811862         -0.633050
   5         O                -0.805684         -0.689330
   6         O                -0.686554         -0.571450
   7         O                -0.675241         -0.579866

 Normal termination of Gaussian 09 at Tue Dec 15 17:09:57 2015.
