 Gaussian 09, Revision D.01,
 Gaussian 09:  ES64L-G09RevD.01 24-Apr-2013

 ------------------------------------------------------------
 #P AM1(Input,print) CIS(Singlets,NStates=15) pop(full) force
 ------------------------------------------------------------

 -----------------
 AM1-Reparam Input
 -----------------
 Symbolic Z-matrix:
 Charge =  0 Multiplicity = 1

                         Standard orientation:
 ---------------------------------------------------------------------
 Center     Atomic      Atomic             Coordinates (Angstroms)
 Number     Number       Type             X           Y           Z
 ---------------------------------------------------------------------
      1          6           0        0.840675    0.877418   -0.029393
      2          6           0        1.038816   -0.456998    0.034124
      3          8           0       -0.116515   -1.147392   -0.019207
      4          6           0       -1.156456   -0.208652   -0.009037
      5          6           0       -0.596202    1.016042    0.020733
      6          1           0       -1.148709    1.900270    0.001793
      7          1           0       -2.129475   -0.596731    0.043148
      8          1           0        1.885026   -1.071493    0.022402
      9          1           0        1.564279    1.580225   -0.012250
 ---------------------------------------------------------------------

 SCF Done:  E(RAM1) =   2.62769194894     A.U. after   13 cycles

 Excitation energies and oscillator strengths:

 Excited State   1:      Singlet-A      4.9918 eV  248.38 nm  f=0.3598  <S**2>=0.000
      13 -> 14         0.69858
 This state for optimization and/or second-order correction.
 Total Energy, E(CIS) =   2.81113722647
 Copying the excited state density for this state as the 1-particle RhoCI density.

 Excited State   2:      Singlet-A      6.0587 eV  204.64 nm  f=0.0009  <S**2>=0.000
      13 -> 15         0.66866
      13 -> 17        -0.13396
      13 -> 19        -0.10335

 Excited State   3:      Singlet-A      6.5119 eV  190.40 nm  f=0.0022  <S**2>=0.000
      12 -> 14         0.60377
      13 -> 16         0.33429

 Excited State   4:      Singlet-A      6.5950 eV  188.00 nm  f=0.0022  <S**2>=0.000
      12 -> 14        -0.35032
      13 -> 16         0.58188

 Excited State   5:      Singlet-A      7.4748 eV  165.87 nm  f=0.0056  <S**2>=0.000
      10 -> 14         0.65400
      11 -> 14        -0.23839

 Excited State   6:      Singlet-A      7.8077 eV  158.80 nm  f=0.0000  <S**2>=0.000
      13 -> 15         0.10270
      13 -> 17         0.66560
      13 -> 21        -0.11359

 Excited State   7:      Singlet-A      8.4586 eV  146.58 nm  f=0.1257  <S**2>=0.000
      10 -> 14         0.23515
      11 -> 14         0.65585

 Excited State   8:      Singlet-A      9.2519 eV  134.01 nm  f=0.0172  <S**2>=0.000
      11 -> 15         0.27451
      12 -> 15         0.19704
      13 -> 18         0.56238
      13 -> 19         0.12919

 Excited State   9:      Singlet-A      9.3372 eV  132.79 nm  f=0.0500  <S**2>=0.000
       9 -> 15        -0.12814
      10 -> 16         0.18568
      10 -> 18        -0.13784
      12 -> 15         0.48189
      12 -> 16        -0.12945
      12 -> 17        -0.28866
      13 -> 18        -0.20767

 Excited State  10:      Singlet-A      9.5514 eV  129.81 nm  f=0.0020  <S**2>=0.000
      11 -> 16         0.28400
      13 -> 19         0.60597

 Excited State  11:      Singlet-A      9.8229 eV  126.22 nm  f=0.2916  <S**2>=0.000
      10 -> 15         0.20541
      10 -> 16         0.28185
      10 -> 18        -0.14061
      11 -> 16        -0.14646
      12 -> 15        -0.21899
      12 -> 16         0.39509
      12 -> 17        -0.25010
      12 -> 19         0.14301

 Excited State  12:      Singlet-A      9.9156 eV  125.04 nm  f=0.0206  <S**2>=0.000
      10 -> 15        -0.39914
      11 -> 15         0.20240
      12 -> 15         0.20952
      12 -> 16         0.43382
      12 -> 18        -0.10156

 Excited State  13:      Singlet-A     10.1380 eV  122.30 nm  f=0.0047  <S**2>=0.000
       7 -> 15        -0.12922
      10 -> 15         0.30109
      11 -> 15         0.49956
      11 -> 16         0.11995
      13 -> 15        -0.14786
      13 -> 18        -0.24686
      13 -> 19        -0.12131

 Excited State  14:      Singlet-A     10.3776 eV  119.47 nm  f=0.0080  <S**2>=0.000
       8 -> 15         0.14998
       9 -> 15        -0.23226
      10 -> 15         0.27693
      10 -> 19        -0.14195
      11 -> 15        -0.19431
      12 -> 15         0.19142
      12 -> 16         0.24026
      12 -> 17         0.32060

 Excited State  15:      Singlet-A     10.4661 eV  118.46 nm  f=0.0017  <S**2>=0.000
       9 -> 14         0.51562
      10 -> 16        -0.11633
      11 -> 15         0.12513
      11 -> 16        -0.34909
      13 -> 18        -0.15983
      13 -> 19         0.12512

 The electronic state is 1-A.
 Alpha  occ. eigenvalues --   -1.84991  -1.13048  -0.89222  -0.80417  -0.75388
 Alpha  occ. eigenvalues --   -0.67812  -0.63340  -0.56456  -0.55095  -0.45512
 Alpha  occ. eigenvalues --   -0.45172  -0.42670  -0.29776
 Alpha virt. eigenvalues --    0.08453   0.16154   0.18159   0.25583   0.28460
 Alpha virt. eigenvalues --    0.29788   0.36470   0.40275   0.47163   0.54792
 Alpha virt. eigenvalues --    0.58799

 Mulliken charges:
               1
     1  C   -0.209947
     2  C   -1.990497
     3  O    3.438282
     4  C   -1.973653
     5  C   -0.165132
     6  H    0.191393
     7  H    0.260416
     8  H    0.265011
     9  H    0.184128
 Sum of Mulliken charges =   0.00000

 Dipole moment (field-independent basis, Debye):
    X=             -0.9709    Y=            -11.6615    Z=             -0.3782  Tot=             11.7079
 N-N= 1.042098642038D+02 E-N=-1.697799895597D+02  KE=-1.440636701644D+01
 Orbital energies and kinetic energies (alpha):
                                 1                 2
   1         O                -1.849913         -1.240399
   2         O                -1.130481         -0.971227
   3         O                -0.892216         -0.807007
   4         O                -0.804169         -0.543091
   5         O                -0.753878         -0.624476
   6         O                -0.678122         -0.549520
   7         O                -0.633404         -0.493807

 Normal termination of Gaussian 09 at Tue Dec 15 17:07:46 2015.
