 Gaussian 09, Revision D.01,
 Gaussian 09:  ES64L-G09RevD.01 24-Apr-2013

 ------------------------------------------------------------
 #P AM1(Input,print) CIS(Singlets,NStates=15) pop(full) force
 ------------------------------------------------------------

 -----------------
 AM1-Reparam Input
 -----------------
 Symbolic Z-matrix:
 Charge =  0 Multiplicity = 1

                         Standard orientation:
 ---------------------------------------------------------------------
 Center     Atomic      Atomic             Coordinates (Angstroms)
 Number     Number       Type             X           Y           Z
 ---------------------------------------------------------------------
      1          6           0       -0.975310    0.715668   -0.009273
      2          6           0       -0.928919   -0.602198   -0.018064
      3          8           0        0.318882   -1.148367    0.018147
      4          6           0        1.166129   -0.012823   -0.013168
      5          6           0        0.405930    1.103118    0.015270
      6          1           0        0.802026    2.164230   -0.016746
      7          1           0        2.195371   -0.198491   -0.022500
      8          1           0       -1.727105   -1.367089   -0.003242
      9          1           0       -1.828327    1.365698    0.048715
 ---------------------------------------------------------------------

 SCF Done:  E(RAM1) =  -5.98720302519     A.U. after   14 cycles

 Excitation energies and oscillator strengths:

 Excited State   1:      Singlet-A      6.6465 eV  186.54 nm  f=0.2363  <S**2>=0.000
      13 -> 14         0.67449
      13 -> 15         0.10052
 This state for optimization and/or second-order correction.
 Total Energy, E(CIS) =  -5.74294855352
 Copying the excited state density for this state as the 1-particle RhoCI density.

 Excited State   2:      Singlet-A      6.9703 eV  177.87 nm  f=0.0135  <S**2>=0.000
      13 -> 14        -0.10779
      13 -> 15         0.66844
      13 -> 16         0.13306

 Excited State   3:      Singlet-A      7.1710 eV  172.90 nm  f=0.0009  <S**2>=0.000
       9 -> 14        -0.11165
      12 -> 14         0.68192
      13 -> 16        -0.12206

 Excited State   4:      Singlet-A      7.4097 eV  167.33 nm  f=0.0048  <S**2>=0.000
      12 -> 14         0.12487
      13 -> 15        -0.14229
      13 -> 16         0.66263

 Excited State   5:      Singlet-A      8.1170 eV  152.75 nm  f=0.0019  <S**2>=0.000
      10 -> 14        -0.15569
      11 -> 14         0.67856

 Excited State   6:      Singlet-A      8.8742 eV  139.71 nm  f=0.0099  <S**2>=0.000
      10 -> 14        -0.38639
      13 -> 17         0.56794

 Excited State   7:      Singlet-A      9.2710 eV  133.73 nm  f=0.0066  <S**2>=0.000
      10 -> 15         0.18116
      13 -> 18         0.62636
      13 -> 20        -0.15458

 Excited State   8:      Singlet-A      9.4460 eV  131.26 nm  f=0.0009  <S**2>=0.000
       9 -> 14         0.59187
      10 -> 14         0.22418
      12 -> 14         0.11341
      12 -> 15         0.10555
      12 -> 16         0.10715
      13 -> 17         0.10225
      13 -> 19        -0.15483

 Excited State   9:      Singlet-A      9.5546 eV  129.76 nm  f=0.0037  <S**2>=0.000
       9 -> 14        -0.12481
      10 -> 14         0.20165
      11 -> 15         0.16934
      12 -> 15         0.45657
      12 -> 16         0.15711
      13 -> 18        -0.11029
      13 -> 19         0.34955

 Excited State  10:      Singlet-A      9.5724 eV  129.52 nm  f=0.0048  <S**2>=0.000
       9 -> 14         0.24990
      10 -> 16        -0.12577
      12 -> 15        -0.28359
      13 -> 19         0.52310

 Excited State  11:      Singlet-A      9.6746 eV  128.15 nm  f=0.0312  <S**2>=0.000
       9 -> 14        -0.12191
      10 -> 14         0.15159
      12 -> 15        -0.29289
      12 -> 16         0.56382
      12 -> 21        -0.10900

 Excited State  12:      Singlet-A      9.9722 eV  124.33 nm  f=0.1894  <S**2>=0.000
       8 -> 14         0.13752
       9 -> 14        -0.12302
       9 -> 15         0.10857
      10 -> 14         0.35555
      10 -> 15         0.10205
      11 -> 15        -0.16442
      11 -> 16         0.17645
      12 -> 15        -0.12010
      12 -> 16        -0.26391
      12 -> 18        -0.11979
      13 -> 17         0.34077

 Excited State  13:      Singlet-A     10.2018 eV  121.53 nm  f=0.0017  <S**2>=0.000
       8 -> 14        -0.21040
      10 -> 15        -0.12757
      10 -> 16        -0.12806
      13 -> 18         0.16561
      13 -> 20         0.59922

 Excited State  14:      Singlet-A     10.2256 eV  121.25 nm  f=0.0019  <S**2>=0.000
      10 -> 15         0.43923
      10 -> 16         0.28213
      11 -> 15         0.33431
      11 -> 16         0.14281
      13 -> 20         0.16905

 Excited State  15:      Singlet-A     10.3579 eV  119.70 nm  f=0.0124  <S**2>=0.000
       8 -> 15        -0.11603
       9 -> 15         0.23169
      10 -> 15        -0.24901
      10 -> 16        -0.19144
      11 -> 15         0.46971
      11 -> 16         0.18194
      12 -> 15        -0.13157

 The electronic state is 1-A.
 Alpha  occ. eigenvalues --   -4.61071  -1.29815  -0.98417  -0.97616  -0.95464
 Alpha  occ. eigenvalues --   -0.86063  -0.78768  -0.58551  -0.54420  -0.53327
 Alpha  occ. eigenvalues --   -0.52169  -0.48700  -0.40777
 Alpha virt. eigenvalues --    0.03757   0.08068   0.10088   0.15475   0.16934
 Alpha virt. eigenvalues --    0.17844   0.20550   0.23606   0.30515   0.31132
 Alpha virt. eigenvalues --    0.31695

 Mulliken charges:
               1
     1  C   -0.447562
     2  C   -1.262310
     3  O    2.580222
     4  C   -1.272004
     5  C   -0.422048
     6  H    0.252347
     7  H    0.162834
     8  H    0.164946
     9  H    0.243574
 Sum of Mulliken charges =   0.00000

 Dipole moment (field-independent basis, Debye):
    X=              2.5326    Y=            -10.1204    Z=              0.3860  Tot=             10.4396
 N-N= 1.030544789751D+02 E-N=-1.674351548049D+02  KE=-2.354504145895D+01
 Orbital energies and kinetic energies (alpha):
                                 1                 2
   1         O                -4.610714         -3.829414
   2         O                -1.298150         -1.158372
   3         O                -0.984171         -0.870387
   4         O                -0.976161         -0.888314
   5         O                -0.954644         -0.889333
   6         O                -0.860626         -0.789774
   7         O                -0.787677         -0.640526

 Normal termination of Gaussian 09 at Fri Dec 11 13:41:29 2015.
