 Gaussian 09, Revision D.01,
 Gaussian 09:  ES64L-G09RevD.01 24-Apr-2013

 ------------------------------------------------------------
 #P AM1(Input,print) CIS(Singlets,NStates=15) pop(full) force
 ------------------------------------------------------------

 -----------------
 AM1-Reparam Input
 -----------------
 Symbolic Z-matrix:
 Charge =  0 Multiplicity = 1

                         Standard orientation:
 ---------------------------------------------------------------------
 Center     Atomic      Atomic             Coordinates (Angstroms)
 Number     Number       Type             X           Y           Z
 ---------------------------------------------------------------------
      1          6           0       -1.115220    0.506248    0.010032
      2          6           0       -0.781567   -0.769679   -0.008981
      3          8           0        0.554626   -1.039254   -0.005218
      4          6           0        1.133608    0.197050    0.015542
      5          6           0        0.174769    1.171781   -0.010840
      6          1           0        0.351075    2.265793    0.005408
      7          1           0        2.262143    0.197772   -0.014644
      8          1           0       -1.455427   -1.702582    0.031262
      9          1           0       -2.064344    0.920648   -0.014796
 ---------------------------------------------------------------------

 SCF Done:  E(RAM1) =   2.54947116243     A.U. after   14 cycles

 Excitation energies and oscillator strengths:

 Excited State   1:      Singlet-A      5.2564 eV  235.87 nm  f=0.3490  <S**2>=0.000
      13 -> 14         0.69652
 This state for optimization and/or second-order correction.
 Total Energy, E(CIS) =   2.74263994833
 Copying the excited state density for this state as the 1-particle RhoCI density.

 Excited State   2:      Singlet-A      5.8276 eV  212.75 nm  f=0.0003  <S**2>=0.000
      11 -> 15         0.11290
      13 -> 15         0.67915

 Excited State   3:      Singlet-A      6.2475 eV  198.45 nm  f=0.0007  <S**2>=0.000
      11 -> 16        -0.11481
      13 -> 16         0.66763
      13 -> 17         0.12688
      13 -> 18        -0.12245

 Excited State   4:      Singlet-A      6.7706 eV  183.12 nm  f=0.0001  <S**2>=0.000
      12 -> 14         0.69818

 Excited State   5:      Singlet-A      7.6984 eV  161.05 nm  f=0.0045  <S**2>=0.000
      13 -> 15        -0.10318
      13 -> 17         0.43785
      13 -> 18         0.44961
      13 -> 20        -0.13862
      13 -> 21         0.23285

 Excited State   6:      Singlet-A      7.9675 eV  155.61 nm  f=0.0119  <S**2>=0.000
      10 -> 14         0.47644
      13 -> 16         0.12223
      13 -> 17        -0.33659
      13 -> 18         0.33237
      13 -> 20        -0.10019
      13 -> 21         0.11526

 Excited State   7:      Singlet-A      8.1191 eV  152.71 nm  f=0.0013  <S**2>=0.000
      10 -> 14         0.50697
      13 -> 17         0.39785
      13 -> 18        -0.23054

 Excited State   8:      Singlet-A      8.6762 eV  142.90 nm  f=0.0014  <S**2>=0.000
      13 -> 19         0.68469

 Excited State   9:      Singlet-A      8.7478 eV  141.73 nm  f=0.0851  <S**2>=0.000
       8 -> 15         0.11559
      11 -> 14         0.61686
      12 -> 15         0.27335

 Excited State  10:      Singlet-A      8.9988 eV  137.78 nm  f=0.1446  <S**2>=0.000
       8 -> 15         0.13527
       8 -> 16         0.12262
      10 -> 17        -0.10500
      11 -> 14        -0.26176
      12 -> 15         0.51543
      12 -> 16        -0.23191
      12 -> 18         0.15885

 Excited State  11:      Singlet-A      9.3364 eV  132.80 nm  f=0.0143  <S**2>=0.000
      13 -> 18        -0.31723
      13 -> 20        -0.42972
      13 -> 21         0.43254

 Excited State  12:      Singlet-A      9.5650 eV  129.62 nm  f=0.0891  <S**2>=0.000
      10 -> 15         0.11882
      11 -> 14        -0.17384
      12 -> 15         0.21532
      12 -> 16         0.58517
      12 -> 18        -0.15107

 Excited State  13:      Singlet-A      9.6586 eV  128.37 nm  f=0.0040  <S**2>=0.000
       7 -> 15        -0.14205
      11 -> 15         0.64133
      13 -> 15        -0.13137
      13 -> 21         0.11643

 Excited State  14:      Singlet-A      9.7244 eV  127.50 nm  f=0.0946  <S**2>=0.000
       9 -> 15         0.11261
       9 -> 16        -0.11345
      10 -> 15        -0.21922
      10 -> 16        -0.23076
      10 -> 17        -0.21519
      11 -> 16        -0.22545
      12 -> 15        -0.13228
      12 -> 16         0.13798
      12 -> 17         0.19578
      12 -> 18         0.20632
      12 -> 19        -0.10338
      13 -> 20         0.23672
      13 -> 21         0.19889

 Excited State  15:      Singlet-A      9.7721 eV  126.88 nm  f=0.0840  <S**2>=0.000
      10 -> 15        -0.16273
      10 -> 16        -0.13644
      10 -> 17        -0.14907
      11 -> 16         0.37120
      12 -> 17         0.13201
      12 -> 18         0.14714
      13 -> 20        -0.32913
      13 -> 21        -0.26283

 The electronic state is 1-A.
 Alpha  occ. eigenvalues --   -1.73153  -1.15665  -0.93635  -0.80640  -0.74896
 Alpha  occ. eigenvalues --   -0.66699  -0.64035  -0.53216  -0.49437  -0.43877
 Alpha  occ. eigenvalues --   -0.43174  -0.39640  -0.27511
 Alpha virt. eigenvalues --    0.12215   0.16103   0.17557   0.26380   0.28219
 Alpha virt. eigenvalues --    0.29778   0.31942   0.33454   0.39474   0.49246
 Alpha virt. eigenvalues --    0.52854

 Mulliken charges:
               1
     1  C   -0.052037
     2  C   -1.904660
     3  O    3.212583
     4  C   -1.908620
     5  C   -0.081978
     6  H    0.112700
     7  H    0.253240
     8  H    0.258600
     9  H    0.110172
 Sum of Mulliken charges =   0.00000

 Dipole moment (field-independent basis, Debye):
    X=              4.8556    Y=            -10.1414    Z=             -0.1018  Tot=             11.2444
 N-N= 1.035217421530D+02 E-N=-1.684374849858D+02  KE=-1.499549356738D+01
 Orbital energies and kinetic energies (alpha):
                                 1                 2
   1         O                -1.731527         -1.228296
   2         O                -1.156649         -1.022182
   3         O                -0.936355         -0.861802
   4         O                -0.806397         -0.607107
   5         O                -0.748959         -0.669786
   6         O                -0.666987         -0.572256
   7         O                -0.640355         -0.523566

 Normal termination of Gaussian 09 at Tue Dec 15 17:06:11 2015.
