 Gaussian 09, Revision D.01,
 Gaussian 09:  ES64L-G09RevD.01 24-Apr-2013

 ------------------------------------------------------------
 #P AM1(Input,print) CIS(Singlets,NStates=15) pop(full) force
 ------------------------------------------------------------

 -----------------
 AM1-Reparam Input
 -----------------
 Symbolic Z-matrix:
 Charge =  0 Multiplicity = 1

                         Standard orientation:
 ---------------------------------------------------------------------
 Center     Atomic      Atomic             Coordinates (Angstroms)
 Number     Number       Type             X           Y           Z
 ---------------------------------------------------------------------
      1          6           0       -0.357273    1.107183    0.008426
      2          6           0       -1.134583   -0.015534   -0.019840
      3          8           0       -0.369875   -1.079863    0.012951
      4          6           0        0.918742   -0.623146   -0.030174
      5          6           0        0.961139    0.656778    0.000726
      6          1           0        1.851394    1.255369    0.024804
      7          1           0        1.690044   -1.408432    0.072972
      8          1           0       -2.200424   -0.150930    0.036690
      9          1           0       -0.710163    2.191213    0.007102
 ---------------------------------------------------------------------

 SCF Done:  E(RAM1) =   2.73161315729     A.U. after   14 cycles

 Excitation energies and oscillator strengths:

 Excited State   1:      Singlet-A      5.4061 eV  229.34 nm  f=0.3309  <S**2>=0.000
      11 -> 17        -0.10403
      13 -> 14         0.69336
 This state for optimization and/or second-order correction.
 Total Energy, E(CIS) =   2.93028451117
 Copying the excited state density for this state as the 1-particle RhoCI density.

 Excited State   2:      Singlet-A      5.9982 eV  206.70 nm  f=0.0015  <S**2>=0.000
      10 -> 15         0.11837
      13 -> 15         0.65601
      13 -> 16         0.15335
      13 -> 17         0.10913

 Excited State   3:      Singlet-A      6.0788 eV  203.96 nm  f=0.0016  <S**2>=0.000
      10 -> 16        -0.11285
      13 -> 15        -0.15804
      13 -> 16         0.64253
      13 -> 17         0.16663
      13 -> 19        -0.10461

 Excited State   4:      Singlet-A      6.9188 eV  179.20 nm  f=0.0002  <S**2>=0.000
       9 -> 14         0.12154
      12 -> 14         0.68977

 Excited State   5:      Singlet-A      7.5541 eV  164.13 nm  f=0.0105  <S**2>=0.000
      11 -> 14         0.16128
      13 -> 16        -0.14433
      13 -> 17         0.62022
      13 -> 18        -0.18698
      13 -> 21         0.10419

 Excited State   6:      Singlet-A      7.7178 eV  160.65 nm  f=0.0027  <S**2>=0.000
      11 -> 14         0.10861
      13 -> 16        -0.10617
      13 -> 17         0.18308
      13 -> 18         0.55353
      13 -> 20         0.16721
      13 -> 21        -0.30398

 Excited State   7:      Singlet-A      7.9419 eV  156.11 nm  f=0.0012  <S**2>=0.000
      11 -> 14         0.67102
      13 -> 17        -0.18086

 Excited State   8:      Singlet-A      8.4529 eV  146.68 nm  f=0.0003  <S**2>=0.000
      13 -> 18         0.13401
      13 -> 19         0.65839
      13 -> 20        -0.13504

 Excited State   9:      Singlet-A      8.7231 eV  142.13 nm  f=0.0387  <S**2>=0.000
       8 -> 15        -0.16297
      10 -> 14         0.31577
      11 -> 17         0.16250
      12 -> 15         0.51162
      12 -> 18        -0.15928

 Excited State  10:      Singlet-A      8.9477 eV  138.56 nm  f=0.0219  <S**2>=0.000
      13 -> 18         0.34694
      13 -> 19        -0.18223
      13 -> 20        -0.35510
      13 -> 21         0.44835

 Excited State  11:      Singlet-A      9.0440 eV  137.09 nm  f=0.0241  <S**2>=0.000
       8 -> 16         0.14050
      10 -> 14         0.45098
      11 -> 17        -0.10913
      12 -> 15        -0.17927
      12 -> 16         0.40760
      12 -> 18         0.15194

 Excited State  12:      Singlet-A      9.1875 eV  134.95 nm  f=0.2006  <S**2>=0.000
       9 -> 15        -0.13925
      10 -> 14        -0.17109
      11 -> 15        -0.24637
      11 -> 16        -0.21991
      11 -> 17        -0.28108
      12 -> 15         0.35271
      12 -> 16         0.10534
      12 -> 18         0.27595

 Excited State  13:      Singlet-A      9.3527 eV  132.56 nm  f=0.0776  <S**2>=0.000
       9 -> 16        -0.14666
      10 -> 14        -0.29049
      11 -> 15        -0.11806
      11 -> 16         0.24563
      11 -> 17         0.15725
      12 -> 16         0.45399
      12 -> 17         0.20932
      12 -> 18        -0.10528

 Excited State  14:      Singlet-A      9.4872 eV  130.69 nm  f=0.0860  <S**2>=0.000
      10 -> 16        -0.14016
      13 -> 20         0.54699
      13 -> 21         0.38974

 Excited State  15:      Singlet-A      9.7496 eV  127.17 nm  f=0.0275  <S**2>=0.000
      10 -> 14         0.10056
      10 -> 16         0.58754
      11 -> 15        -0.11473
      12 -> 17         0.10389
      13 -> 16         0.12376
      13 -> 21         0.14547

 The electronic state is 1-A.
 Alpha  occ. eigenvalues --   -1.78470  -1.15491  -0.94022  -0.80077  -0.74676
 Alpha  occ. eigenvalues --   -0.66015  -0.64419  -0.53625  -0.48707  -0.43386
 Alpha  occ. eigenvalues --   -0.42320  -0.39112  -0.27616
 Alpha virt. eigenvalues --    0.13334   0.17119   0.17369   0.24680   0.26841
 Alpha virt. eigenvalues --    0.28963   0.30740   0.32853   0.48989   0.57990
 Alpha virt. eigenvalues --    0.61817

 Mulliken charges:
               1
     1  C   -0.119565
     2  C   -2.020600
     3  O    3.333888
     4  C   -1.965140
     5  C   -0.021487
     6  H    0.117818
     7  H    0.265371
     8  H    0.283363
     9  H    0.126353
 Sum of Mulliken charges =   0.00000

 Dipole moment (field-independent basis, Debye):
    X=             -3.2536    Y=            -10.3562    Z=              0.8304  Tot=             10.8870
 N-N= 1.045511856786D+02 E-N=-1.701434044118D+02  KE=-1.493703972809D+01
 Orbital energies and kinetic energies (alpha):
                                 1                 2
   1         O                -1.784702         -1.296285
   2         O                -1.154905         -1.011232
   3         O                -0.940215         -0.863733
   4         O                -0.800770         -0.585700
   5         O                -0.746758         -0.680562
   6         O                -0.660145         -0.555894
   7         O                -0.644188         -0.539547

 Normal termination of Gaussian 09 at Tue Dec 15 17:05:27 2015.
