 Gaussian 09, Revision D.01,
 Gaussian 09:  ES64L-G09RevD.01 24-Apr-2013

 ------------------------------------------------------------
 #P AM1(Input,print) CIS(Singlets,NStates=15) pop(full) force
 ------------------------------------------------------------

 -----------------
 AM1-Reparam Input
 -----------------
 Symbolic Z-matrix:
 Charge =  0 Multiplicity = 1

                         Standard orientation:
 ---------------------------------------------------------------------
 Center     Atomic      Atomic             Coordinates (Angstroms)
 Number     Number       Type             X           Y           Z
 ---------------------------------------------------------------------
      1          6           0        0.222048    1.174549   -0.022903
      2          6           0        1.125406    0.115966    0.022755
      3          8           0        0.481424   -1.064922   -0.017949
      4          6           0       -0.810911   -0.774028    0.015656
      5          6           0       -1.055215    0.593731   -0.003601
      6          1           0       -1.979509    1.086894    0.028569
      7          1           0       -1.545866   -1.581484    0.001573
      8          1           0        2.236428    0.095079    0.020905
      9          1           0        0.549588    2.257576    0.021105
 ---------------------------------------------------------------------

 SCF Done:  E(RAM1) =   1.07477312795     A.U. after   14 cycles

 Excitation energies and oscillator strengths:

 Excited State   1:      Singlet-A      5.7954 eV  213.94 nm  f=0.1990  <S**2>=0.000
      12 -> 16         0.12527
      13 -> 14         0.67672
 This state for optimization and/or second-order correction.
 Total Energy, E(CIS) =   1.28774834810
 Copying the excited state density for this state as the 1-particle RhoCI density.

 Excited State   2:      Singlet-A      6.7371 eV  184.03 nm  f=0.0045  <S**2>=0.000
      13 -> 15         0.67610
      13 -> 19        -0.10768

 Excited State   3:      Singlet-A      7.2044 eV  172.10 nm  f=0.0016  <S**2>=0.000
      12 -> 14        -0.27422
      12 -> 15         0.12199
      13 -> 16         0.45672
      13 -> 17        -0.39494
      13 -> 21         0.11577

 Excited State   4:      Singlet-A      7.2395 eV  171.26 nm  f=0.0072  <S**2>=0.000
      12 -> 14         0.50257
      13 -> 16        -0.14566
      13 -> 17        -0.44626

 Excited State   5:      Singlet-A      7.6167 eV  162.78 nm  f=0.0004  <S**2>=0.000
       9 -> 14         0.19247
      11 -> 14         0.67411

 Excited State   6:      Singlet-A      7.8749 eV  157.44 nm  f=0.0029  <S**2>=0.000
      10 -> 14         0.68701

 Excited State   7:      Singlet-A      8.2574 eV  150.15 nm  f=0.0287  <S**2>=0.000
      12 -> 14         0.12412
      12 -> 15         0.59400
      13 -> 16         0.11506
      13 -> 17         0.13252
      13 -> 18         0.19183
      13 -> 19        -0.14797

 Excited State   8:      Singlet-A      8.2714 eV  149.89 nm  f=0.2459  <S**2>=0.000
      12 -> 14         0.38043
      12 -> 15        -0.18763
      13 -> 16         0.45574
      13 -> 17         0.24592

 Excited State   9:      Singlet-A      8.6176 eV  143.87 nm  f=0.0022  <S**2>=0.000
      12 -> 15        -0.23842
      13 -> 17        -0.14247
      13 -> 18         0.50277
      13 -> 19        -0.32056
      13 -> 22         0.10488
      13 -> 23        -0.15954

 Excited State  10:      Singlet-A      8.8025 eV  140.85 nm  f=0.0111  <S**2>=0.000
       7 -> 15         0.10098
      12 -> 16        -0.43103
      12 -> 17         0.47553
      13 -> 18        -0.15478
      13 -> 19        -0.18844

 Excited State  11:      Singlet-A      8.8966 eV  139.36 nm  f=0.1810  <S**2>=0.000
       8 -> 15         0.11263
       9 -> 17        -0.11951
      12 -> 16         0.48031
      12 -> 17         0.42498
      13 -> 14        -0.13343

 Excited State  12:      Singlet-A      9.1121 eV  136.07 nm  f=0.0187  <S**2>=0.000
       9 -> 15         0.13540
       9 -> 16        -0.29264
       9 -> 17        -0.13043
      10 -> 16        -0.16366
      10 -> 17        -0.13027
      11 -> 15        -0.23769
      11 -> 16         0.44545
      11 -> 17         0.20018

 Excited State  13:      Singlet-A      9.2147 eV  134.55 nm  f=0.0002  <S**2>=0.000
      13 -> 18         0.15802
      13 -> 19         0.16035
      13 -> 20         0.55208
      13 -> 21        -0.30592
      13 -> 22         0.13485

 Excited State  14:      Singlet-A      9.3717 eV  132.30 nm  f=0.0145  <S**2>=0.000
       8 -> 15         0.10240
       9 -> 14         0.12742
       9 -> 17        -0.20416
      10 -> 15         0.33314
      10 -> 17         0.13733
      10 -> 19        -0.15956
      11 -> 15         0.34046
      11 -> 17         0.11847
      11 -> 18        -0.23616
      12 -> 16        -0.13411

 Excited State  15:      Singlet-A      9.4512 eV  131.18 nm  f=0.0031  <S**2>=0.000
       9 -> 14         0.63385
      11 -> 14        -0.17854

 The electronic state is 1-A.
 Alpha  occ. eigenvalues --   -1.83870  -1.19254  -0.97540  -0.87298  -0.80208
 Alpha  occ. eigenvalues --   -0.73417  -0.71809  -0.59934  -0.55118  -0.51916
 Alpha  occ. eigenvalues --   -0.50584  -0.46507  -0.39302
 Alpha virt. eigenvalues --    0.03793   0.09771   0.11010   0.11210   0.18235
 Alpha virt. eigenvalues --    0.19036   0.20900   0.21492   0.26682   0.27489
 Alpha virt. eigenvalues --    0.28629

 Mulliken charges:
               1
     1  C   -0.106850
     2  C   -1.290179
     3  O    2.156341
     4  C   -1.294710
     5  C   -0.109168
     6  H    0.103300
     7  H    0.216068
     8  H    0.209166
     9  H    0.116031
 Sum of Mulliken charges =   0.00000

 Dipole moment (field-independent basis, Debye):
    X=              2.8718    Y=             -6.3462    Z=             -0.3075  Tot=              6.9725
 N-N= 1.043121632758D+02 E-N=-1.711542528273D+02  KE=-1.498539866945D+01
 Orbital energies and kinetic energies (alpha):
                                 1                 2
   1         O                -1.838697         -1.256697
   2         O                -1.192541         -0.976622
   3         O                -0.975396         -0.789524
   4         O                -0.872976         -0.640354
   5         O                -0.802085         -0.659948
   6         O                -0.734170         -0.599214
   7         O                -0.718095         -0.514496

 Normal termination of Gaussian 09 at Tue Dec 15 17:05:44 2015.
