 Gaussian 09, Revision D.01,
 Gaussian 09:  ES64L-G09RevD.01 24-Apr-2013

 ------------------------------------------------------------
 #P AM1(Input,print) CIS(Singlets,NStates=15) pop(full) force
 ------------------------------------------------------------

 -----------------
 AM1-Reparam Input
 -----------------
 Symbolic Z-matrix:
 Charge =  0 Multiplicity = 1

                         Standard orientation:
 ---------------------------------------------------------------------
 Center     Atomic      Atomic             Coordinates (Angstroms)
 Number     Number       Type             X           Y           Z
 ---------------------------------------------------------------------
      1          6           0        0.959612    0.811778    0.014553
      2          6           0        0.988970   -0.599361   -0.004518
      3          8           0       -0.284980   -1.155866    0.008552
      4          6           0       -1.119805   -0.053989   -0.024754
      5          6           0       -0.525720    1.073199    0.000333
      6          1           0       -0.919785    2.022008   -0.017033
      7          1           0       -2.191863   -0.412602    0.069901
      8          1           0        1.864087   -1.278295   -0.035103
      9          1           0        1.709057    1.526061    0.000133
 ---------------------------------------------------------------------

 SCF Done:  E(RAM1) =   2.86153961184     A.U. after   13 cycles

 Excitation energies and oscillator strengths:

 Excited State   1:      Singlet-A      4.9531 eV  250.32 nm  f=0.3549  <S**2>=0.000
      13 -> 14         0.69723
 This state for optimization and/or second-order correction.
 Total Energy, E(CIS) =   3.04356115516
 Copying the excited state density for this state as the 1-particle RhoCI density.

 Excited State   2:      Singlet-A      5.6139 eV  220.85 nm  f=0.0005  <S**2>=0.000
      11 -> 15         0.10037
      13 -> 15         0.67369
      13 -> 18         0.15774

 Excited State   3:      Singlet-A      6.2168 eV  199.43 nm  f=0.0021  <S**2>=0.000
      13 -> 15         0.10126
      13 -> 16         0.63103
      13 -> 17         0.24736
      13 -> 18        -0.11160

 Excited State   4:      Singlet-A      6.3553 eV  195.09 nm  f=0.0002  <S**2>=0.000
      12 -> 14         0.69953

 Excited State   5:      Singlet-A      7.2817 eV  170.27 nm  f=0.0005  <S**2>=0.000
      13 -> 16         0.19773
      13 -> 17        -0.23049
      13 -> 18         0.50199
      13 -> 19         0.24000
      13 -> 20         0.15945
      13 -> 21         0.21682

 Excited State   6:      Singlet-A      7.7201 eV  160.60 nm  f=0.0269  <S**2>=0.000
      10 -> 14         0.15161
      13 -> 16        -0.13788
      13 -> 17         0.56777
      13 -> 18         0.34022

 Excited State   7:      Singlet-A      8.0631 eV  153.77 nm  f=0.0002  <S**2>=0.000
      10 -> 14         0.67854
      13 -> 17        -0.15076

 Excited State   8:      Singlet-A      8.3130 eV  149.14 nm  f=0.0032  <S**2>=0.000
      13 -> 16        -0.10481
      13 -> 17         0.15264
      13 -> 18        -0.24972
      13 -> 19         0.57400
      13 -> 21         0.22783

 Excited State   9:      Singlet-A      8.3690 eV  148.15 nm  f=0.0634  <S**2>=0.000
       8 -> 15         0.11636
      11 -> 14         0.57495
      12 -> 15         0.33889

 Excited State  10:      Singlet-A      8.7921 eV  141.02 nm  f=0.2684  <S**2>=0.000
       8 -> 15         0.11288
      11 -> 14        -0.36418
      12 -> 15         0.51531
      12 -> 16        -0.17357
      12 -> 18         0.14387

 Excited State  11:      Singlet-A      8.8943 eV  139.40 nm  f=0.0063  <S**2>=0.000
      13 -> 18        -0.14776
      13 -> 19        -0.22139
      13 -> 20         0.59116
      13 -> 21         0.24533

 Excited State  12:      Singlet-A      9.2036 eV  134.71 nm  f=0.0758  <S**2>=0.000
      13 -> 19        -0.21905
      13 -> 20        -0.32653
      13 -> 21         0.57160

 Excited State  13:      Singlet-A      9.4188 eV  131.64 nm  f=0.0257  <S**2>=0.000
       9 -> 15        -0.12283
      10 -> 15        -0.15645
      10 -> 17        -0.12129
      10 -> 18        -0.13547
      12 -> 15         0.24747
      12 -> 16         0.42524
      12 -> 17         0.25604
      12 -> 18        -0.20441
      12 -> 19        -0.13764

 Excited State  14:      Singlet-A      9.6125 eV  128.98 nm  f=0.0023  <S**2>=0.000
       7 -> 15        -0.15806
      11 -> 15         0.65676
      13 -> 15        -0.12079

 Excited State  15:      Singlet-A      9.9034 eV  125.19 nm  f=0.0140  <S**2>=0.000
       7 -> 16         0.11279
      11 -> 16         0.57715
      12 -> 16        -0.17424
      12 -> 18        -0.10113
      12 -> 19        -0.14844
      13 -> 16         0.13298

 The electronic state is 1-A.
 Alpha  occ. eigenvalues --   -1.69785  -1.10534  -0.90744  -0.78706  -0.74026
 Alpha  occ. eigenvalues --   -0.66189  -0.62207  -0.51756  -0.49372  -0.44208
 Alpha  occ. eigenvalues --   -0.42230  -0.38433  -0.26116
 Alpha virt. eigenvalues --    0.11734   0.16244   0.19456   0.26755   0.27701
 Alpha virt. eigenvalues --    0.30195   0.31051   0.31818   0.35581   0.45190
 Alpha virt. eigenvalues --    0.48177

 Mulliken charges:
               1
     1  C   -0.171549
     2  C   -1.949570
     3  O    3.192667
     4  C   -1.862102
     5  C   -0.124289
     6  H    0.168988
     7  H    0.272240
     8  H    0.300775
     9  H    0.172840
 Sum of Mulliken charges =   0.00000

 Dipole moment (field-independent basis, Debye):
    X=             -3.2444    Y=            -10.9913    Z=              0.3844  Tot=             11.4665
 N-N= 1.033113298101D+02 E-N=-1.681030132908D+02  KE=-1.471045465670D+01
 Orbital energies and kinetic energies (alpha):
                                 1                 2
   1         O                -1.697849         -1.176991
   2         O                -1.105339         -0.990918
   3         O                -0.907441         -0.843193
   4         O                -0.787056         -0.595785
   5         O                -0.740258         -0.666039
   6         O                -0.661887         -0.573078
   7         O                -0.622071         -0.514703

 Normal termination of Gaussian 09 at Tue Dec 15 17:06:05 2015.
