 Gaussian 09, Revision D.01,
 Gaussian 09:  ES64L-G09RevD.01 24-Apr-2013

 -------------------------------------------------------
 #P B3LYP/3-21G CIS(Singlets,NStates=15) pop(full) force
 -------------------------------------------------------

 --------
 FuranDFT
 --------
 Symbolic Z-matrix:
 Charge =  0 Multiplicity = 1

                         Standard orientation:
 ---------------------------------------------------------------------
 Center     Atomic      Atomic             Coordinates (Angstroms)
 Number     Number       Type             X           Y           Z
 ---------------------------------------------------------------------
      1          6           0       -0.758455    0.927988   -0.011958
      2          6           0       -1.090365   -0.318593    0.029877
      3          8           0        0.016607   -1.170386   -0.037171
      4          6           0        1.068205   -0.332823    0.042094
      5          6           0        0.758371    0.984817   -0.009150
      6          1           0        1.365174    1.773344   -0.016099
      7          1           0        2.037449   -0.902824   -0.007160
      8          1           0       -2.057556   -0.851726    0.034843
      9          1           0       -1.344462    1.775963   -0.019400
 ---------------------------------------------------------------------

 SCF Done:  E(RB3LYP) =  -228.730601755     A.U. after   14 cycles

 Excitation energies and oscillator strengths:

 Excited State   1:      Singlet-A      7.3403 eV  168.91 nm  f=0.0392  <S**2>=0.000
      17 -> 19         0.41977
      18 -> 19        -0.34065
      18 -> 20         0.43871
 This state for optimization and/or second-order correction.
 Total Energy, E(CIS) =  -228.460851746
 Copying the excited state density for this state as the 1-particle RhoCI density.

 Excited State   2:      Singlet-A      7.5223 eV  164.82 nm  f=0.1494  <S**2>=0.000
      17 -> 19         0.31691
      18 -> 19         0.58666
      18 -> 20         0.16960

 Excited State   3:      Singlet-A      8.9795 eV  138.07 nm  f=0.0166  <S**2>=0.000
      17 -> 20         0.17571
      18 -> 20        -0.12280
      18 -> 21         0.57162
      18 -> 22        -0.29733

 Excited State   4:      Singlet-A      9.0463 eV  137.05 nm  f=0.0956  <S**2>=0.000
      16 -> 19        -0.21386
      17 -> 19         0.15186
      17 -> 20         0.51019
      18 -> 20        -0.22192
      18 -> 21        -0.28164

 Excited State   5:      Singlet-A      9.1382 eV  135.68 nm  f=0.0141  <S**2>=0.000
      16 -> 19         0.24904
      17 -> 20         0.21018
      18 -> 21         0.22451
      18 -> 22         0.55131
      18 -> 23        -0.13508

 Excited State   6:      Singlet-A      9.2264 eV  134.38 nm  f=0.0065  <S**2>=0.000
      16 -> 19         0.59792
      17 -> 20         0.18003
      18 -> 21        -0.10330
      18 -> 22        -0.27027

 Excited State   7:      Singlet-A      9.6934 eV  127.91 nm  f=0.0006  <S**2>=0.000
      15 -> 19        -0.37961
      18 -> 22         0.14604
      18 -> 23         0.55627

 Excited State   8:      Singlet-A      9.7860 eV  126.69 nm  f=0.0154  <S**2>=0.000
      15 -> 19         0.55019
      17 -> 21         0.18356
      18 -> 23         0.34496

 Excited State   9:      Singlet-A      9.9132 eV  125.07 nm  f=0.0838  <S**2>=0.000
      15 -> 19         0.15620
      17 -> 19        -0.16432
      17 -> 20         0.10679
      17 -> 21        -0.41269
      17 -> 22         0.41280
      18 -> 20         0.18124
      18 -> 21         0.10567
      18 -> 23         0.15096

 Excited State  10:      Singlet-A     10.0005 eV  123.98 nm  f=0.2972  <S**2>=0.000
      17 -> 19        -0.29791
      17 -> 20         0.25261
      17 -> 21         0.41150
      18 -> 20         0.31714
      18 -> 24        -0.10648

 Excited State  11:      Singlet-A     10.2378 eV  121.10 nm  f=0.0841  <S**2>=0.000
      17 -> 19         0.13856
      17 -> 20        -0.10980
      17 -> 21         0.32891
      17 -> 22         0.54186
      18 -> 20        -0.14908

 Excited State  12:      Singlet-A     10.5054 eV  118.02 nm  f=0.0029  <S**2>=0.000
      12 -> 19        -0.11729
      14 -> 19         0.16350
      15 -> 20         0.21503
      16 -> 20         0.60902
      17 -> 23         0.13645

 Excited State  13:      Singlet-A     10.6755 eV  116.14 nm  f=0.0095  <S**2>=0.000
      14 -> 19         0.13045
      16 -> 20        -0.14982
      17 -> 23         0.65067

 Excited State  14:      Singlet-A     10.7801 eV  115.01 nm  f=0.0170  <S**2>=0.000
      14 -> 19         0.44022
      16 -> 20        -0.11509
      18 -> 24         0.50424
      18 -> 25        -0.10093

 Excited State  15:      Singlet-A     10.8429 eV  114.35 nm  f=0.0042  <S**2>=0.000
      14 -> 19         0.49406
      16 -> 20        -0.10200
      17 -> 23        -0.19550
      18 -> 24        -0.43738

 The electronic state is 1-A.
 Alpha  occ. eigenvalues --  -19.10919 -10.18019 -10.17262 -10.12367 -10.12261
 Alpha  occ. eigenvalues --   -1.12334  -0.80769  -0.74933  -0.61287  -0.56200
 Alpha  occ. eigenvalues --   -0.54769  -0.45119  -0.44630  -0.42466  -0.38626
 Alpha  occ. eigenvalues --   -0.36768  -0.27578  -0.24034
 Alpha virt. eigenvalues --    0.02784   0.07576   0.13663   0.14493   0.16145
 Alpha virt. eigenvalues --    0.19946   0.20543   0.23791   0.36662   0.41527
 Alpha virt. eigenvalues --    0.46441   0.66471   0.69488   0.69793   0.75166

 Mulliken charges:
               1
     1  C   -0.257764
     2  C    0.085337
     3  O   -0.478959
     4  C    0.108043
     5  C   -0.254853
     6  H    0.187143
     7  H    0.205532
     8  H    0.211779
     9  H    0.193742
 Sum of Mulliken charges =   0.00000

 Dipole moment (field-independent basis, Debye):
    X=             -0.0751    Y=              0.8224    Z=              0.0253  Tot=              0.8262
 Quadrupole moment (field-independent basis, Debye-Ang):
   XX=            -23.8555   YY=            -27.9530   ZZ=            -31.6900
   XY=              0.0237   XZ=             -0.1011   YZ=             -0.1254

 Normal termination of Gaussian 09 at Tue Dec 15 16:11:16 2015.
