 Gaussian 09, Revision D.01,
 Gaussian 09:  ES64L-G09RevD.01 24-Apr-2013

 ------------------------------------------------------------
 #P AM1(Input,print) CIS(Singlets,NStates=15) pop(full) force
 ------------------------------------------------------------

 -----------------
 AM1-Reparam Input
 -----------------
 Symbolic Z-matrix:
 Charge =  0 Multiplicity = 1

                         Standard orientation:
 ---------------------------------------------------------------------
 Center     Atomic      Atomic             Coordinates (Angstroms)
 Number     Number       Type             X           Y           Z
 ---------------------------------------------------------------------
      1          6           0       -0.357273    1.107183    0.008426
      2          6           0       -1.134583   -0.015534   -0.019840
      3          8           0       -0.369875   -1.079863    0.012951
      4          6           0        0.918742   -0.623146   -0.030174
      5          6           0        0.961139    0.656778    0.000726
      6          1           0        1.851394    1.255369    0.024804
      7          1           0        1.690044   -1.408432    0.072972
      8          1           0       -2.200424   -0.150930    0.036690
      9          1           0       -0.710163    2.191213    0.007102
 ---------------------------------------------------------------------

 SCF Done:  E(RAM1) =   1.40469464411     A.U. after   13 cycles

 Excitation energies and oscillator strengths:

 Excited State   1:      Singlet-A      6.0729 eV  204.16 nm  f=0.2699  <S**2>=0.000
      13 -> 14         0.66498
      13 -> 15        -0.17701
 This state for optimization and/or second-order correction.
 Total Energy, E(CIS) =   1.62787144350
 Copying the excited state density for this state as the 1-particle RhoCI density.

 Excited State   2:      Singlet-A      6.2006 eV  199.95 nm  f=0.0306  <S**2>=0.000
      11 -> 16         0.10389
      13 -> 14         0.19397
      13 -> 15         0.63310
      13 -> 16         0.10244
      13 -> 17         0.16039

 Excited State   3:      Singlet-A      6.4045 eV  193.59 nm  f=0.0021  <S**2>=0.000
      11 -> 15         0.12984
      13 -> 15        -0.10258
      13 -> 16         0.65681
      13 -> 21         0.10772

 Excited State   4:      Singlet-A      7.5352 eV  164.54 nm  f=0.0005  <S**2>=0.000
      11 -> 14         0.29318
      12 -> 14         0.61957
      13 -> 22        -0.11861

 Excited State   5:      Singlet-A      7.5659 eV  163.87 nm  f=0.0065  <S**2>=0.000
      13 -> 15        -0.16376
      13 -> 17         0.66618

 Excited State   6:      Singlet-A      7.9926 eV  155.12 nm  f=0.0011  <S**2>=0.000
      11 -> 15         0.10597
      13 -> 18         0.52193
      13 -> 22        -0.41378

 Excited State   7:      Singlet-A      8.3600 eV  148.31 nm  f=0.0016  <S**2>=0.000
      10 -> 14         0.66502
      11 -> 14         0.14175

 Excited State   8:      Singlet-A      8.6419 eV  143.47 nm  f=0.0133  <S**2>=0.000
      10 -> 14        -0.18158
      11 -> 14         0.48074
      12 -> 14        -0.21328
      12 -> 15         0.11573
      13 -> 19         0.38726

 Excited State   9:      Singlet-A      8.6948 eV  142.60 nm  f=0.0041  <S**2>=0.000
      11 -> 15        -0.19304
      13 -> 18         0.39242
      13 -> 20        -0.13944
      13 -> 21         0.34816
      13 -> 22         0.37683

 Excited State  10:      Singlet-A      8.7929 eV  141.00 nm  f=0.0147  <S**2>=0.000
      13 -> 18         0.21469
      13 -> 20         0.54909
      13 -> 21        -0.23413
      13 -> 22         0.22314

 Excited State  11:      Singlet-A      9.1092 eV  136.11 nm  f=0.0132  <S**2>=0.000
      11 -> 15         0.44658
      11 -> 16        -0.25892
      12 -> 15        -0.23449
      12 -> 16         0.10927
      13 -> 16        -0.16632
      13 -> 21         0.30731

 Excited State  12:      Singlet-A      9.3297 eV  132.89 nm  f=0.0464  <S**2>=0.000
      11 -> 15        -0.29061
      11 -> 16        -0.17348
      13 -> 19         0.19603
      13 -> 20         0.27221
      13 -> 21         0.35761
      13 -> 22        -0.31413

 Excited State  13:      Singlet-A      9.4212 eV  131.60 nm  f=0.0600  <S**2>=0.000
       8 -> 15        -0.16681
      10 -> 17        -0.16691
      11 -> 14         0.11181
      12 -> 15         0.16807
      12 -> 16         0.42849
      12 -> 18        -0.11186
      13 -> 19        -0.34064

 Excited State  14:      Singlet-A      9.5588 eV  129.71 nm  f=0.1618  <S**2>=0.000
       8 -> 15        -0.14921
      11 -> 14        -0.26632
      11 -> 15         0.14450
      11 -> 16         0.43124
      12 -> 14         0.10247
      12 -> 16         0.17051
      13 -> 19         0.27793

 Excited State  15:      Singlet-A      9.6385 eV  128.63 nm  f=0.1079  <S**2>=0.000
      11 -> 14         0.21056
      11 -> 16         0.34414
      12 -> 16        -0.27456
      13 -> 15        -0.11204
      13 -> 19        -0.26871
      13 -> 20         0.24059
      13 -> 21         0.23824

 The electronic state is 1-A.
 Alpha  occ. eigenvalues --   -1.91374  -1.21490  -0.96805  -0.79271  -0.77564
 Alpha  occ. eigenvalues --   -0.67693  -0.63721  -0.49781  -0.47766  -0.39750
 Alpha  occ. eigenvalues --   -0.37556  -0.37433  -0.24783
 Alpha virt. eigenvalues --    0.18374   0.20993   0.21852   0.28351   0.30317
 Alpha virt. eigenvalues --    0.31527   0.33335   0.34724   0.36209   0.41802
 Alpha virt. eigenvalues --    0.47082

 Mulliken charges:
               1
     1  C   -0.111606
     2  C   -1.574199
     3  O    2.785536
     4  C   -1.529378
     5  C   -0.013742
     6  H    0.057597
     7  H    0.149735
     8  H    0.173591
     9  H    0.062465
 Sum of Mulliken charges =   0.00000

 Dipole moment (field-independent basis, Debye):
    X=             -2.8800    Y=             -9.0424    Z=              0.6522  Tot=              9.5123
 N-N= 1.044813463564D+02 E-N=-1.714977744607D+02  KE=-1.595576211947D+01
 Orbital energies and kinetic energies (alpha):
                                 1                 2
   1         O                -1.913743         -1.418329
   2         O                -1.214899         -1.090103
   3         O                -0.968053         -0.886161
   4         O                -0.792708         -0.624583
   5         O                -0.775637         -0.704249
   6         O                -0.676935         -0.618216
   7         O                -0.637207         -0.560303

 Normal termination of Gaussian 09 at Tue Dec 15 17:08:10 2015.
