 Gaussian 09, Revision D.01,
 Gaussian 09:  ES64L-G09RevD.01 24-Apr-2013

 ------------------------------------------------------------
 #P AM1(Input,print) CIS(Singlets,NStates=15) pop(full) force
 ------------------------------------------------------------

 -----------------
 AM1-Reparam Input
 -----------------
 Symbolic Z-matrix:
 Charge =  0 Multiplicity = 1

                         Standard orientation:
 ---------------------------------------------------------------------
 Center     Atomic      Atomic             Coordinates (Angstroms)
 Number     Number       Type             X           Y           Z
 ---------------------------------------------------------------------
      1          6           0       -1.137190    0.380335    0.010335
      2          6           0       -0.696027   -0.885175   -0.005211
      3          8           0        0.690219   -0.967181    0.003865
      4          6           0        1.061751    0.335255   -0.003555
      5          6           0        0.039693    1.178220   -0.013275
      6          1           0        0.091382    2.257813   -0.001811
      7          1           0        2.232895    0.449551    0.037523
      8          1           0       -1.277352   -1.790679   -0.025039
      9          1           0       -2.178041    0.768954    0.028640
 ---------------------------------------------------------------------

 SCF Done:  E(RAM1) =   1.86771475098     A.U. after   14 cycles

 Excitation energies and oscillator strengths:

 Excited State   1:      Singlet-A      5.6636 eV  218.91 nm  f=0.3218  <S**2>=0.000
      11 -> 17        -0.10530
      13 -> 14         0.69053
 This state for optimization and/or second-order correction.
 Total Energy, E(CIS) =   2.07584848806
 Copying the excited state density for this state as the 1-particle RhoCI density.

 Excited State   2:      Singlet-A      5.8168 eV  213.15 nm  f=0.0036  <S**2>=0.000
      10 -> 15         0.12234
      13 -> 15         0.68262

 Excited State   3:      Singlet-A      6.5462 eV  189.40 nm  f=0.0013  <S**2>=0.000
      10 -> 16        -0.12249
      13 -> 16         0.66832
      13 -> 17        -0.10850

 Excited State   4:      Singlet-A      6.7211 eV  184.47 nm  f=0.0001  <S**2>=0.000
      12 -> 14         0.69989

 Excited State   5:      Singlet-A      7.7847 eV  159.27 nm  f=0.0087  <S**2>=0.000
      11 -> 14         0.64172
      13 -> 17         0.27185

 Excited State   6:      Singlet-A      7.9914 eV  155.15 nm  f=0.0023  <S**2>=0.000
      11 -> 14        -0.25401
      13 -> 17         0.51399
      13 -> 18        -0.31959
      13 -> 19         0.15191
      13 -> 22        -0.16532

 Excited State   7:      Singlet-A      8.1503 eV  152.12 nm  f=0.0041  <S**2>=0.000
      10 -> 16        -0.10582
      11 -> 14        -0.12510
      13 -> 16         0.12064
      13 -> 17         0.35007
      13 -> 18         0.53691
      13 -> 22         0.20014

 Excited State   8:      Singlet-A      8.5015 eV  145.84 nm  f=0.0909  <S**2>=0.000
       8 -> 15         0.17479
      10 -> 14         0.13879
      12 -> 15         0.59303
      12 -> 16        -0.15182
      12 -> 18         0.15944

 Excited State   9:      Singlet-A      8.8785 eV  139.64 nm  f=0.0003  <S**2>=0.000
      13 -> 18         0.17948
      13 -> 19         0.65750

 Excited State  10:      Singlet-A      8.9064 eV  139.21 nm  f=0.0177  <S**2>=0.000
       8 -> 16        -0.12537
      10 -> 14         0.48903
      11 -> 15         0.11217
      11 -> 17        -0.16999
      12 -> 16         0.32878
      12 -> 18        -0.15392
      13 -> 21        -0.10287

 Excited State  11:      Singlet-A      9.1377 eV  135.68 nm  f=0.0373  <S**2>=0.000
       9 -> 15         0.17571
      10 -> 14        -0.32559
      11 -> 15         0.39922
      11 -> 17        -0.17001
      12 -> 15         0.24958
      12 -> 16         0.14201
      12 -> 17        -0.12257
      12 -> 18        -0.18419

 Excited State  12:      Singlet-A      9.3721 eV  132.29 nm  f=0.0065  <S**2>=0.000
       6 -> 15        -0.10453
      10 -> 15         0.64210
      13 -> 15        -0.13951
      13 -> 22        -0.10941

 Excited State  13:      Singlet-A      9.6056 eV  129.08 nm  f=0.1122  <S**2>=0.000
       8 -> 15        -0.17692
       9 -> 15         0.14588
      10 -> 14         0.31555
      11 -> 15         0.34234
      11 -> 19        -0.13526
      12 -> 15        -0.14444
      12 -> 16        -0.33409
      12 -> 17        -0.12625

 Excited State  14:      Singlet-A      9.6746 eV  128.15 nm  f=0.2208  <S**2>=0.000
      11 -> 16        -0.28616
      11 -> 17         0.22191
      12 -> 16         0.38465
      12 -> 17        -0.19230
      12 -> 18         0.30718
      12 -> 22         0.10205

 Excited State  15:      Singlet-A      9.7516 eV  127.14 nm  f=0.0018  <S**2>=0.000
      10 -> 15         0.14663
      13 -> 18        -0.23833
      13 -> 22         0.63248

 The electronic state is 1-A.
 Alpha  occ. eigenvalues --   -1.93529  -1.22264  -0.96614  -0.80378  -0.79426
 Alpha  occ. eigenvalues --   -0.68559  -0.66132  -0.49729  -0.48720  -0.41222
 Alpha  occ. eigenvalues --   -0.39962  -0.36511  -0.26344
 Alpha virt. eigenvalues --    0.15429   0.16779   0.20719   0.27789   0.29199
 Alpha virt. eigenvalues --    0.31878   0.33689   0.35788   0.36793   0.45346
 Alpha virt. eigenvalues --    0.48761

 Mulliken charges:
               1
     1  C   -0.078721
     2  C   -1.911292
     3  O    3.107472
     4  C   -1.874209
     5  C   -0.116333
     6  H    0.144238
     7  H    0.284144
     8  H    0.305418
     9  H    0.139284
 Sum of Mulliken charges =   0.00000

 Dipole moment (field-independent basis, Debye):
    X=              6.5548    Y=             -8.9107    Z=              0.1639  Tot=             11.0631
 N-N= 1.040915067616D+02 E-N=-1.698132126642D+02  KE=-1.564659502266D+01
 Orbital energies and kinetic energies (alpha):
                                 1                 2
   1         O                -1.935287         -1.405960
   2         O                -1.222640         -1.099270
   3         O                -0.966139         -0.911236
   4         O                -0.803776         -0.640954
   5         O                -0.794262         -0.650008
   6         O                -0.685588         -0.578826
   7         O                -0.661324         -0.581235

 Normal termination of Gaussian 09 at Tue Dec 15 17:10:04 2015.
