 Gaussian 09, Revision D.01,
 Gaussian 09:  ES64L-G09RevD.01 24-Apr-2013

 ------------------------------------------------------------
 #P AM1(Input,print) CIS(Singlets,NStates=15) pop(full) force
 ------------------------------------------------------------

 -----------------
 AM1-Reparam Input
 -----------------
 Symbolic Z-matrix:
 Charge =  0 Multiplicity = 1

                         Standard orientation:
 ---------------------------------------------------------------------
 Center     Atomic      Atomic             Coordinates (Angstroms)
 Number     Number       Type             X           Y           Z
 ---------------------------------------------------------------------
      1          6           0       -0.873396    0.885094    0.037995
      2          6           0       -1.056651   -0.514862   -0.031016
      3          8           0        0.187870   -1.157394    0.029963
      4          6           0        1.139993   -0.180627   -0.018536
      5          6           0        0.583327    1.030721   -0.014062
      6          1           0        1.102784    1.990162    0.006108
      7          1           0        2.125937   -0.480355   -0.009790
      8          1           0       -1.858154   -1.182478   -0.058149
      9          1           0       -1.633164    1.609865   -0.024166
 ---------------------------------------------------------------------

 SCF Done:  E(RAM1) =   1.79340787010     A.U. after   13 cycles

 Excitation energies and oscillator strengths:

 Excited State   1:      Singlet-A      5.3585 eV  231.38 nm  f=0.3642  <S**2>=0.000
      13 -> 14         0.69367
 This state for optimization and/or second-order correction.
 Total Energy, E(CIS) =   1.99032943314
 Copying the excited state density for this state as the 1-particle RhoCI density.

 Excited State   2:      Singlet-A      6.7273 eV  184.30 nm  f=0.0063  <S**2>=0.000
      13 -> 15         0.67463
      13 -> 18        -0.12993

 Excited State   3:      Singlet-A      6.9103 eV  179.42 nm  f=0.0023  <S**2>=0.000
      13 -> 16         0.65739
      13 -> 17        -0.16300
      13 -> 19         0.12708

 Excited State   4:      Singlet-A      7.4104 eV  167.31 nm  f=0.0011  <S**2>=0.000
      12 -> 14         0.69993

 Excited State   5:      Singlet-A      8.1377 eV  152.36 nm  f=0.0000  <S**2>=0.000
      13 -> 16        -0.14629
      13 -> 17        -0.42918
      13 -> 18         0.46749
      13 -> 21         0.22772

 Excited State   6:      Singlet-A      8.3547 eV  148.40 nm  f=0.0061  <S**2>=0.000
      10 -> 14         0.69634

 Excited State   7:      Singlet-A      8.9634 eV  138.32 nm  f=0.1054  <S**2>=0.000
      11 -> 14         0.67206

 Excited State   8:      Singlet-A      9.0611 eV  136.83 nm  f=0.0146  <S**2>=0.000
      11 -> 14         0.13596
      11 -> 16        -0.12152
      13 -> 15         0.10979
      13 -> 17         0.48612
      13 -> 18         0.43078

 Excited State   9:      Singlet-A      9.5478 eV  129.86 nm  f=0.0023  <S**2>=0.000
      11 -> 16         0.13651
      13 -> 16        -0.10359
      13 -> 19         0.66456

 Excited State  10:      Singlet-A      9.8615 eV  125.73 nm  f=0.0186  <S**2>=0.000
       9 -> 15        -0.10931
      10 -> 15        -0.23862
      10 -> 16        -0.10035
      10 -> 17         0.13348
      10 -> 18         0.18477
      12 -> 15        -0.11524
      12 -> 16         0.35047
      12 -> 17        -0.31214
      12 -> 18         0.24779

 Excited State  11:      Singlet-A     10.2337 eV  121.15 nm  f=0.1438  <S**2>=0.000
      10 -> 15        -0.18576
      12 -> 15         0.63622
      12 -> 17        -0.11540
      12 -> 19        -0.10197

 Excited State  12:      Singlet-A     10.2780 eV  120.63 nm  f=0.0050  <S**2>=0.000
      13 -> 17         0.12085
      13 -> 18        -0.20820
      13 -> 20        -0.14983
      13 -> 21         0.63649

 Excited State  13:      Singlet-A     10.4785 eV  118.32 nm  f=0.0927  <S**2>=0.000
      11 -> 15         0.19921
      13 -> 20         0.64300
      13 -> 21         0.14196

 Excited State  14:      Singlet-A     10.5850 eV  117.13 nm  f=0.0140  <S**2>=0.000
      11 -> 15         0.50042
      11 -> 16         0.36858
      12 -> 16        -0.12229
      13 -> 16         0.11025
      13 -> 19        -0.10690
      13 -> 20        -0.11446

 Excited State  15:      Singlet-A     10.7628 eV  115.20 nm  f=0.1659  <S**2>=0.000
      10 -> 15         0.12865
      10 -> 16         0.37316
      10 -> 17        -0.12348
      11 -> 15         0.16936
      12 -> 16         0.46345
      12 -> 18        -0.11845
      12 -> 19         0.12306

 The electronic state is 1-A.
 Alpha  occ. eigenvalues --   -1.98448  -1.25309  -1.00550  -0.89488  -0.85058
 Alpha  occ. eigenvalues --   -0.76934  -0.73362  -0.63691  -0.62107  -0.52784
 Alpha  occ. eigenvalues --   -0.51921  -0.49748  -0.36409
 Alpha virt. eigenvalues --    0.03880   0.11737   0.12736   0.19791   0.20864
 Alpha virt. eigenvalues --    0.22924   0.25588   0.26531   0.27763   0.35935
 Alpha virt. eigenvalues --    0.40917

 Mulliken charges:
               1
     1  C   -0.099428
     2  C   -1.881669
     3  O    3.173406
     4  C   -1.878018
     5  C   -0.144475
     6  H    0.154542
     7  H    0.277302
     8  H    0.254821
     9  H    0.143519
 Sum of Mulliken charges =   0.00000

 Dipole moment (field-independent basis, Debye):
    X=              2.1751    Y=            -10.6310    Z=              0.6803  Tot=             10.8725
 N-N= 1.050348742864D+02 E-N=-1.695445372788D+02  KE=-1.562221190068D+01
 Orbital energies and kinetic energies (alpha):
                                 1                 2
   1         O                -1.984480         -1.351766
   2         O                -1.253091         -1.037875
   3         O                -1.005499         -0.878962
   4         O                -0.894881         -0.600152
   5         O                -0.850578         -0.703745
   6         O                -0.769339         -0.607648
   7         O                -0.733621         -0.533596

 Normal termination of Gaussian 09 at Tue Dec 15 17:09:07 2015.
