 Gaussian 09, Revision D.01,
 Gaussian 09:  ES64L-G09RevD.01 24-Apr-2013

 ------------------------------------------------------------
 #P AM1(Input,print) CIS(Singlets,NStates=15) pop(full) force
 ------------------------------------------------------------

 -----------------
 AM1-Reparam Input
 -----------------
 Symbolic Z-matrix:
 Charge =  0 Multiplicity = 1

                         Standard orientation:
 ---------------------------------------------------------------------
 Center     Atomic      Atomic             Coordinates (Angstroms)
 Number     Number       Type             X           Y           Z
 ---------------------------------------------------------------------
      1          6           0        0.284427    1.155142   -0.014745
      2          6           0       -1.009958    0.597668   -0.004234
      3          8           0       -0.898506   -0.785851    0.003526
      4          6           0        0.448782   -1.041636    0.009463
      5          6           0        1.206793    0.132270   -0.010155
      6          1           0        2.319277    0.109767    0.026051
      7          1           0        0.757952   -2.073515   -0.015654
      8          1           0       -1.915603    0.955824    0.004693
      9          1           0        0.446161    2.234072    0.074725
 ---------------------------------------------------------------------

 SCF Done:  E(RAM1) =  0.225949100965E-01 A.U. after   14 cycles

 Excitation energies and oscillator strengths:

 Excited State   1:      Singlet-A      4.0942 eV  302.83 nm  f=0.1133  <S**2>=0.000
      12 -> 15         0.16690
      13 -> 14         0.67853
 This state for optimization and/or second-order correction.
 Total Energy, E(CIS) =  0.173052857332
 Copying the excited state density for this state as the 1-particle RhoCI density.

 Excited State   2:      Singlet-A      4.6484 eV  266.72 nm  f=0.0005  <S**2>=0.000
      13 -> 15         0.11397
      13 -> 16         0.67969
      13 -> 22        -0.10164

 Excited State   3:      Singlet-A      4.8121 eV  257.65 nm  f=0.0134  <S**2>=0.000
      12 -> 14        -0.38114
      13 -> 15         0.57846
      13 -> 16        -0.12205

 Excited State   4:      Singlet-A      5.6526 eV  219.34 nm  f=0.0017  <S**2>=0.000
      12 -> 17         0.12159
      12 -> 18         0.10609
      12 -> 20        -0.14139
      13 -> 17         0.45631
      13 -> 18         0.31615
      13 -> 20        -0.28112
      13 -> 23        -0.19094

 Excited State   5:      Singlet-A      5.7251 eV  216.56 nm  f=0.0020  <S**2>=0.000
      12 -> 17         0.13090
      12 -> 18        -0.10395
      13 -> 17        -0.33372
      13 -> 18         0.40712
      13 -> 19        -0.23149
      13 -> 20        -0.15481
      13 -> 21        -0.11852
      13 -> 22        -0.20475
      13 -> 23         0.12804

 Excited State   6:      Singlet-A      6.0794 eV  203.94 nm  f=0.3403  <S**2>=0.000
       9 -> 16        -0.10020
      12 -> 14         0.54426
      12 -> 16         0.13680
      13 -> 15         0.35655

 Excited State   7:      Singlet-A      6.2093 eV  199.67 nm  f=0.0193  <S**2>=0.000
       7 -> 16        -0.20271
      12 -> 14        -0.11751
      12 -> 16         0.63074
      12 -> 22        -0.11530

 Excited State   8:      Singlet-A      6.5295 eV  189.88 nm  f=0.0856  <S**2>=0.000
      12 -> 15         0.51879
      13 -> 14        -0.11646
      13 -> 19         0.40238

 Excited State   9:      Singlet-A      6.5544 eV  189.16 nm  f=0.0576  <S**2>=0.000
      12 -> 15        -0.42773
      13 -> 18         0.13235
      13 -> 19         0.48915
      13 -> 23         0.10256

 Excited State  10:      Singlet-A      6.9288 eV  178.94 nm  f=0.0012  <S**2>=0.000
       9 -> 14        -0.18788
      10 -> 14        -0.33907
      11 -> 14         0.44932
      11 -> 15        -0.30000
      12 -> 18         0.10009

 Excited State  11:      Singlet-A      7.0299 eV  176.37 nm  f=0.0016  <S**2>=0.000
       9 -> 14         0.10177
      10 -> 14         0.44153
      10 -> 15         0.23328
      11 -> 14         0.42665
      11 -> 15         0.12440

 Excited State  12:      Singlet-A      7.1723 eV  172.86 nm  f=0.0035  <S**2>=0.000
      12 -> 17         0.19222
      12 -> 19         0.38488
      13 -> 18        -0.33532
      13 -> 20        -0.19602
      13 -> 22        -0.32935

 Excited State  13:      Singlet-A      7.2429 eV  171.18 nm  f=0.0001  <S**2>=0.000
      12 -> 17         0.27605
      12 -> 18         0.32888
      12 -> 19        -0.10647
      12 -> 22        -0.13521
      13 -> 17        -0.29549
      13 -> 18        -0.12662
      13 -> 19         0.10543
      13 -> 20        -0.24281
      13 -> 24         0.23503

 Excited State  14:      Singlet-A      7.4436 eV  166.56 nm  f=0.0011  <S**2>=0.000
      12 -> 17         0.36629
      12 -> 18        -0.20883
      12 -> 19        -0.11788
      12 -> 21        -0.12237
      12 -> 23        -0.10657
      13 -> 17         0.12039
      13 -> 21        -0.31479
      13 -> 22         0.27923
      13 -> 24        -0.14639

 Excited State  15:      Singlet-A      7.5370 eV  164.50 nm  f=0.0078  <S**2>=0.000
      12 -> 19         0.36568
      12 -> 20        -0.14450
      12 -> 21         0.23854
      12 -> 23         0.22929
      13 -> 21        -0.21972
      13 -> 22         0.27948
      13 -> 23        -0.19485

 The electronic state is 1-A.
 Alpha  occ. eigenvalues --   -1.54894  -1.23986  -1.08677  -0.83049  -0.81285
 Alpha  occ. eigenvalues --   -0.68421  -0.59528  -0.56922  -0.51525  -0.50744
 Alpha  occ. eigenvalues --   -0.49192  -0.39961  -0.33542
 Alpha virt. eigenvalues --    0.02064   0.06329   0.09767   0.13994   0.14588
 Alpha virt. eigenvalues --    0.15609   0.17708   0.17967   0.19168   0.20934
 Alpha virt. eigenvalues --    0.21742

 Mulliken charges:
               1
     1  C   -0.182846
     2  C   -0.118262
     3  O   -0.068434
     4  C   -0.120197
     5  C   -0.192958
     6  H    0.166805
     7  H    0.183980
     8  H    0.175865
     9  H    0.156048
 Sum of Mulliken charges =   0.00000

 Dipole moment (field-independent basis, Debye):
    X=              0.5010    Y=              0.1880    Z=              0.0869  Tot=              0.5421
 N-N= 1.031051270201D+02 E-N=-1.704094215029D+02  KE=-1.652114383404D+01
 Orbital energies and kinetic energies (alpha):
                                 1                 2
   1         O                -1.548936         -1.299896
   2         O                -1.239856         -1.053862
   3         O                -1.086774         -0.954400
   4         O                -0.830491         -0.736961
   5         O                -0.812847         -0.698382
   6         O                -0.684209         -0.600869
   7         O                -0.595279         -0.480615

 Normal termination of Gaussian 09 at Tue Dec 15 16:23:07 2015.
