 Gaussian 09, Revision D.01,
 Gaussian 09:  ES64L-G09RevD.01 24-Apr-2013

 ------------------------------------------------------------
 #P AM1(Input,print) CIS(Singlets,NStates=15) pop(full) force
 ------------------------------------------------------------

 -----------------
 AM1-Reparam Input
 -----------------
 Symbolic Z-matrix:
 Charge =  0 Multiplicity = 1

                         Standard orientation:
 ---------------------------------------------------------------------
 Center     Atomic      Atomic             Coordinates (Angstroms)
 Number     Number       Type             X           Y           Z
 ---------------------------------------------------------------------
      1          6           0       -0.585602    1.057473   -0.018000
      2          6           0       -1.120263   -0.201910    0.019622
      3          8           0       -0.163898   -1.148734   -0.002021
      4          6           0        1.014724   -0.518693   -0.021482
      5          6           0        0.875538    0.862879    0.004002
      6          1           0        1.588808    1.641524    0.066881
      7          1           0        1.873576   -1.106909    0.044213
      8          1           0       -2.169753   -0.487836    0.012103
      9          1           0       -1.087835    1.944592   -0.011880
 ---------------------------------------------------------------------

 SCF Done:  E(RAM1) =   2.10294532065     A.U. after   13 cycles

 Excitation energies and oscillator strengths:

 Excited State   1:      Singlet-A      5.4090 eV  229.22 nm  f=0.3689  <S**2>=0.000
      13 -> 14         0.69677
 This state for optimization and/or second-order correction.
 Total Energy, E(CIS) =   2.30172367736
 Copying the excited state density for this state as the 1-particle RhoCI density.

 Excited State   2:      Singlet-A      6.6107 eV  187.55 nm  f=0.0042  <S**2>=0.000
      13 -> 15         0.66317
      13 -> 16         0.11103
      13 -> 17        -0.16406

 Excited State   3:      Singlet-A      6.7039 eV  184.94 nm  f=0.0006  <S**2>=0.000
      13 -> 15        -0.10514
      13 -> 16         0.65289
      13 -> 18        -0.16863
      13 -> 19         0.12502

 Excited State   4:      Singlet-A      7.0850 eV  175.00 nm  f=0.0005  <S**2>=0.000
      12 -> 14         0.69933

 Excited State   5:      Singlet-A      8.0926 eV  153.21 nm  f=0.0000  <S**2>=0.000
      13 -> 16         0.13579
      13 -> 18         0.57686
      13 -> 20        -0.13808
      13 -> 21         0.32085

 Excited State   6:      Singlet-A      8.2642 eV  150.03 nm  f=0.0085  <S**2>=0.000
      10 -> 14         0.67517
      11 -> 14         0.11292
      13 -> 17         0.14869

 Excited State   7:      Singlet-A      8.6663 eV  143.06 nm  f=0.0110  <S**2>=0.000
      10 -> 14        -0.14932
      11 -> 16        -0.12360
      13 -> 15         0.12058
      13 -> 17         0.65356

 Excited State   8:      Singlet-A      8.8483 eV  140.12 nm  f=0.1145  <S**2>=0.000
      10 -> 14        -0.12474
      11 -> 14         0.67217
      13 -> 22         0.10035

 Excited State   9:      Singlet-A      9.2536 eV  133.98 nm  f=0.0006  <S**2>=0.000
      13 -> 19         0.68006

 Excited State  10:      Singlet-A      9.6018 eV  129.13 nm  f=0.0095  <S**2>=0.000
      13 -> 18        -0.34211
      13 -> 20        -0.31177
      13 -> 21         0.52097

 Excited State  11:      Singlet-A      9.8031 eV  126.47 nm  f=0.0949  <S**2>=0.000
       8 -> 15        -0.15170
      10 -> 15         0.14329
      10 -> 17        -0.18640
      12 -> 15        -0.21871
      12 -> 16         0.46119
      12 -> 18        -0.29748
      13 -> 20         0.11242

 Excited State  12:      Singlet-A      9.9518 eV  124.58 nm  f=0.0925  <S**2>=0.000
      11 -> 16        -0.14736
      13 -> 20         0.57698
      13 -> 21         0.33311

 Excited State  13:      Singlet-A     10.1725 eV  121.88 nm  f=0.0143  <S**2>=0.000
      11 -> 15        -0.37326
      11 -> 16        -0.19538
      12 -> 15         0.44141
      12 -> 16         0.20351
      13 -> 16        -0.10477

 Excited State  14:      Singlet-A     10.2677 eV  120.75 nm  f=0.0299  <S**2>=0.000
      11 -> 15         0.45560
      11 -> 16         0.18632
      12 -> 15         0.40654

 Excited State  15:      Singlet-A     10.4705 eV  118.41 nm  f=0.0573  <S**2>=0.000
       7 -> 15         0.10121
      10 -> 15         0.26136
      10 -> 17        -0.14799
      11 -> 15        -0.24321
      11 -> 16         0.40846
      12 -> 16        -0.26681
      12 -> 18        -0.12939
      13 -> 15         0.11523
      13 -> 20         0.10936

 The electronic state is 1-A.
 Alpha  occ. eigenvalues --   -1.94165  -1.17982  -0.93188  -0.81312  -0.78400
 Alpha  occ. eigenvalues --   -0.70059  -0.65845  -0.55236  -0.53829  -0.46305
 Alpha  occ. eigenvalues --   -0.44644  -0.42304  -0.29424
 Alpha virt. eigenvalues --    0.10662   0.17849   0.18378   0.26519   0.27360
 Alpha virt. eigenvalues --    0.29599   0.30679   0.31632   0.33370   0.41521
 Alpha virt. eigenvalues --    0.45950

 Mulliken charges:
               1
     1  C   -0.130381
     2  C   -1.900875
     3  O    3.208250
     4  C   -1.898587
     5  C   -0.141112
     6  H    0.157825
     7  H    0.269992
     8  H    0.281093
     9  H    0.153796
 Sum of Mulliken charges =   0.00000

 Dipole moment (field-independent basis, Debye):
    X=             -1.6326    Y=            -10.2802    Z=              0.1390  Tot=             10.4100
 N-N= 1.041110026445D+02 E-N=-1.692256937306D+02  KE=-1.533656486248D+01
 Orbital energies and kinetic energies (alpha):
                                 1                 2
   1         O                -1.941647         -1.373938
   2         O                -1.179820         -1.045067
   3         O                -0.931882         -0.879647
   4         O                -0.813120         -0.573347
   5         O                -0.783998         -0.689215
   6         O                -0.700587         -0.592685
   7         O                -0.658455         -0.520850

 Normal termination of Gaussian 09 at Tue Dec 15 17:08:42 2015.
