 Gaussian 09, Revision D.01,
 Gaussian 09:  ES64L-G09RevD.01 24-Apr-2013

 ------------------------------------------------------------
 #P AM1(Input,print) CIS(Singlets,NStates=15) pop(full) force
 ------------------------------------------------------------

 -----------------
 AM1-Reparam Input
 -----------------
 Symbolic Z-matrix:
 Charge =  0 Multiplicity = 1

                         Standard orientation:
 ---------------------------------------------------------------------
 Center     Atomic      Atomic             Coordinates (Angstroms)
 Number     Number       Type             X           Y           Z
 ---------------------------------------------------------------------
      1          6           0       -0.641123    1.005779   -0.031384
      2          6           0       -1.129898   -0.283423    0.038843
      3          8           0       -0.049575   -1.188788   -0.025569
      4          6           0        1.067270   -0.347998    0.002481
      5          6           0        0.740796    0.891495    0.010900
      6          1           0        1.483228    1.728144    0.013694
      7          1           0        2.054875   -0.910209    0.044960
      8          1           0       -2.029750   -0.737221    0.024056
      9          1           0       -1.334025    1.834473   -0.003191
 ---------------------------------------------------------------------

 SCF Done:  E(RAM1) =   2.10290719865     A.U. after   13 cycles

 Excitation energies and oscillator strengths:

 Excited State   1:      Singlet-A      5.4427 eV  227.80 nm  f=0.3143  <S**2>=0.000
      13 -> 14         0.69155
 This state for optimization and/or second-order correction.
 Total Energy, E(CIS) =   2.30292402082
 Copying the excited state density for this state as the 1-particle RhoCI density.

 Excited State   2:      Singlet-A      6.5796 eV  188.44 nm  f=0.0031  <S**2>=0.000
      10 -> 15         0.11948
      13 -> 15         0.66106
      13 -> 17         0.14582
      13 -> 18        -0.13305

 Excited State   3:      Singlet-A      6.9312 eV  178.88 nm  f=0.0065  <S**2>=0.000
      13 -> 16         0.64483
      13 -> 17         0.14075
      13 -> 18         0.19084

 Excited State   4:      Singlet-A      7.0347 eV  176.25 nm  f=0.0024  <S**2>=0.000
      12 -> 14         0.69226

 Excited State   5:      Singlet-A      7.6091 eV  162.94 nm  f=0.0068  <S**2>=0.000
      11 -> 14         0.69394

 Excited State   6:      Singlet-A      8.1302 eV  152.50 nm  f=0.0044  <S**2>=0.000
      13 -> 15         0.11058
      13 -> 16        -0.10017
      13 -> 17        -0.11139
      13 -> 18         0.38528
      13 -> 19        -0.35030
      13 -> 20         0.17880
      13 -> 21         0.37813

 Excited State   7:      Singlet-A      8.4563 eV  146.62 nm  f=0.0166  <S**2>=0.000
      10 -> 16         0.11633
      13 -> 15        -0.12947
      13 -> 17         0.61390
      13 -> 18        -0.12342
      13 -> 19        -0.21179
      13 -> 21         0.10393

 Excited State   8:      Singlet-A      8.8905 eV  139.46 nm  f=0.0688  <S**2>=0.000
      10 -> 14         0.66577
      12 -> 15         0.11755
      13 -> 22         0.10525

 Excited State   9:      Singlet-A      8.9988 eV  137.78 nm  f=0.0022  <S**2>=0.000
      10 -> 16         0.14357
      13 -> 16        -0.15923
      13 -> 17         0.21005
      13 -> 18         0.45177
      13 -> 19         0.42119
      13 -> 20        -0.10201

 Excited State  10:      Singlet-A      9.5013 eV  130.49 nm  f=0.0563  <S**2>=0.000
       8 -> 16         0.11548
       9 -> 15         0.14829
      10 -> 14         0.13915
      11 -> 15        -0.23920
      11 -> 16        -0.17667
      11 -> 17        -0.24606
      12 -> 15        -0.21469
      12 -> 16         0.27958
      12 -> 17         0.11265
      12 -> 18         0.19855
      12 -> 19        -0.21359

 Excited State  11:      Singlet-A      9.5704 eV  129.55 nm  f=0.0063  <S**2>=0.000
      13 -> 18        -0.24884
      13 -> 19         0.37564
      13 -> 20         0.17008
      13 -> 21         0.50589

 Excited State  12:      Singlet-A      9.6832 eV  128.04 nm  f=0.1921  <S**2>=0.000
      11 -> 15        -0.18135
      11 -> 17        -0.10254
      12 -> 15         0.60797
      12 -> 17         0.15149

 Excited State  13:      Singlet-A      9.9505 eV  124.60 nm  f=0.0726  <S**2>=0.000
      13 -> 20         0.62863
      13 -> 21        -0.25877

 Excited State  14:      Singlet-A     10.1612 eV  122.02 nm  f=0.1085  <S**2>=0.000
       8 -> 16        -0.10470
       9 -> 15         0.13764
      11 -> 15        -0.12746
      11 -> 16         0.52412
      11 -> 17         0.10519
      11 -> 18         0.19315
      11 -> 19         0.16658
      12 -> 16         0.20290
      12 -> 17         0.18715

 Excited State  15:      Singlet-A     10.2866 eV  120.53 nm  f=0.0024  <S**2>=0.000
       7 -> 15        -0.12065
      10 -> 15         0.57262
      10 -> 16         0.24804
      10 -> 17         0.11729
      11 -> 15         0.10025
      13 -> 15        -0.13000

 The electronic state is 1-A.
 Alpha  occ. eigenvalues --   -1.92735  -1.21304  -0.95197  -0.81098  -0.79213
 Alpha  occ. eigenvalues --   -0.68153  -0.64255  -0.53621  -0.53053  -0.43047
 Alpha  occ. eigenvalues --   -0.41585  -0.40054  -0.28200
 Alpha virt. eigenvalues --    0.13016   0.18584   0.21745   0.26684   0.28953
 Alpha virt. eigenvalues --    0.29868   0.32118   0.32207   0.33126   0.42729
 Alpha virt. eigenvalues --    0.45911

 Mulliken charges:
               1
     1  C   -0.228789
     2  C   -1.990175
     3  O    3.176667
     4  C   -1.967257
     5  C   -0.199953
     6  H    0.253583
     7  H    0.363124
     8  H    0.338043
     9  H    0.254758
 Sum of Mulliken charges =   0.00000

 Dipole moment (field-independent basis, Debye):
    X=              0.4098    Y=            -11.3252    Z=             -0.5344  Tot=             11.3452
 N-N= 1.042877133839D+02 E-N=-1.696537454853D+02  KE=-1.548558627235D+01
 Orbital energies and kinetic energies (alpha):
                                 1                 2
   1         O                -1.927353         -1.356342
   2         O                -1.213038         -1.086915
   3         O                -0.951969         -0.890528
   4         O                -0.810982         -0.592939
   5         O                -0.792127         -0.670589
   6         O                -0.681530         -0.571793
   7         O                -0.642550         -0.528067

 Normal termination of Gaussian 09 at Tue Dec 15 17:07:27 2015.
