 Gaussian 09, Revision D.01,
 Gaussian 09:  ES64L-G09RevD.01 24-Apr-2013

 ------------------------------------------------------------
 #P AM1(Input,print) CIS(Singlets,NStates=15) pop(full) force
 ------------------------------------------------------------

 -----------------
 AM1-Reparam Input
 -----------------
 Symbolic Z-matrix:
 Charge =  0 Multiplicity = 1

                         Standard orientation:
 ---------------------------------------------------------------------
 Center     Atomic      Atomic             Coordinates (Angstroms)
 Number     Number       Type             X           Y           Z
 ---------------------------------------------------------------------
      1          6           0       -0.948388    0.813173   -0.020257
      2          6           0       -0.985423   -0.618480   -0.014085
      3          8           0        0.261296   -1.072863    0.015507
      4          6           0        1.185691   -0.120481   -0.012115
      5          6           0        0.485941    1.046557    0.028516
      6          1           0        0.912059    2.022266   -0.028832
      7          1           0        2.133718   -0.338212   -0.046274
      8          1           0       -1.858493   -1.254421    0.018396
      9          1           0       -1.704583    1.428654    0.040298
 ---------------------------------------------------------------------

 SCF Done:  E(RAM1) =   2.03230273639     A.U. after   13 cycles

 Excitation energies and oscillator strengths:

 Excited State   1:      Singlet-A      5.3481 eV  231.83 nm  f=0.3612  <S**2>=0.000
      13 -> 14         0.69503
 This state for optimization and/or second-order correction.
 Total Energy, E(CIS) =   2.22884086690
 Copying the excited state density for this state as the 1-particle RhoCI density.

 Excited State   2:      Singlet-A      6.5371 eV  189.66 nm  f=0.0015  <S**2>=0.000
      12 -> 14         0.69737

 Excited State   3:      Singlet-A      6.7786 eV  182.90 nm  f=0.0189  <S**2>=0.000
      13 -> 15         0.66626
      13 -> 17        -0.20403

 Excited State   4:      Singlet-A      7.1975 eV  172.26 nm  f=0.0046  <S**2>=0.000
      13 -> 15         0.10952
      13 -> 16         0.61339
      13 -> 17         0.19774
      13 -> 18        -0.14351
      13 -> 19        -0.19474

 Excited State   5:      Singlet-A      7.8128 eV  158.69 nm  f=0.0009  <S**2>=0.000
      10 -> 14         0.29290
      13 -> 16         0.23540
      13 -> 17        -0.35753
      13 -> 18         0.44956

 Excited State   6:      Singlet-A      7.9143 eV  156.66 nm  f=0.0044  <S**2>=0.000
      10 -> 14         0.63604
      13 -> 16        -0.10862
      13 -> 17         0.16853
      13 -> 18        -0.21190

 Excited State   7:      Singlet-A      8.4998 eV  145.87 nm  f=0.1351  <S**2>=0.000
      11 -> 14         0.69680

 Excited State   8:      Singlet-A      9.3310 eV  132.87 nm  f=0.0123  <S**2>=0.000
      11 -> 15        -0.17925
      11 -> 16         0.14674
      12 -> 15        -0.10358
      13 -> 15         0.10714
      13 -> 17         0.44368
      13 -> 18         0.43309

 Excited State   9:      Singlet-A      9.4406 eV  131.33 nm  f=0.0337  <S**2>=0.000
       9 -> 16        -0.14794
      10 -> 15        -0.21691
      10 -> 16        -0.15049
      10 -> 18         0.13959
      12 -> 15         0.43573
      12 -> 17        -0.31494
      12 -> 18         0.18377

 Excited State  10:      Singlet-A      9.6091 eV  129.03 nm  f=0.0003  <S**2>=0.000
      11 -> 15         0.23171
      11 -> 16         0.14565
      13 -> 16         0.11071
      13 -> 19         0.55456
      13 -> 20         0.26524

 Excited State  11:      Singlet-A      9.8596 eV  125.75 nm  f=0.0971  <S**2>=0.000
      12 -> 15         0.29886
      12 -> 16         0.52094
      12 -> 17         0.17224
      12 -> 18        -0.20755
      12 -> 19        -0.17619

 Excited State  12:      Singlet-A     10.0094 eV  123.87 nm  f=0.0182  <S**2>=0.000
      11 -> 16        -0.10537
      13 -> 19        -0.24868
      13 -> 20         0.61466
      13 -> 21        -0.16953

 Excited State  13:      Singlet-A     10.1443 eV  122.22 nm  f=0.0235  <S**2>=0.000
       9 -> 14         0.21521
       9 -> 15         0.14534
      11 -> 15         0.31400
      12 -> 15         0.23643
      12 -> 16        -0.27025
      12 -> 17         0.16157
      12 -> 18        -0.28342
      13 -> 19        -0.13853

 Excited State  14:      Singlet-A     10.2177 eV  121.34 nm  f=0.0189  <S**2>=0.000
       9 -> 14         0.36312
       9 -> 15        -0.11540
      11 -> 15         0.36058
      12 -> 15        -0.17513
      12 -> 16         0.21174
      12 -> 17        -0.14351
      12 -> 18         0.23430

 Excited State  15:      Singlet-A     10.3424 eV  119.88 nm  f=0.0046  <S**2>=0.000
       9 -> 14         0.54581
      11 -> 15        -0.35036
      13 -> 19         0.14834

 The electronic state is 1-A.
 Alpha  occ. eigenvalues --   -1.95783  -1.19601  -0.98464  -0.83887  -0.79432
 Alpha  occ. eigenvalues --   -0.70352  -0.66399  -0.58700  -0.54417  -0.47628
 Alpha  occ. eigenvalues --   -0.45831  -0.43150  -0.32133
 Alpha virt. eigenvalues --    0.07894   0.17494   0.19572   0.24172   0.25693
 Alpha virt. eigenvalues --    0.26326   0.28675   0.30358   0.37721   0.45278
 Alpha virt. eigenvalues --    0.51941

 Mulliken charges:
               1
     1  C   -0.179834
     2  C   -2.081604
     3  O    3.209655
     4  C   -2.018713
     5  C   -0.218673
     6  H    0.270127
     7  H    0.370057
     8  H    0.395167
     9  H    0.253819
 Sum of Mulliken charges =   0.00000

 Dipole moment (field-independent basis, Debye):
    X=              1.8018    Y=             -8.3872    Z=              0.3861  Tot=              8.5873
 N-N= 1.048015812963D+02 E-N=-1.700664333155D+02  KE=-1.555658354666D+01
 Orbital energies and kinetic energies (alpha):
                                 1                 2
   1         O                -1.957832         -1.419052
   2         O                -1.196007         -1.047955
   3         O                -0.984639         -0.873425
   4         O                -0.838871         -0.612153
   5         O                -0.794320         -0.695612
   6         O                -0.703522         -0.575180
   7         O                -0.663990         -0.516428

 Normal termination of Gaussian 09 at Tue Dec 15 17:07:19 2015.
