 Gaussian 09, Revision D.01,
 Gaussian 09:  ES64L-G09RevD.01 24-Apr-2013

 ------------------------------------------------------------
 #P AM1(Input,print) CIS(Singlets,NStates=15) pop(full) force
 ------------------------------------------------------------

 -----------------
 AM1-Reparam Input
 -----------------
 Symbolic Z-matrix:
 Charge =  0 Multiplicity = 1

                         Standard orientation:
 ---------------------------------------------------------------------
 Center     Atomic      Atomic             Coordinates (Angstroms)
 Number     Number       Type             X           Y           Z
 ---------------------------------------------------------------------
      1          6           0        0.700864    0.934248    0.006277
      2          6           0        1.108697   -0.337469   -0.004001
      3          8           0       -0.050307   -1.160973    0.005780
      4          6           0       -1.054767   -0.310436   -0.002874
      5          6           0       -0.677206    0.937314   -0.016136
      6          1           0       -1.415149    1.774369    0.062262
      7          1           0       -2.004087   -0.779762   -0.004379
      8          1           0        2.035659   -0.859894    0.004256
      9          1           0        1.320507    1.811136   -0.007975
 ---------------------------------------------------------------------

 SCF Done:  E(RAM1) =   2.59872440584     A.U. after   14 cycles

 Excitation energies and oscillator strengths:

 Excited State   1:      Singlet-A      5.4716 eV  226.60 nm  f=0.3173  <S**2>=0.000
      11 -> 17        -0.10136
      13 -> 14         0.69217
 This state for optimization and/or second-order correction.
 Total Energy, E(CIS) =   2.79980037052
 Copying the excited state density for this state as the 1-particle RhoCI density.

 Excited State   2:      Singlet-A      5.9969 eV  206.75 nm  f=0.0019  <S**2>=0.000
      10 -> 15         0.11386
      13 -> 15         0.67385
      13 -> 17         0.13627

 Excited State   3:      Singlet-A      6.8242 eV  181.68 nm  f=0.0019  <S**2>=0.000
      10 -> 16        -0.12636
      13 -> 16         0.65751
      13 -> 17         0.14118
      13 -> 19         0.12745

 Excited State   4:      Singlet-A      7.0499 eV  175.87 nm  f=0.0004  <S**2>=0.000
       9 -> 14         0.10875
      12 -> 14         0.69496

 Excited State   5:      Singlet-A      7.7850 eV  159.26 nm  f=0.0081  <S**2>=0.000
      11 -> 14         0.65909
      13 -> 17         0.21268

 Excited State   6:      Singlet-A      8.0323 eV  154.36 nm  f=0.0024  <S**2>=0.000
      11 -> 14         0.19057
      13 -> 15         0.11079
      13 -> 17        -0.39490
      13 -> 18         0.46637
      13 -> 21         0.23076

 Excited State   7:      Singlet-A      8.0664 eV  153.70 nm  f=0.0031  <S**2>=0.000
      10 -> 16         0.10700
      11 -> 14        -0.14023
      13 -> 16        -0.12007
      13 -> 17         0.49119
      13 -> 18         0.39992
      13 -> 21         0.20374

 Excited State   8:      Singlet-A      8.9578 eV  138.41 nm  f=0.0568  <S**2>=0.000
      10 -> 14         0.63216
      11 -> 15        -0.13976
      12 -> 15        -0.15343

 Excited State   9:      Singlet-A      8.9821 eV  138.03 nm  f=0.0010  <S**2>=0.000
      10 -> 16         0.12252
      13 -> 16        -0.10937
      13 -> 18        -0.12713
      13 -> 19         0.65486

 Excited State  10:      Singlet-A      9.1275 eV  135.84 nm  f=0.0270  <S**2>=0.000
       8 -> 15         0.14362
      11 -> 16        -0.10049
      11 -> 17        -0.17216
      12 -> 15         0.56935
      12 -> 16        -0.14072
      12 -> 18        -0.19798

 Excited State  11:      Singlet-A      9.3580 eV  132.49 nm  f=0.0920  <S**2>=0.000
       9 -> 15        -0.21309
      10 -> 14         0.20950
      11 -> 15         0.47155
      11 -> 16         0.10852
      11 -> 17         0.25545
      12 -> 15         0.16979
      12 -> 17         0.11127
      12 -> 18         0.16662

 Excited State  12:      Singlet-A      9.6137 eV  128.97 nm  f=0.0100  <S**2>=0.000
      13 -> 18        -0.29782
      13 -> 19        -0.14180
      13 -> 20        -0.25845
      13 -> 21         0.54394

 Excited State  13:      Singlet-A      9.7808 eV  126.76 nm  f=0.0208  <S**2>=0.000
       7 -> 15        -0.14175
      10 -> 15         0.63344
      13 -> 15        -0.12434
      13 -> 20         0.18972

 Excited State  14:      Singlet-A      9.9869 eV  124.15 nm  f=0.1767  <S**2>=0.000
       9 -> 16        -0.10687
      11 -> 16        -0.26347
      11 -> 17        -0.10183
      11 -> 19        -0.10472
      12 -> 16         0.56471
      12 -> 17         0.10375
      12 -> 18        -0.13240
      12 -> 19         0.11022

 Excited State  15:      Singlet-A      9.9992 eV  123.99 nm  f=0.0837  <S**2>=0.000
      10 -> 15        -0.12760
      12 -> 16         0.11585
      13 -> 20         0.58911
      13 -> 21         0.28327

 The electronic state is 1-A.
 Alpha  occ. eigenvalues --   -1.75145  -1.18290  -0.96479  -0.80805  -0.76747
 Alpha  occ. eigenvalues --   -0.67558  -0.65646  -0.54273  -0.49978  -0.43585
 Alpha  occ. eigenvalues --   -0.42307  -0.40087  -0.28396
 Alpha virt. eigenvalues --    0.12993   0.16386   0.20212   0.25529   0.27831
 Alpha virt. eigenvalues --    0.30006   0.32165   0.33903   0.38921   0.48509
 Alpha virt. eigenvalues --    0.52305

 Mulliken charges:
               1
     1  C   -0.015383
     2  C   -1.897732
     3  O    3.220564
     4  C   -1.911918
     5  C   -0.127521
     6  H    0.122202
     7  H    0.257829
     8  H    0.240443
     9  H    0.111516
 Sum of Mulliken charges =   0.00000

 Dipole moment (field-independent basis, Debye):
    X=             -1.1297    Y=            -11.0442    Z=              0.1832  Tot=             11.1033
 N-N= 1.044846745754D+02 E-N=-1.698736575069D+02  KE=-1.511235205060D+01
 Orbital energies and kinetic energies (alpha):
                                 1                 2
   1         O                -1.751445         -1.252387
   2         O                -1.182905         -1.029038
   3         O                -0.964787         -0.884036
   4         O                -0.808051         -0.607163
   5         O                -0.767467         -0.687011
   6         O                -0.675580         -0.565248
   7         O                -0.656460         -0.533902

 Normal termination of Gaussian 09 at Tue Dec 15 17:06:25 2015.
