 Gaussian 09, Revision D.01,
 Gaussian 09:  ES64L-G09RevD.01 24-Apr-2013

 ------------------------------------------------------------
 #P AM1(Input,print) CIS(Singlets,NStates=15) pop(full) force
 ------------------------------------------------------------

 -----------------
 AM1-Reparam Input
 -----------------
 Symbolic Z-matrix:
 Charge =  0 Multiplicity = 1

                         Standard orientation:
 ---------------------------------------------------------------------
 Center     Atomic      Atomic             Coordinates (Angstroms)
 Number     Number       Type             X           Y           Z
 ---------------------------------------------------------------------
      1          6           0       -0.244090    1.138976    0.015891
      2          6           0       -1.154905    0.138667   -0.008544
      3          8           0       -0.490985   -1.047759    0.008506
      4          6           0        0.834666   -0.734532   -0.013608
      5          6           0        1.090518    0.567164   -0.001785
      6          1           0        1.981054    1.088215   -0.020108
      7          1           0        1.450457   -1.651998    0.033422
      8          1           0       -2.169599    0.093377   -0.031228
      9          1           0       -0.491172    2.190821   -0.001858
 ---------------------------------------------------------------------

 SCF Done:  E(RAM1) =   2.85968452196     A.U. after   14 cycles

 Excitation energies and oscillator strengths:

 Excited State   1:      Singlet-A      5.1798 eV  239.36 nm  f=0.3428  <S**2>=0.000
      13 -> 14         0.69621
 This state for optimization and/or second-order correction.
 Total Energy, E(CIS) =   3.05003908291
 Copying the excited state density for this state as the 1-particle RhoCI density.

 Excited State   2:      Singlet-A      6.1177 eV  202.67 nm  f=0.0006  <S**2>=0.000
      11 -> 15         0.12139
      13 -> 15         0.66469
      13 -> 17         0.13512
      13 -> 18        -0.13231

 Excited State   3:      Singlet-A      6.5631 eV  188.91 nm  f=0.0009  <S**2>=0.000
      12 -> 14         0.64540
      13 -> 16         0.23517

 Excited State   4:      Singlet-A      6.6346 eV  186.88 nm  f=0.0030  <S**2>=0.000
      12 -> 14        -0.26132
      13 -> 16         0.59575
      13 -> 17         0.15100
      13 -> 18         0.18847

 Excited State   5:      Singlet-A      7.4999 eV  165.31 nm  f=0.0091  <S**2>=0.000
      13 -> 15        -0.15253
      13 -> 17         0.44370
      13 -> 18        -0.37825
      13 -> 19        -0.13913
      13 -> 20        -0.15750
      13 -> 21         0.27094

 Excited State   6:      Singlet-A      7.9154 eV  156.64 nm  f=0.0083  <S**2>=0.000
      10 -> 14         0.63642
      13 -> 16         0.10127
      13 -> 17        -0.14667
      13 -> 18        -0.14792
      13 -> 20        -0.12694

 Excited State   7:      Singlet-A      8.0727 eV  153.58 nm  f=0.0072  <S**2>=0.000
      10 -> 14         0.26621
      11 -> 16         0.11586
      13 -> 16        -0.18249
      13 -> 17         0.47452
      13 -> 18         0.24182
      13 -> 19         0.17187
      13 -> 20         0.14649
      13 -> 21        -0.19240

 Excited State   8:      Singlet-A      8.4970 eV  145.91 nm  f=0.0010  <S**2>=0.000
      13 -> 16         0.12333
      13 -> 18        -0.36554
      13 -> 19         0.53702
      13 -> 20         0.14056
      13 -> 21        -0.14999

 Excited State   9:      Singlet-A      8.6197 eV  143.84 nm  f=0.0927  <S**2>=0.000
      11 -> 14         0.65393
      12 -> 15         0.17725

 Excited State  10:      Singlet-A      9.0484 eV  137.02 nm  f=0.0068  <S**2>=0.000
      13 -> 18         0.26320
      13 -> 19         0.38341
      13 -> 20        -0.32698
      13 -> 21         0.40012

 Excited State  11:      Singlet-A      9.1199 eV  135.95 nm  f=0.1118  <S**2>=0.000
       8 -> 15        -0.14600
      10 -> 17        -0.12236
      11 -> 14        -0.15882
      12 -> 15         0.52518
      12 -> 16        -0.19273
      12 -> 17         0.11710
      12 -> 18        -0.20484

 Excited State  12:      Singlet-A      9.3883 eV  132.06 nm  f=0.0818  <S**2>=0.000
      13 -> 20         0.54651
      13 -> 21         0.42666

 Excited State  13:      Singlet-A      9.6685 eV  128.24 nm  f=0.0819  <S**2>=0.000
       8 -> 15        -0.10016
      10 -> 15         0.16631
      10 -> 17         0.17272
      11 -> 14        -0.13356
      12 -> 15         0.30997
      12 -> 16         0.34747
      12 -> 17        -0.10017
      12 -> 18         0.26306
      12 -> 19         0.20250
      12 -> 21        -0.15776

 Excited State  14:      Singlet-A      9.7200 eV  127.56 nm  f=0.1073  <S**2>=0.000
       9 -> 16        -0.14116
      10 -> 16        -0.24166
      10 -> 17        -0.14433
      10 -> 18        -0.11926
      12 -> 16         0.47111
      12 -> 17         0.31128
      12 -> 19        -0.16967

 Excited State  15:      Singlet-A      9.8839 eV  125.44 nm  f=0.0052  <S**2>=0.000
       7 -> 15        -0.13834
      11 -> 15         0.63739
      11 -> 16         0.10701
      13 -> 15        -0.14434

 The electronic state is 1-A.
 Alpha  occ. eigenvalues --   -1.72327  -1.12070  -0.93111  -0.79826  -0.75412
 Alpha  occ. eigenvalues --   -0.66663  -0.63799  -0.53474  -0.49732  -0.44063
 Alpha  occ. eigenvalues --   -0.43159  -0.39386  -0.27756
 Alpha virt. eigenvalues --    0.11596   0.17172   0.19999   0.25507   0.27449
 Alpha virt. eigenvalues --    0.29105   0.30267   0.31019   0.36925   0.46128
 Alpha virt. eigenvalues --    0.49763

 Mulliken charges:
               1
     1  C   -0.160028
     2  C   -1.937905
     3  O    3.203997
     4  C   -1.917520
     5  C   -0.121172
     6  H    0.175307
     7  H    0.284708
     8  H    0.294511
     9  H    0.178102
 Sum of Mulliken charges =   0.00000

 Dipole moment (field-independent basis, Debye):
    X=             -4.1873    Y=             -9.8717    Z=              0.2732  Tot=             10.7266
 N-N= 1.042394706136D+02 E-N=-1.695356301113D+02  KE=-1.480841125295D+01
 Orbital energies and kinetic energies (alpha):
                                 1                 2
   1         O                -1.723268         -1.216770
   2         O                -1.120695         -0.991260
   3         O                -0.931112         -0.849564
   4         O                -0.798264         -0.607266
   5         O                -0.754119         -0.679655
   6         O                -0.666630         -0.569148
   7         O                -0.637987         -0.523000

 Normal termination of Gaussian 09 at Tue Dec 15 17:06:00 2015.
