 Gaussian 09, Revision D.01,
 Gaussian 09:  ES64L-G09RevD.01 24-Apr-2013

 ------------------------------------------------------------
 #P AM1(Input,print) CIS(Singlets,NStates=15) pop(full) force
 ------------------------------------------------------------

 -----------------
 AM1-Reparam Input
 -----------------
 Symbolic Z-matrix:
 Charge =  0 Multiplicity = 1

                         Standard orientation:
 ---------------------------------------------------------------------
 Center     Atomic      Atomic             Coordinates (Angstroms)
 Number     Number       Type             X           Y           Z
 ---------------------------------------------------------------------
      1          6           0       -1.020417    0.619512   -0.026118
      2          6           0       -0.891285   -0.654347    0.012216
      3          8           0        0.411707   -1.029125   -0.003098
      4          6           0        1.176884    0.035336   -0.000925
      5          6           0        0.295869    1.087925    0.013852
      6          1           0        0.646310    2.146935   -0.021383
      7          1           0        2.242712   -0.100238    0.002443
      8          1           0       -1.675040   -1.535533   -0.006018
      9          1           0       -1.873945    1.191277    0.055588
 ---------------------------------------------------------------------

 SCF Done:  E(RAM1) =   2.86935805692     A.U. after   14 cycles

 Excitation energies and oscillator strengths:

 Excited State   1:      Singlet-A      5.3034 eV  233.78 nm  f=0.3180  <S**2>=0.000
      13 -> 14         0.69326
 This state for optimization and/or second-order correction.
 Total Energy, E(CIS) =   3.06425447512
 Copying the excited state density for this state as the 1-particle RhoCI density.

 Excited State   2:      Singlet-A      6.1407 eV  201.91 nm  f=0.0016  <S**2>=0.000
      10 -> 15         0.12018
      13 -> 15         0.66963
      13 -> 17         0.12016
      13 -> 18         0.10061

 Excited State   3:      Singlet-A      6.5706 eV  188.70 nm  f=0.0045  <S**2>=0.000
      12 -> 14         0.33161
      13 -> 16         0.54990
      13 -> 17         0.21048
      13 -> 18        -0.14613

 Excited State   4:      Singlet-A      6.6437 eV  186.62 nm  f=0.0008  <S**2>=0.000
       9 -> 14         0.11314
      12 -> 14         0.60728
      13 -> 16        -0.30604
      13 -> 17        -0.11859

 Excited State   5:      Singlet-A      7.5540 eV  164.13 nm  f=0.0128  <S**2>=0.000
      11 -> 14        -0.13708
      13 -> 15        -0.12340
      13 -> 17         0.45123
      13 -> 18         0.37683
      13 -> 19        -0.11567
      13 -> 20        -0.17072
      13 -> 21         0.24396

 Excited State   6:      Singlet-A      7.7754 eV  159.46 nm  f=0.0035  <S**2>=0.000
      10 -> 14        -0.18757
      11 -> 14         0.64750
      13 -> 18         0.11513
      13 -> 20        -0.11969

 Excited State   7:      Singlet-A      8.0340 eV  154.32 nm  f=0.0064  <S**2>=0.000
      10 -> 16         0.13231
      11 -> 14         0.12587
      13 -> 16        -0.22933
      13 -> 17         0.46038
      13 -> 18        -0.28435
      13 -> 19         0.17142
      13 -> 20         0.19668
      13 -> 21        -0.20911

 Excited State   8:      Singlet-A      8.5110 eV  145.68 nm  f=0.0019  <S**2>=0.000
      13 -> 16         0.11548
      13 -> 18         0.31223
      13 -> 19         0.59438

 Excited State   9:      Singlet-A      8.6711 eV  142.99 nm  f=0.0725  <S**2>=0.000
       8 -> 15         0.11527
      10 -> 14         0.52716
      11 -> 14         0.14374
      12 -> 15         0.37311

 Excited State  10:      Singlet-A      9.0500 eV  137.00 nm  f=0.1263  <S**2>=0.000
       8 -> 15         0.10371
      10 -> 14        -0.35723
      11 -> 14        -0.11675
      11 -> 15         0.10462
      12 -> 15         0.45472
      12 -> 16        -0.25308
      12 -> 18         0.14230
      13 -> 20        -0.10766

 Excited State  11:      Singlet-A      9.0738 eV  136.64 nm  f=0.0282  <S**2>=0.000
      13 -> 18         0.33424
      13 -> 19        -0.27217
      13 -> 20         0.45207
      13 -> 21        -0.28087

 Excited State  12:      Singlet-A      9.2790 eV  133.62 nm  f=0.0846  <S**2>=0.000
       9 -> 16        -0.13784
      10 -> 14        -0.14271
      11 -> 16        -0.17540
      11 -> 17        -0.10253
      12 -> 15         0.12769
      12 -> 16         0.52418
      12 -> 17         0.28915

 Excited State  13:      Singlet-A      9.4037 eV  131.85 nm  f=0.0738  <S**2>=0.000
       9 -> 15        -0.12323
       9 -> 18        -0.12147
      11 -> 15         0.28704
      11 -> 16         0.11261
      11 -> 17         0.23785
      12 -> 15         0.18138
      12 -> 16         0.18903
      12 -> 17        -0.15443
      12 -> 18        -0.27450
      12 -> 19         0.18998
      12 -> 21        -0.14431
      13 -> 21         0.14873

 Excited State  14:      Singlet-A      9.5372 eV  130.00 nm  f=0.0670  <S**2>=0.000
       9 -> 14        -0.13531
      13 -> 20         0.42103
      13 -> 21         0.48775

 Excited State  15:      Singlet-A      9.8142 eV  126.33 nm  f=0.0041  <S**2>=0.000
       9 -> 14         0.66245
      12 -> 14        -0.11792
      13 -> 21         0.13645

 The electronic state is 1-A.
 Alpha  occ. eigenvalues --   -1.74542  -1.13945  -0.93183  -0.80287  -0.74744
 Alpha  occ. eigenvalues --   -0.65996  -0.65511  -0.54961  -0.49115  -0.43898
 Alpha  occ. eigenvalues --   -0.43471  -0.39409  -0.28877
 Alpha virt. eigenvalues --    0.11627   0.16153   0.18522   0.23936   0.26916
 Alpha virt. eigenvalues --    0.28065   0.29309   0.31034   0.39213   0.47713
 Alpha virt. eigenvalues --    0.52515

 Mulliken charges:
               1
     1  C   -0.084629
     2  C   -1.943079
     3  O    3.221542
     4  C   -1.971552
     5  C   -0.214710
     6  H    0.191311
     7  H    0.311054
     8  H    0.311174
     9  H    0.178889
 Sum of Mulliken charges =   0.00000

 Dipole moment (field-independent basis, Debye):
    X=              3.0126    Y=             -9.4651    Z=             -0.1315  Tot=              9.9338
 N-N= 1.048692390713D+02 E-N=-1.706047621257D+02  KE=-1.483621585311D+01
 Orbital energies and kinetic energies (alpha):
                                 1                 2
   1         O                -1.745419         -1.259225
   2         O                -1.139455         -0.995104
   3         O                -0.931833         -0.845431
   4         O                -0.802874         -0.597917
   5         O                -0.747437         -0.672481
   6         O                -0.659956         -0.567990
   7         O                -0.655112         -0.536236

 Normal termination of Gaussian 09 at Tue Dec 15 17:05:56 2015.
