 Gaussian 09, Revision D.01,
 Gaussian 09:  ES64L-G09RevD.01 24-Apr-2013

 ------------------------------------------------------------
 #P AM1(Input,print) CIS(Singlets,NStates=15) pop(full) force
 ------------------------------------------------------------

 -----------------
 AM1-Reparam Input
 -----------------
 Symbolic Z-matrix:
 Charge =  0 Multiplicity = 1

                         Standard orientation:
 ---------------------------------------------------------------------
 Center     Atomic      Atomic             Coordinates (Angstroms)
 Number     Number       Type             X           Y           Z
 ---------------------------------------------------------------------
      1          6           0       -0.665865    0.957278    0.014724
      2          6           0       -1.132175   -0.269605   -0.006172
      3          8           0       -0.098945   -1.117611    0.002424
      4          6           0        1.108963   -0.423892   -0.004289
      5          6           0        0.776661    0.915995   -0.001533
      6          1           0        1.541009    1.678498   -0.014108
      7          1           0        2.043037   -1.016907    0.012523
      8          1           0       -2.092149   -0.719377   -0.010107
      9          1           0       -1.225847    1.920021   -0.024073
 ---------------------------------------------------------------------

 SCF Done:  E(RAM1) =   1.69791018926     A.U. after   14 cycles

 Excitation energies and oscillator strengths:

 Excited State   1:      Singlet-A      5.2582 eV  235.79 nm  f=0.3417  <S**2>=0.000
      13 -> 14         0.69426
 This state for optimization and/or second-order correction.
 Total Energy, E(CIS) =   1.89114636205
 Copying the excited state density for this state as the 1-particle RhoCI density.

 Excited State   2:      Singlet-A      6.2332 eV  198.91 nm  f=0.0042  <S**2>=0.000
      11 -> 15         0.10029
      13 -> 15         0.65080
      13 -> 17         0.19841

 Excited State   3:      Singlet-A      6.5206 eV  190.14 nm  f=0.0017  <S**2>=0.000
      13 -> 16         0.59321
      13 -> 17         0.22331
      13 -> 19         0.14253
      13 -> 20        -0.17673
      13 -> 21        -0.14115

 Excited State   4:      Singlet-A      6.9969 eV  177.20 nm  f=0.0006  <S**2>=0.000
      12 -> 14         0.65142
      13 -> 16        -0.10471
      13 -> 18         0.11202
      13 -> 19         0.17661

 Excited State   5:      Singlet-A      7.2692 eV  170.56 nm  f=0.0004  <S**2>=0.000
      12 -> 14        -0.24258
      13 -> 16        -0.21826
      13 -> 17         0.19457
      13 -> 18         0.16508
      13 -> 19         0.50584
      13 -> 21        -0.23619

 Excited State   6:      Singlet-A      7.5978 eV  163.18 nm  f=0.0192  <S**2>=0.000
      10 -> 14        -0.10722
      13 -> 15        -0.17790
      13 -> 16        -0.14742
      13 -> 17         0.59274
      13 -> 19        -0.17930
      13 -> 21         0.14269

 Excited State   7:      Singlet-A      8.0155 eV  154.68 nm  f=0.0008  <S**2>=0.000
      10 -> 14         0.68057
      13 -> 17         0.10852

 Excited State   8:      Singlet-A      8.2860 eV  149.63 nm  f=0.0022  <S**2>=0.000
      13 -> 16         0.15049
      13 -> 18         0.47262
      13 -> 20         0.47045

 Excited State   9:      Singlet-A      8.4139 eV  147.36 nm  f=0.0089  <S**2>=0.000
      13 -> 18         0.47292
      13 -> 19        -0.23194
      13 -> 20        -0.45649

 Excited State  10:      Singlet-A      8.6812 eV  142.82 nm  f=0.0874  <S**2>=0.000
      11 -> 14         0.66877
      12 -> 15         0.12028

 Excited State  11:      Singlet-A      8.9406 eV  138.68 nm  f=0.0812  <S**2>=0.000
      13 -> 19         0.30363
      13 -> 20        -0.10245
      13 -> 21         0.61470

 Excited State  12:      Singlet-A      9.3833 eV  132.13 nm  f=0.0456  <S**2>=0.000
       8 -> 15         0.11919
       9 -> 20         0.11442
      10 -> 15         0.12529
      10 -> 17         0.26871
      12 -> 15        -0.26141
      12 -> 16         0.28765
      12 -> 17         0.13363
      12 -> 19         0.32674
      12 -> 21        -0.20068

 Excited State  13:      Singlet-A      9.7109 eV  127.68 nm  f=0.1046  <S**2>=0.000
      10 -> 15         0.18051
      10 -> 17         0.13828
      11 -> 14        -0.11234
      12 -> 15         0.56478
      12 -> 17         0.15664
      12 -> 21        -0.14333

 Excited State  14:      Singlet-A      9.8665 eV  125.66 nm  f=0.0026  <S**2>=0.000
       7 -> 15        -0.11051
      11 -> 15         0.58123
      11 -> 16         0.24820
      11 -> 17         0.16164
      13 -> 15        -0.10184
      13 -> 16         0.11517

 Excited State  15:      Singlet-A     10.0800 eV  123.00 nm  f=0.4092  <S**2>=0.000
       8 -> 16         0.15481
      10 -> 15        -0.11879
      10 -> 16        -0.11891
      10 -> 17        -0.15244
      10 -> 18         0.11226
      10 -> 20        -0.11756
      12 -> 16         0.41724
      12 -> 17        -0.16153
      12 -> 18         0.25655
      12 -> 19        -0.12725
      12 -> 20        -0.19737
      12 -> 21        -0.12055

 The electronic state is 1-A.
 Alpha  occ. eigenvalues --   -1.91849  -1.21646  -1.00659  -0.82434  -0.80102
 Alpha  occ. eigenvalues --   -0.68574  -0.63832  -0.55729  -0.52238  -0.43803
 Alpha  occ. eigenvalues --   -0.43000  -0.40861  -0.27927
 Alpha virt. eigenvalues --    0.11897   0.17535   0.19138   0.24021   0.26570
 Alpha virt. eigenvalues --    0.27637   0.28007   0.28754   0.36328   0.44716
 Alpha virt. eigenvalues --    0.50455

 Mulliken charges:
               1
     1  C   -0.166357
     2  C   -1.924839
     3  O    3.196995
     4  C   -1.955285
     5  C   -0.129569
     6  H    0.185924
     7  H    0.302388
     8  H    0.305753
     9  H    0.184989
 Sum of Mulliken charges =   0.00000

 Dipole moment (field-independent basis, Debye):
    X=             -1.1515    Y=             -9.9590    Z=              0.0827  Tot=             10.0257
 N-N= 1.039111055347D+02 E-N=-1.692518151166D+02  KE=-1.572149446094D+01
 Orbital energies and kinetic energies (alpha):
                                 1                 2
   1         O                -1.918486         -1.385083
   2         O                -1.216459         -1.082267
   3         O                -1.006587         -0.915326
   4         O                -0.824341         -0.639598
   5         O                -0.801016         -0.702540
   6         O                -0.685741         -0.575998
   7         O                -0.638317         -0.511716

 Normal termination of Gaussian 09 at Tue Dec 15 17:06:58 2015.
