 Gaussian 09, Revision D.01,
 Gaussian 09:  ES64L-G09RevD.01 24-Apr-2013

 ------------------------------------------------------------
 #P AM1(Input,print) CIS(Singlets,NStates=15) pop(full) force
 ------------------------------------------------------------

 -----------------
 AM1-Reparam Input
 -----------------
 Symbolic Z-matrix:
 Charge =  0 Multiplicity = 1

                         Standard orientation:
 ---------------------------------------------------------------------
 Center     Atomic      Atomic             Coordinates (Angstroms)
 Number     Number       Type             X           Y           Z
 ---------------------------------------------------------------------
      1          6           0        0.269649    1.157506   -0.027083
      2          6           0        1.157473    0.128801    0.036511
      3          8           0        0.480125   -1.103581   -0.017696
      4          6           0       -0.879646   -0.711124    0.014942
      5          6           0       -1.066506    0.611417   -0.011165
      6          1           0       -1.941303    1.097651    0.039832
      7          1           0       -1.572960   -1.579756    0.011849
      8          1           0        2.206221    0.002054   -0.027439
      9          1           0        0.581217    2.189097    0.038100
 ---------------------------------------------------------------------

 SCF Done:  E(RAM1) =   1.43909434383     A.U. after   13 cycles

 Excitation energies and oscillator strengths:

 Excited State   1:      Singlet-A      5.8302 eV  212.66 nm  f=0.2946  <S**2>=0.000
      13 -> 14         0.69107
 This state for optimization and/or second-order correction.
 Total Energy, E(CIS) =   1.65335177131
 Copying the excited state density for this state as the 1-particle RhoCI density.

 Excited State   2:      Singlet-A      6.0062 eV  206.43 nm  f=0.0014  <S**2>=0.000
      12 -> 15         0.12058
      13 -> 15         0.67205
      13 -> 18         0.11684

 Excited State   3:      Singlet-A      6.3400 eV  195.56 nm  f=0.0004  <S**2>=0.000
      12 -> 16        -0.11832
      13 -> 16         0.66210

 Excited State   4:      Singlet-A      7.4575 eV  166.26 nm  f=0.0012  <S**2>=0.000
      11 -> 14         0.68497

 Excited State   5:      Singlet-A      7.5661 eV  163.87 nm  f=0.0114  <S**2>=0.000
      13 -> 15        -0.11649
      13 -> 18         0.66350
      13 -> 22         0.12669

 Excited State   6:      Singlet-A      7.8325 eV  158.29 nm  f=0.0210  <S**2>=0.000
      12 -> 14         0.33972
      13 -> 17         0.60317

 Excited State   7:      Singlet-A      7.9965 eV  155.05 nm  f=0.0006  <S**2>=0.000
      12 -> 15        -0.12838
      13 -> 16         0.10459
      13 -> 18        -0.11132
      13 -> 19         0.36067
      13 -> 20         0.25025
      13 -> 22         0.48592

 Excited State   8:      Singlet-A      8.4559 eV  146.62 nm  f=0.0031  <S**2>=0.000
      10 -> 14         0.68244

 Excited State   9:      Singlet-A      8.5968 eV  144.22 nm  f=0.0043  <S**2>=0.000
      12 -> 15        -0.15182
      13 -> 19        -0.35722
      13 -> 20         0.51212
      13 -> 21        -0.26299

 Excited State  10:      Singlet-A      8.7418 eV  141.83 nm  f=0.0057  <S**2>=0.000
      13 -> 19         0.44293
      13 -> 20         0.13061
      13 -> 21        -0.34000
      13 -> 22        -0.35896

 Excited State  11:      Singlet-A      8.9286 eV  138.86 nm  f=0.2340  <S**2>=0.000
      10 -> 14        -0.11316
      12 -> 14         0.57147
      13 -> 17        -0.32346
      13 -> 19         0.10764

 Excited State  12:      Singlet-A      9.0086 eV  137.63 nm  f=0.0358  <S**2>=0.000
      12 -> 15        -0.12658
      12 -> 16         0.31368
      13 -> 19         0.13307
      13 -> 20         0.25539
      13 -> 21         0.42396
      13 -> 22        -0.23120
      13 -> 23         0.20084

 Excited State  13:      Singlet-A      9.1051 eV  136.17 nm  f=0.0008  <S**2>=0.000
      12 -> 15         0.59278
      12 -> 16         0.17805
      12 -> 18         0.11234
      13 -> 15        -0.11146
      13 -> 16         0.13284
      13 -> 20         0.16108
      13 -> 22         0.12994

 Excited State  14:      Singlet-A      9.4425 eV  131.30 nm  f=0.0082  <S**2>=0.000
      12 -> 15        -0.13987
      12 -> 16         0.54142
      13 -> 15         0.11663
      13 -> 16         0.11317
      13 -> 20        -0.16746
      13 -> 21        -0.29540
      13 -> 22         0.12717

 Excited State  15:      Singlet-A      9.4907 eV  130.64 nm  f=0.1660  <S**2>=0.000
       8 -> 15         0.12461
       9 -> 15         0.26671
      11 -> 15         0.47037
      11 -> 16        -0.32344
      12 -> 17         0.13390

 The electronic state is 1-A.
 Alpha  occ. eigenvalues --   -1.86622  -1.18710  -0.94563  -0.78151  -0.77432
 Alpha  occ. eigenvalues --   -0.67224  -0.60110  -0.48423  -0.47612  -0.40136
 Alpha  occ. eigenvalues --   -0.36868  -0.36069  -0.23247
 Alpha virt. eigenvalues --    0.18361   0.21593   0.22895   0.27739   0.29970
 Alpha virt. eigenvalues --    0.32500   0.34548   0.34898   0.36462   0.39310
 Alpha virt. eigenvalues --    0.43179

 Mulliken charges:
               1
     1  C   -0.081193
     2  C   -1.494378
     3  O    2.735669
     4  C   -1.492405
     5  C   -0.047809
     6  H    0.060036
     7  H    0.130909
     8  H    0.131645
     9  H    0.057526
 Sum of Mulliken charges =   0.00000

 Dipole moment (field-independent basis, Debye):
    X=              3.9411    Y=             -9.7094    Z=             -0.5335  Tot=             10.4923
 N-N= 1.030237489994D+02 E-N=-1.690658364974D+02  KE=-1.580012590795D+01
 Orbital energies and kinetic energies (alpha):
                                 1                 2
   1         O                -1.866222         -1.338528
   2         O                -1.187095         -1.088356
   3         O                -0.945629         -0.891654
   4         O                -0.781505         -0.632619
   5         O                -0.774324         -0.692684
   6         O                -0.672243         -0.628054
   7         O                -0.601104         -0.538066

 Normal termination of Gaussian 09 at Tue Dec 15 17:08:00 2015.
