 Gaussian 09, Revision D.01,
 Gaussian 09:  ES64L-G09RevD.01 24-Apr-2013

 ------------------------------------------------------------
 #P AM1(Input,print) CIS(Singlets,NStates=15) pop(full) force
 ------------------------------------------------------------

 -----------------
 AM1-Reparam Input
 -----------------
 Symbolic Z-matrix:
 Charge =  0 Multiplicity = 1

                         Standard orientation:
 ---------------------------------------------------------------------
 Center     Atomic      Atomic             Coordinates (Angstroms)
 Number     Number       Type             X           Y           Z
 ---------------------------------------------------------------------
      1          6           0       -0.743755    0.928976   -0.008493
      2          6           0       -1.092569   -0.362042   -0.008402
      3          8           0       -0.006767   -1.137432    0.000742
      4          6           0        1.131052   -0.315910   -0.016647
      5          6           0        0.702879    0.929417    0.010949
      6          1           0        1.371381    1.803845    0.032348
      7          1           0        2.052946   -0.811230    0.032611
      8          1           0       -1.994924   -0.820840    0.078009
      9          1           0       -1.360904    1.845042   -0.013350
 ---------------------------------------------------------------------

 SCF Done:  E(RAM1) =   2.56283540787     A.U. after   13 cycles

 Excitation energies and oscillator strengths:

 Excited State   1:      Singlet-A      5.1923 eV  238.78 nm  f=0.3509  <S**2>=0.000
      13 -> 14         0.69645
 This state for optimization and/or second-order correction.
 Total Energy, E(CIS) =   2.75364983474
 Copying the excited state density for this state as the 1-particle RhoCI density.

 Excited State   2:      Singlet-A      6.2764 eV  197.54 nm  f=0.0030  <S**2>=0.000
      13 -> 15         0.66632
      13 -> 17        -0.14638
      13 -> 19         0.12669

 Excited State   3:      Singlet-A      6.6039 eV  187.74 nm  f=0.0016  <S**2>=0.000
      10 -> 16        -0.10155
      13 -> 16         0.65065
      13 -> 17        -0.13169
      13 -> 18        -0.13219
      13 -> 19        -0.11734

 Excited State   4:      Singlet-A      6.6990 eV  185.08 nm  f=0.0003  <S**2>=0.000
       9 -> 14         0.10858
      12 -> 14         0.69200

 Excited State   5:      Singlet-A      7.6437 eV  162.20 nm  f=0.0003  <S**2>=0.000
      13 -> 16         0.10761
      13 -> 17        -0.13149
      13 -> 18         0.59257
      13 -> 20         0.12872
      13 -> 21        -0.28330

 Excited State   6:      Singlet-A      7.7961 eV  159.03 nm  f=0.0058  <S**2>=0.000
      11 -> 14         0.67875
      13 -> 17         0.14370

 Excited State   7:      Singlet-A      8.1734 eV  151.69 nm  f=0.0038  <S**2>=0.000
      11 -> 14        -0.17205
      13 -> 15         0.11620
      13 -> 16         0.12348
      13 -> 17         0.63821
      13 -> 18         0.11576

 Excited State   8:      Singlet-A      8.7942 eV  140.98 nm  f=0.0003  <S**2>=0.000
      13 -> 16         0.10291
      13 -> 18        -0.12675
      13 -> 19         0.64789
      13 -> 20         0.11512

 Excited State   9:      Singlet-A      8.8879 eV  139.50 nm  f=0.0843  <S**2>=0.000
      10 -> 14         0.67091
      12 -> 16        -0.10325

 Excited State  10:      Singlet-A      9.3014 eV  133.30 nm  f=0.0116  <S**2>=0.000
      12 -> 15        -0.15027
      12 -> 18        -0.11327
      13 -> 18         0.27134
      13 -> 19         0.16695
      13 -> 20        -0.31357
      13 -> 21         0.47384

 Excited State  11:      Singlet-A      9.3139 eV  133.12 nm  f=0.0173  <S**2>=0.000
      11 -> 16         0.13747
      11 -> 17        -0.20034
      12 -> 15         0.39940
      12 -> 16        -0.20416
      12 -> 18         0.30432
      13 -> 20        -0.13834
      13 -> 21         0.17214

 Excited State  12:      Singlet-A      9.7425 eV  127.26 nm  f=0.0988  <S**2>=0.000
      13 -> 20         0.57100
      13 -> 21         0.37195

 Excited State  13:      Singlet-A      9.7726 eV  126.87 nm  f=0.1006  <S**2>=0.000
       9 -> 15        -0.10047
      10 -> 14         0.12289
      11 -> 15        -0.31137
      11 -> 17         0.19689
      12 -> 15         0.45728
      12 -> 16         0.11621
      12 -> 18        -0.24358

 Excited State  14:      Singlet-A      9.7932 eV  126.60 nm  f=0.1506  <S**2>=0.000
       9 -> 16        -0.10613
      11 -> 16         0.25883
      12 -> 16         0.58448
      12 -> 17        -0.14396

 Excited State  15:      Singlet-A      9.9934 eV  124.07 nm  f=0.0023  <S**2>=0.000
       9 -> 14         0.68189
      12 -> 14        -0.10552

 The electronic state is 1-A.
 Alpha  occ. eigenvalues --   -1.74801  -1.15792  -0.97529  -0.81156  -0.77437
 Alpha  occ. eigenvalues --   -0.67451  -0.65019  -0.56364  -0.50355  -0.44798
 Alpha  occ. eigenvalues --   -0.43960  -0.40314  -0.28366
 Alpha virt. eigenvalues --    0.11066   0.18022   0.19327   0.25430   0.26686
 Alpha virt. eigenvalues --    0.28944   0.31008   0.31714   0.38791   0.47746
 Alpha virt. eigenvalues --    0.52780

 Mulliken charges:
               1
     1  C   -0.125323
     2  C   -1.929952
     3  O    3.235586
     4  C   -1.895509
     5  C   -0.047861
     6  H    0.121597
     7  H    0.248307
     8  H    0.265066
     9  H    0.128089
 Sum of Mulliken charges =   0.00000

 Dipole moment (field-independent basis, Debye):
    X=             -0.1766    Y=            -10.4805    Z=              0.4368  Tot=             10.4911
 N-N= 1.040561404660D+02 E-N=-1.690517536376D+02  KE=-1.506797872258D+01
 Orbital energies and kinetic energies (alpha):
                                 1                 2
   1         O                -1.748013         -1.243745
   2         O                -1.157922         -0.999750
   3         O                -0.975295         -0.881315
   4         O                -0.811558         -0.615062
   5         O                -0.774366         -0.701626
   6         O                -0.674513         -0.557865
   7         O                -0.650193         -0.526044

 Normal termination of Gaussian 09 at Tue Dec 15 17:06:27 2015.
