 Gaussian 09, Revision D.01,
 Gaussian 09:  ES64L-G09RevD.01 24-Apr-2013

 ------------------------------------------------------------
 #P AM1(Input,print) CIS(Singlets,NStates=15) pop(full) force
 ------------------------------------------------------------

 -----------------
 AM1-Reparam Input
 -----------------
 Symbolic Z-matrix:
 Charge =  0 Multiplicity = 1

                         Standard orientation:
 ---------------------------------------------------------------------
 Center     Atomic      Atomic             Coordinates (Angstroms)
 Number     Number       Type             X           Y           Z
 ---------------------------------------------------------------------
      1          6           0        1.167013   -0.258812   -0.004737
      2          6           0        0.108758   -1.117973   -0.004070
      3          8           0       -1.113809   -0.441459    0.003735
      4          6           0       -0.706110    0.856629    0.002176
      5          6           0        0.623408    0.998950   -0.000937
      6          1           0        1.147896    1.909734    0.006692
      7          1           0       -1.591595    1.537298   -0.015170
      8          1           0       -0.026602   -2.201753    0.001494
      9          1           0        2.222362   -0.586368    0.022516
 ---------------------------------------------------------------------

 SCF Done:  E(RAM1) =   2.14335044557     A.U. after   13 cycles

 Excitation energies and oscillator strengths:

 Excited State   1:      Singlet-A      5.7881 eV  214.21 nm  f=0.3228  <S**2>=0.000
      11 -> 17        -0.10055
      13 -> 14         0.69203
 This state for optimization and/or second-order correction.
 Total Energy, E(CIS) =   2.35605886546
 Copying the excited state density for this state as the 1-particle RhoCI density.

 Excited State   2:      Singlet-A      6.2874 eV  197.20 nm  f=0.0004  <S**2>=0.000
      10 -> 15         0.13743
      13 -> 15         0.67746

 Excited State   3:      Singlet-A      6.6785 eV  185.65 nm  f=0.0003  <S**2>=0.000
      10 -> 16        -0.14251
      13 -> 16         0.66891
      13 -> 17        -0.11419

 Excited State   4:      Singlet-A      7.5883 eV  163.39 nm  f=0.0001  <S**2>=0.000
      12 -> 14         0.69873

 Excited State   5:      Singlet-A      8.0992 eV  153.08 nm  f=0.0106  <S**2>=0.000
      10 -> 14         0.16553
      11 -> 14         0.64245
      13 -> 17         0.21966

 Excited State   6:      Singlet-A      8.3977 eV  147.64 nm  f=0.0098  <S**2>=0.000
      11 -> 14        -0.22104
      13 -> 17         0.64120

 Excited State   7:      Singlet-A      8.5239 eV  145.45 nm  f=0.0001  <S**2>=0.000
      13 -> 18         0.57719
      13 -> 20         0.17505
      13 -> 22         0.33447

 Excited State   8:      Singlet-A      9.0642 eV  136.78 nm  f=0.0347  <S**2>=0.000
      10 -> 14         0.61945
      11 -> 14        -0.15836
      12 -> 15        -0.13971
      13 -> 19        -0.19378

 Excited State   9:      Singlet-A      9.2723 eV  133.71 nm  f=0.0009  <S**2>=0.000
      10 -> 15        -0.10307
      13 -> 18        -0.24715
      13 -> 20         0.62998

 Excited State  10:      Singlet-A      9.5343 eV  130.04 nm  f=0.0710  <S**2>=0.000
       9 -> 15        -0.19224
       9 -> 16        -0.13405
      11 -> 17        -0.15237
      12 -> 15         0.51462
      12 -> 16        -0.26640
      12 -> 18         0.16189

 Excited State  11:      Singlet-A      9.7677 eV  126.93 nm  f=0.0092  <S**2>=0.000
       7 -> 15        -0.11015
      10 -> 15         0.55741
      11 -> 15        -0.20347
      13 -> 15        -0.15888
      13 -> 18         0.12345
      13 -> 20         0.14329
      13 -> 21         0.15264
      13 -> 22        -0.15393

 Excited State  12:      Singlet-A      9.8714 eV  125.60 nm  f=0.0778  <S**2>=0.000
       8 -> 15         0.12829
      10 -> 15         0.12682
      11 -> 15         0.36979
      11 -> 16         0.11166
      11 -> 17        -0.23536
      12 -> 15        -0.32379
      12 -> 16        -0.21419
      12 -> 18         0.17729
      13 -> 22        -0.11597

 Excited State  13:      Singlet-A      9.9277 eV  124.89 nm  f=0.0027  <S**2>=0.000
      10 -> 15         0.25981
      13 -> 18        -0.27460
      13 -> 21        -0.11161
      13 -> 22         0.56154

 Excited State  14:      Singlet-A     10.0711 eV  123.11 nm  f=0.0692  <S**2>=0.000
      10 -> 16        -0.37059
      11 -> 16         0.17637
      13 -> 20        -0.12811
      13 -> 21         0.51835

 Excited State  15:      Singlet-A     10.1631 eV  121.99 nm  f=0.1190  <S**2>=0.000
      10 -> 14         0.18103
      11 -> 16        -0.23728
      13 -> 19         0.58139
      13 -> 21         0.10013

 The electronic state is 1-A.
 Alpha  occ. eigenvalues --   -1.93170  -1.21211  -0.91770  -0.80293  -0.78735
 Alpha  occ. eigenvalues --   -0.68514  -0.65785  -0.54219  -0.52199  -0.42981
 Alpha  occ. eigenvalues --   -0.42619  -0.41112  -0.28718
 Alpha virt. eigenvalues --    0.14018   0.16806   0.18818   0.26571   0.28766
 Alpha virt. eigenvalues --    0.31088   0.31155   0.32470   0.34839   0.40192
 Alpha virt. eigenvalues --    0.42924

 Mulliken charges:
               1
     1  C   -0.115272
     2  C   -1.862910
     3  O    3.187656
     4  C   -1.851273
     5  C   -0.149017
     6  H    0.150186
     7  H    0.246954
     8  H    0.244297
     9  H    0.149378
 Sum of Mulliken charges =   0.00000

 Dipole moment (field-independent basis, Debye):
    X=            -10.9617    Y=             -4.1767    Z=              0.0673  Tot=             11.7307
 N-N= 1.042324469404D+02 E-N=-1.696001984349D+02  KE=-1.535145301353D+01
 Orbital energies and kinetic energies (alpha):
                                 1                 2
   1         O                -1.931703         -1.349677
   2         O                -1.212111         -1.082579
   3         O                -0.917704         -0.882099
   4         O                -0.802932         -0.580660
   5         O                -0.787352         -0.658645
   6         O                -0.685140         -0.604656
   7         O                -0.657850         -0.537759

 Normal termination of Gaussian 09 at Tue Dec 15 17:09:13 2015.
