 Gaussian 09, Revision D.01,
 Gaussian 09:  ES64L-G09RevD.01 24-Apr-2013

 -------------------------------------------------------
 #P B3LYP/3-21G CIS(Singlets,NStates=15) pop(full) force
 -------------------------------------------------------

 --------
 FuranDFT
 --------
 Symbolic Z-matrix:
 Charge =  0 Multiplicity = 1

                         Standard orientation:
 ---------------------------------------------------------------------
 Center     Atomic      Atomic             Coordinates (Angstroms)
 Number     Number       Type             X           Y           Z
 ---------------------------------------------------------------------
      1          6           0        1.183146   -0.228693   -0.021820
      2          6           0        0.131479   -1.124025    0.023699
      3          8           0       -1.081956   -0.484701   -0.003147
      4          6           0       -0.778228    0.813362   -0.018620
      5          6           0        0.600632    1.066765    0.002432
      6          1           0        1.055902    1.943485    0.029827
      7          1           0       -1.586302    1.494695    0.066785
      8          1           0        0.102560   -2.200021   -0.025526
      9          1           0        2.261317   -0.525000    0.039941
 ---------------------------------------------------------------------

 SCF Done:  E(RB3LYP) =  -228.737113317     A.U. after   14 cycles

 Excitation energies and oscillator strengths:

 Excited State   1:      Singlet-A      6.9886 eV  177.41 nm  f=0.1813  <S**2>=0.000
      17 -> 19         0.21477
      18 -> 19         0.61124
      18 -> 20        -0.23200
 This state for optimization and/or second-order correction.
 Total Energy, E(CIS) =  -228.480287336
 Copying the excited state density for this state as the 1-particle RhoCI density.

 Excited State   2:      Singlet-A      7.0461 eV  175.96 nm  f=0.0468  <S**2>=0.000
      17 -> 19        -0.43987
      18 -> 19         0.30863
      18 -> 20         0.44615

 Excited State   3:      Singlet-A      8.4912 eV  146.01 nm  f=0.0020  <S**2>=0.000
      18 -> 21         0.69506

 Excited State   4:      Singlet-A      8.8621 eV  139.90 nm  f=0.0054  <S**2>=0.000
      16 -> 19         0.70048

 Excited State   5:      Singlet-A      9.2716 eV  133.72 nm  f=0.0374  <S**2>=0.000
      17 -> 19        -0.12824
      18 -> 20        -0.13287
      18 -> 22         0.66555

 Excited State   6:      Singlet-A      9.5221 eV  130.21 nm  f=0.4014  <S**2>=0.000
      17 -> 19         0.36458
      17 -> 20         0.37926
      18 -> 20         0.36454
      18 -> 22         0.17554

 Excited State   7:      Singlet-A      9.6226 eV  128.85 nm  f=0.2911  <S**2>=0.000
      17 -> 19        -0.25646
      17 -> 20         0.55303
      17 -> 21         0.11130
      18 -> 20        -0.24199

 Excited State   8:      Singlet-A      9.7855 eV  126.70 nm  f=0.0070  <S**2>=0.000
      15 -> 19         0.22030
      17 -> 21         0.21970
      18 -> 23         0.60092
      18 -> 25         0.11300

 Excited State   9:      Singlet-A      9.9115 eV  125.09 nm  f=0.0012  <S**2>=0.000
      14 -> 19        -0.15332
      15 -> 19         0.62469
      16 -> 20        -0.18755
      18 -> 23        -0.20222

 Excited State  10:      Singlet-A     10.0473 eV  123.40 nm  f=0.0114  <S**2>=0.000
      17 -> 21         0.64556
      18 -> 23        -0.22575

 Excited State  11:      Singlet-A     10.2170 eV  121.35 nm  f=0.0054  <S**2>=0.000
      14 -> 19         0.62702
      15 -> 19         0.17721
      16 -> 20         0.19905
      18 -> 23        -0.10481
      18 -> 24        -0.10059

 Excited State  12:      Singlet-A     10.4132 eV  119.06 nm  f=0.0016  <S**2>=0.000
      18 -> 24         0.66688
      18 -> 25        -0.10171

 Excited State  13:      Singlet-A     10.5821 eV  117.16 nm  f=0.0002  <S**2>=0.000
      14 -> 19        -0.24413
      15 -> 19         0.12825
      16 -> 20         0.62883

 Excited State  14:      Singlet-A     10.7811 eV  115.00 nm  f=0.0041  <S**2>=0.000
      17 -> 22         0.64955
      18 -> 25         0.22917

 Excited State  15:      Singlet-A     10.8667 eV  114.10 nm  f=0.0071  <S**2>=0.000
      17 -> 22        -0.23666
      18 -> 23        -0.12939
      18 -> 25         0.63887

 The electronic state is 1-A.
 Alpha  occ. eigenvalues --  -19.12497 -10.17687 -10.17511 -10.13242 -10.12057
 Alpha  occ. eigenvalues --   -1.14072  -0.80723  -0.74507  -0.60761  -0.57113
 Alpha  occ. eigenvalues --   -0.54831  -0.45729  -0.44810  -0.41741  -0.40464
 Alpha  occ. eigenvalues --   -0.36824  -0.28195  -0.22513
 Alpha virt. eigenvalues --    0.01555   0.07387   0.13352   0.15656   0.18228
 Alpha virt. eigenvalues --    0.19972   0.21882   0.23400   0.33221   0.41505
 Alpha virt. eigenvalues --    0.45848   0.69200   0.70133   0.70949   0.73852

 Mulliken charges:
               1
     1  C   -0.228775
     2  C    0.060972
     3  O   -0.477692
     4  C    0.105081
     5  C   -0.260990
     6  H    0.187289
     7  H    0.213970
     8  H    0.212565
     9  H    0.187580
 Sum of Mulliken charges =   0.00000

 Dipole moment (field-independent basis, Debye):
    X=              0.6601    Y=              0.2879    Z=              0.1067  Tot=              0.7280
 Quadrupole moment (field-independent basis, Debye-Ang):
   XX=            -27.2882   YY=            -24.6886   ZZ=            -31.8347
   XY=             -1.6181   XZ=              0.0126   YZ=              0.2786

 Normal termination of Gaussian 09 at Sat Nov 14 17:21:46 2015.
