 Gaussian 09, Revision D.01,
 Gaussian 09:  ES64L-G09RevD.01 24-Apr-2013

 -------------------------------------------------------
 #P B3LYP/3-21G CIS(Singlets,NStates=15) pop(full) force
 -------------------------------------------------------

 --------
 FuranDFT
 --------
 Symbolic Z-matrix:
 Charge =  0 Multiplicity = 1

                         Standard orientation:
 ---------------------------------------------------------------------
 Center     Atomic      Atomic             Coordinates (Angstroms)
 Number     Number       Type             X           Y           Z
 ---------------------------------------------------------------------
      1          6           0       -0.197900    1.156390    0.043568
      2          6           0       -1.108520    0.162563   -0.029677
      3          8           0       -0.565897   -1.014703   -0.009038
      4          6           0        0.806026   -0.773399    0.040957
      5          6           0        1.094403    0.493035   -0.035791
      6          1           0        2.056486    1.014981   -0.046533
      7          1           0        1.469283   -1.654014   -0.007324
      8          1           0       -2.224715    0.233390    0.020765
      9          1           0       -0.337938    2.291729   -0.008945
 ---------------------------------------------------------------------

 SCF Done:  E(RB3LYP) =  -228.730866040     A.U. after   15 cycles

 Excitation energies and oscillator strengths:

 Excited State   1:      Singlet-A      7.2870 eV  170.14 nm  f=0.1067  <S**2>=0.000
      17 -> 19         0.28436
      18 -> 19         0.52615
      18 -> 20        -0.34719
 This state for optimization and/or second-order correction.
 Total Energy, E(CIS) =  -228.463073356
 Copying the excited state density for this state as the 1-particle RhoCI density.

 Excited State   2:      Singlet-A      7.7201 eV  160.60 nm  f=0.1096  <S**2>=0.000
      17 -> 19        -0.40031
      18 -> 19         0.43466
      18 -> 20         0.35990

 Excited State   3:      Singlet-A      8.3680 eV  148.16 nm  f=0.0027  <S**2>=0.000
      18 -> 21         0.70096

 Excited State   4:      Singlet-A      8.9378 eV  138.72 nm  f=0.0185  <S**2>=0.000
      17 -> 19         0.13116
      18 -> 20         0.13438
      18 -> 22         0.65159
      18 -> 23        -0.12316

 Excited State   5:      Singlet-A      9.1907 eV  134.90 nm  f=0.0081  <S**2>=0.000
      16 -> 19         0.68824

 Excited State   6:      Singlet-A      9.5035 eV  130.46 nm  f=0.1529  <S**2>=0.000
      15 -> 19        -0.14476
      17 -> 19         0.16095
      17 -> 20         0.58054
      18 -> 20         0.21786
      18 -> 22        -0.16247

 Excited State   7:      Singlet-A      9.5803 eV  129.42 nm  f=0.0001  <S**2>=0.000
      15 -> 19         0.11085
      17 -> 21         0.50483
      18 -> 22        -0.12741
      18 -> 23        -0.44959

 Excited State   8:      Singlet-A      9.7518 eV  127.14 nm  f=0.0096  <S**2>=0.000
      15 -> 19        -0.35329
      17 -> 20        -0.12241
      17 -> 21         0.42375
      17 -> 22        -0.11263
      18 -> 23         0.38668

 Excited State   9:      Singlet-A      9.8524 eV  125.84 nm  f=0.0063  <S**2>=0.000
      15 -> 19         0.56485
      17 -> 20         0.10703
      17 -> 21         0.17805
      18 -> 23         0.34212

 Excited State  10:      Singlet-A     10.0351 eV  123.55 nm  f=0.3954  <S**2>=0.000
      17 -> 19         0.37368
      17 -> 20        -0.24657
      17 -> 21        -0.12640
      17 -> 22        -0.20996
      18 -> 20         0.34703
      18 -> 22        -0.13302
      18 -> 24        -0.12917

 Excited State  11:      Singlet-A     10.1920 eV  121.65 nm  f=0.0159  <S**2>=0.000
      17 -> 22        -0.10249
      18 -> 24         0.67791

 Excited State  12:      Singlet-A     10.3742 eV  119.51 nm  f=0.0670  <S**2>=0.000
      14 -> 19        -0.10622
      17 -> 19         0.12816
      17 -> 20        -0.16134
      17 -> 22         0.62537
      18 -> 20         0.10375

 Excited State  13:      Singlet-A     10.5276 eV  117.77 nm  f=0.0017  <S**2>=0.000
      14 -> 19        -0.35170
      15 -> 20        -0.12862
      16 -> 20         0.57550
      17 -> 22        -0.12637

 Excited State  14:      Singlet-A     10.8927 eV  113.82 nm  f=0.0088  <S**2>=0.000
      13 -> 19         0.13659
      14 -> 19         0.55375
      15 -> 20        -0.15021
      16 -> 20         0.30672
      18 -> 25        -0.17957

 Excited State  15:      Singlet-A     10.9474 eV  113.25 nm  f=0.0099  <S**2>=0.000
      14 -> 19         0.13204
      17 -> 24         0.11490
      18 -> 25         0.65578

 The electronic state is 1-A.
 Alpha  occ. eigenvalues --  -19.11792 -10.17773 -10.17299 -10.12608 -10.12490
 Alpha  occ. eigenvalues --   -1.14942  -0.81658  -0.74939  -0.60660  -0.56418
 Alpha  occ. eigenvalues --   -0.54121  -0.46129  -0.43897  -0.42259  -0.38539
 Alpha  occ. eigenvalues --   -0.36509  -0.28355  -0.23486
 Alpha virt. eigenvalues --    0.02993   0.08086   0.11894   0.13903   0.16765
 Alpha virt. eigenvalues --    0.17773   0.21537   0.24962   0.37492   0.42772
 Alpha virt. eigenvalues --    0.46297   0.68224   0.69643   0.71104   0.75325

 Mulliken charges:
               1
     1  C   -0.262318
     2  C    0.138605
     3  O   -0.491547
     4  C    0.064491
     5  C   -0.241896
     6  H    0.195853
     7  H    0.209416
     8  H    0.209904
     9  H    0.177493
 Sum of Mulliken charges =   0.00000

 Dipole moment (field-independent basis, Debye):
    X=              0.4604    Y=              0.6657    Z=             -0.0608  Tot=              0.8117
 Quadrupole moment (field-independent basis, Debye-Ang):
   XX=            -24.5837   YY=            -27.4551   ZZ=            -31.7701
   XY=             -1.4051   XZ=             -0.1961   YZ=             -0.0773

 Normal termination of Gaussian 09 at Tue Dec 15 16:24:49 2015.
