 Gaussian 09, Revision D.01,
 Gaussian 09:  ES64L-G09RevD.01 24-Apr-2013

 ------------------------------------------------------------
 #P AM1(Input,print) CIS(Singlets,NStates=15) pop(full) force
 ------------------------------------------------------------

 -----------------
 AM1-Reparam Input
 -----------------
 Symbolic Z-matrix:
 Charge =  0 Multiplicity = 1

                         Standard orientation:
 ---------------------------------------------------------------------
 Center     Atomic      Atomic             Coordinates (Angstroms)
 Number     Number       Type             X           Y           Z
 ---------------------------------------------------------------------
      1          6           0        0.788970    0.885096   -0.003663
      2          6           0        1.102359   -0.368707    0.027840
      3          8           0       -0.079589   -1.151040   -0.021614
      4          6           0       -1.150744   -0.252078    0.029135
      5          6           0       -0.671583    0.959252   -0.022512
      6          1           0       -1.227418    1.853659    0.035861
      7          1           0       -2.037413   -0.689635   -0.014642
      8          1           0        2.007510   -1.003691   -0.013128
      9          1           0        1.480020    1.706611   -0.019980
 ---------------------------------------------------------------------

 SCF Done:  E(RAM1) =   2.62392582332     A.U. after   14 cycles

 Excitation energies and oscillator strengths:

 Excited State   1:      Singlet-A      5.0039 eV  247.78 nm  f=0.3482  <S**2>=0.000
      13 -> 14         0.69639
 This state for optimization and/or second-order correction.
 Total Energy, E(CIS) =   2.80781501112
 Copying the excited state density for this state as the 1-particle RhoCI density.

 Excited State   2:      Singlet-A      5.9099 eV  209.79 nm  f=0.0002  <S**2>=0.000
      10 -> 15        -0.10203
      13 -> 15         0.66849
      13 -> 17         0.10414
      13 -> 18        -0.10059
      13 -> 19        -0.11016

 Excited State   3:      Singlet-A      6.2494 eV  198.39 nm  f=0.0024  <S**2>=0.000
      13 -> 16         0.66291
      13 -> 17         0.14598
      13 -> 19         0.10383

 Excited State   4:      Singlet-A      6.6414 eV  186.68 nm  f=0.0003  <S**2>=0.000
      12 -> 14         0.69921

 Excited State   5:      Singlet-A      7.3751 eV  168.11 nm  f=0.0010  <S**2>=0.000
      13 -> 15         0.11766
      13 -> 17        -0.20026
      13 -> 18         0.61031
      13 -> 21         0.23783

 Excited State   6:      Singlet-A      7.7712 eV  159.54 nm  f=0.0112  <S**2>=0.000
      11 -> 14         0.57620
      13 -> 17        -0.36013
      13 -> 18        -0.12910

 Excited State   7:      Singlet-A      7.9611 eV  155.74 nm  f=0.0028  <S**2>=0.000
      11 -> 14         0.40218
      13 -> 16        -0.10205
      13 -> 17         0.53647
      13 -> 18         0.14240

 Excited State   8:      Singlet-A      8.5990 eV  144.18 nm  f=0.0001  <S**2>=0.000
      13 -> 16        -0.10514
      13 -> 19         0.67734

 Excited State   9:      Singlet-A      8.8820 eV  139.59 nm  f=0.0572  <S**2>=0.000
       8 -> 15         0.11226
      10 -> 14         0.60381
      12 -> 15        -0.28897

 Excited State  10:      Singlet-A      9.1274 eV  135.84 nm  f=0.0994  <S**2>=0.000
       8 -> 16        -0.10285
      10 -> 14         0.26242
      11 -> 17        -0.15992
      12 -> 15         0.45159
      12 -> 16        -0.26511
      12 -> 18        -0.26489

 Excited State  11:      Singlet-A      9.3547 eV  132.54 nm  f=0.0015  <S**2>=0.000
      13 -> 18        -0.24929
      13 -> 20        -0.11760
      13 -> 21         0.63853

 Excited State  12:      Singlet-A      9.6205 eV  128.88 nm  f=0.0906  <S**2>=0.000
       9 -> 15        -0.11063
      10 -> 14         0.12663
      11 -> 15         0.27581
      11 -> 17         0.21069
      12 -> 15         0.32881
      12 -> 16         0.18792
      12 -> 18         0.29186
      13 -> 20        -0.28527

 Excited State  13:      Singlet-A      9.6802 eV  128.08 nm  f=0.0997  <S**2>=0.000
      11 -> 15         0.12919
      12 -> 15         0.13112
      12 -> 16         0.15413
      12 -> 18         0.11451
      13 -> 20         0.61821
      13 -> 21         0.12500

 Excited State  14:      Singlet-A      9.7817 eV  126.75 nm  f=0.1134  <S**2>=0.000
       9 -> 16        -0.10370
      11 -> 16        -0.28355
      11 -> 17        -0.15931
      12 -> 16         0.51661
      12 -> 17         0.14061
      12 -> 18        -0.20795
      12 -> 19         0.10282

 Excited State  15:      Singlet-A     10.2047 eV  121.50 nm  f=0.0003  <S**2>=0.000
       9 -> 14         0.68557

 The electronic state is 1-A.
 Alpha  occ. eigenvalues --   -1.72916  -1.16166  -0.97377  -0.80935  -0.77336
 Alpha  occ. eigenvalues --   -0.67476  -0.64035  -0.55323  -0.50704  -0.44364
 Alpha  occ. eigenvalues --   -0.43223  -0.39389  -0.26655
 Alpha virt. eigenvalues --    0.11833   0.17483   0.19669   0.26590   0.27898
 Alpha virt. eigenvalues --    0.30071   0.32650   0.33093   0.36027   0.45449
 Alpha virt. eigenvalues --    0.49621

 Mulliken charges:
               1
     1  C   -0.080882
     2  C   -1.865027
     3  O    3.231829
     4  C   -1.875490
     5  C   -0.127194
     6  H    0.124464
     7  H    0.236890
     8  H    0.235900
     9  H    0.119510
 Sum of Mulliken charges =   0.00000

 Dipole moment (field-independent basis, Debye):
    X=             -0.5052    Y=            -11.5219    Z=             -0.7907  Tot=             11.5600
 N-N= 1.038443116978D+02 E-N=-1.686659241629D+02  KE=-1.505687732651D+01
 Orbital energies and kinetic energies (alpha):
                                 1                 2
   1         O                -1.729164         -1.209028
   2         O                -1.161658         -1.006169
   3         O                -0.973767         -0.894680
   4         O                -0.809346         -0.618515
   5         O                -0.773358         -0.691270
   6         O                -0.674763         -0.557636
   7         O                -0.640351         -0.525885

 Normal termination of Gaussian 09 at Tue Dec 15 17:06:17 2015.
