 Gaussian 09, Revision D.01,
 Gaussian 09:  ES64L-G09RevD.01 24-Apr-2013

 ------------------------------------------------------------
 #P AM1(Input,print) CIS(Singlets,NStates=15) pop(full) force
 ------------------------------------------------------------

 -----------------
 AM1-Reparam Input
 -----------------
 Symbolic Z-matrix:
 Charge =  0 Multiplicity = 1

                         Standard orientation:
 ---------------------------------------------------------------------
 Center     Atomic      Atomic             Coordinates (Angstroms)
 Number     Number       Type             X           Y           Z
 ---------------------------------------------------------------------
      1          6           0       -0.680242    0.948863   -0.013063
      2          6           0       -1.083726   -0.310280    0.007307
      3          8           0       -0.016349   -1.107750    0.006145
      4          6           0        1.040856   -0.382702    0.006055
      5          6           0        0.727086    0.908568   -0.010395
      6          1           0        1.462002    1.801478    0.044368
      7          1           0        2.026513   -0.922641   -0.039495
      8          1           0       -2.094448   -0.811625   -0.032368
      9          1           0       -1.287123    1.808097    0.038915
 ---------------------------------------------------------------------

 SCF Done:  E(RAM1) =   1.87619097468     A.U. after   14 cycles

 Excitation energies and oscillator strengths:

 Excited State   1:      Singlet-A      5.7061 eV  217.29 nm  f=0.3177  <S**2>=0.000
      11 -> 17        -0.11244
      13 -> 14         0.68810
 This state for optimization and/or second-order correction.
 Total Energy, E(CIS) =   2.08588488551
 Copying the excited state density for this state as the 1-particle RhoCI density.

 Excited State   2:      Singlet-A      6.2313 eV  198.97 nm  f=0.0016  <S**2>=0.000
      10 -> 15         0.11787
      13 -> 15         0.67319
      13 -> 17        -0.10827

 Excited State   3:      Singlet-A      6.5253 eV  190.01 nm  f=0.0012  <S**2>=0.000
      10 -> 16        -0.12502
      13 -> 16         0.66776
      13 -> 17        -0.13642
      13 -> 19         0.10609

 Excited State   4:      Singlet-A      6.7422 eV  183.89 nm  f=0.0015  <S**2>=0.000
      12 -> 14         0.69824

 Excited State   5:      Singlet-A      7.6787 eV  161.47 nm  f=0.0069  <S**2>=0.000
      11 -> 14         0.67573
      13 -> 17         0.17643

 Excited State   6:      Singlet-A      8.0063 eV  154.86 nm  f=0.0051  <S**2>=0.000
      11 -> 14        -0.17960
      13 -> 16         0.12014
      13 -> 17         0.64002
      13 -> 18        -0.10961

 Excited State   7:      Singlet-A      8.1251 eV  152.59 nm  f=0.0030  <S**2>=0.000
      13 -> 15         0.10450
      13 -> 17         0.12352
      13 -> 18         0.61191
      13 -> 19         0.10449
      13 -> 21         0.25385

 Excited State   8:      Singlet-A      8.7361 eV  141.92 nm  f=0.0399  <S**2>=0.000
       8 -> 15        -0.12231
      11 -> 17        -0.17678
      12 -> 15         0.53134
      12 -> 16        -0.22997
      12 -> 18        -0.23299

 Excited State   9:      Singlet-A      8.9240 eV  138.93 nm  f=0.0021  <S**2>=0.000
      13 -> 18        -0.14003
      13 -> 19         0.66663

 Excited State  10:      Singlet-A      8.9406 eV  138.67 nm  f=0.0112  <S**2>=0.000
       8 -> 16        -0.10115
      10 -> 14         0.47735
      11 -> 15         0.16448
      11 -> 18        -0.13232
      12 -> 15        -0.24097
      12 -> 16        -0.31387

 Excited State  11:      Singlet-A      9.1964 eV  134.82 nm  f=0.0896  <S**2>=0.000
       9 -> 15         0.19601
      10 -> 14        -0.31179
      11 -> 15         0.37563
      11 -> 16         0.13653
      11 -> 17        -0.21951
      12 -> 15        -0.23665
      12 -> 17         0.20797
      12 -> 18        -0.12402

 Excited State  12:      Singlet-A      9.3426 eV  132.71 nm  f=0.1261  <S**2>=0.000
       9 -> 16        -0.13712
      10 -> 14         0.24538
      11 -> 16         0.34332
      11 -> 17        -0.13529
      12 -> 16         0.46614
      12 -> 18        -0.15578

 Excited State  13:      Singlet-A      9.5595 eV  129.70 nm  f=0.0365  <S**2>=0.000
      10 -> 16        -0.12378
      13 -> 18         0.25527
      13 -> 20         0.45282
      13 -> 21        -0.43124

 Excited State  14:      Singlet-A      9.7594 eV  127.04 nm  f=0.0451  <S**2>=0.000
      10 -> 14        -0.17210
      10 -> 15         0.47079
      11 -> 15        -0.19766
      11 -> 16         0.13655
      11 -> 19         0.12886
      12 -> 15        -0.14619
      12 -> 16        -0.11223
      13 -> 15        -0.10091
      13 -> 20         0.19324

 Excited State  15:      Singlet-A      9.7750 eV  126.84 nm  f=0.0853  <S**2>=0.000
       8 -> 15        -0.11518
       9 -> 15         0.12962
       9 -> 16         0.11112
      10 -> 14         0.23515
      10 -> 15         0.39372
      11 -> 15         0.20261
      11 -> 16        -0.17213
      11 -> 19        -0.17892
      12 -> 15         0.11894
      12 -> 16         0.15915
      12 -> 17         0.12370
      12 -> 18         0.13825
      13 -> 20         0.13538

 The electronic state is 1-A.
 Alpha  occ. eigenvalues --   -1.97893  -1.23497  -0.99451  -0.81957  -0.79462
 Alpha  occ. eigenvalues --   -0.71621  -0.66341  -0.52650  -0.48977  -0.43044
 Alpha  occ. eigenvalues --   -0.40895  -0.37931  -0.28204
 Alpha virt. eigenvalues --    0.14000   0.16994   0.18452   0.25626   0.27754
 Alpha virt. eigenvalues --    0.30261   0.31987   0.35021   0.39708   0.48021
 Alpha virt. eigenvalues --    0.53269

 Mulliken charges:
               1
     1  C   -0.076950
     2  C   -1.929342
     3  O    3.137450
     4  C   -1.944993
     5  C   -0.126925
     6  H    0.154480
     7  H    0.321835
     8  H    0.310866
     9  H    0.153578
 Sum of Mulliken charges =   0.00000

 Dipole moment (field-independent basis, Debye):
    X=              0.1048    Y=             -9.7112    Z=             -0.0985  Tot=              9.7123
 N-N= 1.053179496903D+02 E-N=-1.716980087893D+02  KE=-1.574704551100D+01
 Orbital energies and kinetic energies (alpha):
                                 1                 2
   1         O                -1.978925         -1.479984
   2         O                -1.234974         -1.088132
   3         O                -0.994513         -0.907930
   4         O                -0.819570         -0.612858
   5         O                -0.794625         -0.692200
   6         O                -0.716207         -0.590389
   7         O                -0.663408         -0.573590

 Normal termination of Gaussian 09 at Tue Dec 15 17:09:54 2015.
