 Gaussian 09, Revision D.01,
 Gaussian 09:  ES64L-G09RevD.01 24-Apr-2013

 ------------------------------------------------------------
 #P AM1(Input,print) CIS(Singlets,NStates=15) pop(full) force
 ------------------------------------------------------------

 -----------------
 AM1-Reparam Input
 -----------------
 Symbolic Z-matrix:
 Charge =  0 Multiplicity = 1

                         Standard orientation:
 ---------------------------------------------------------------------
 Center     Atomic      Atomic             Coordinates (Angstroms)
 Number     Number       Type             X           Y           Z
 ---------------------------------------------------------------------
      1          6           0       -0.885000    0.851222   -0.017525
      2          6           0       -1.028314   -0.529937    0.024752
      3          8           0        0.176282   -1.125813   -0.025403
      4          6           0        1.140646   -0.185201    0.009596
      5          6           0        0.603293    1.036301    0.004514
      6          1           0        1.084755    1.957468   -0.002401
      7          1           0        2.141008   -0.531214    0.041122
      8          1           0       -1.941124   -1.084861    0.040854
      9          1           0       -1.678640    1.630808   -0.004370
 ---------------------------------------------------------------------

 SCF Done:  E(RAM1) =   1.38025451294     A.U. after   13 cycles

 Excitation energies and oscillator strengths:

 Excited State   1:      Singlet-A      5.6732 eV  218.54 nm  f=0.3291  <S**2>=0.000
      13 -> 14         0.69297
 This state for optimization and/or second-order correction.
 Total Energy, E(CIS) =   1.58874167945
 Copying the excited state density for this state as the 1-particle RhoCI density.

 Excited State   2:      Singlet-A      6.2049 eV  199.82 nm  f=0.0010  <S**2>=0.000
      13 -> 15         0.66029
      13 -> 17        -0.17732

 Excited State   3:      Singlet-A      6.4573 eV  192.01 nm  f=0.0012  <S**2>=0.000
      12 -> 15        -0.10985
      13 -> 16         0.63664
      13 -> 18        -0.10822
      13 -> 21         0.21585

 Excited State   4:      Singlet-A      7.1293 eV  173.91 nm  f=0.0006  <S**2>=0.000
      11 -> 14         0.63494
      12 -> 14        -0.27666

 Excited State   5:      Singlet-A      7.6363 eV  162.36 nm  f=0.0024  <S**2>=0.000
      13 -> 16         0.16196
      13 -> 17         0.47529
      13 -> 18         0.22567
      13 -> 20        -0.16244
      13 -> 21        -0.17430
      13 -> 22         0.31401

 Excited State   6:      Singlet-A      7.7165 eV  160.67 nm  f=0.0032  <S**2>=0.000
      13 -> 15         0.13232
      13 -> 17         0.46981
      13 -> 18        -0.18378
      13 -> 20         0.18968
      13 -> 21         0.22347
      13 -> 22        -0.33714

 Excited State   7:      Singlet-A      8.3436 eV  148.60 nm  f=0.0422  <S**2>=0.000
      11 -> 14         0.24570
      12 -> 14         0.56116
      13 -> 19         0.32618

 Excited State   8:      Singlet-A      8.4327 eV  147.03 nm  f=0.0026  <S**2>=0.000
      10 -> 14         0.41331
      13 -> 18         0.47695
      13 -> 20         0.12178
      13 -> 21         0.26104

 Excited State   9:      Singlet-A      8.4724 eV  146.34 nm  f=0.0042  <S**2>=0.000
      10 -> 14         0.55101
      13 -> 18        -0.31575
      13 -> 21        -0.26706

 Excited State  10:      Singlet-A      8.6684 eV  143.03 nm  f=0.0045  <S**2>=0.000
      13 -> 16        -0.12542
      13 -> 18        -0.24538
      13 -> 20        -0.11878
      13 -> 21         0.44056
      13 -> 22         0.43668

 Excited State  11:      Singlet-A      9.0198 eV  137.46 nm  f=0.0763  <S**2>=0.000
      12 -> 16        -0.17696
      13 -> 19         0.18566
      13 -> 20         0.56742
      13 -> 22         0.27398

 Excited State  12:      Singlet-A      9.2435 eV  134.13 nm  f=0.0144  <S**2>=0.000
      11 -> 15         0.21138
      12 -> 15         0.55863
      12 -> 16         0.14503
      12 -> 17        -0.10396
      13 -> 16         0.16934
      13 -> 19         0.15697
      13 -> 21        -0.13068

 Excited State  13:      Singlet-A      9.3515 eV  132.58 nm  f=0.1982  <S**2>=0.000
      11 -> 14        -0.11987
      11 -> 15        -0.10497
      12 -> 14        -0.27815
      12 -> 15        -0.12330
      13 -> 19         0.53644
      13 -> 20        -0.19334

 Excited State  14:      Singlet-A      9.7046 eV  127.76 nm  f=0.0016  <S**2>=0.000
       7 -> 15         0.12525
      11 -> 15        -0.11193
      11 -> 16         0.21311
      12 -> 15        -0.12476
      12 -> 16         0.57508
      13 -> 15         0.13982
      13 -> 20         0.17449

 Excited State  15:      Singlet-A      9.7920 eV  126.62 nm  f=0.1792  <S**2>=0.000
       8 -> 15        -0.20951
      10 -> 17        -0.14174
      11 -> 15        -0.28606
      11 -> 16         0.43287
      11 -> 18        -0.13880
      11 -> 20         0.10744
      12 -> 15         0.15453
      12 -> 16        -0.17719

 The electronic state is 1-A.
 Alpha  occ. eigenvalues --   -1.89791  -1.16880  -0.96579  -0.79311  -0.76580
 Alpha  occ. eigenvalues --   -0.67938  -0.61914  -0.51058  -0.47694  -0.41929
 Alpha  occ. eigenvalues --   -0.37941  -0.37730  -0.24405
 Alpha virt. eigenvalues --    0.16083   0.21304   0.22597   0.28797   0.30553
 Alpha virt. eigenvalues --    0.31162   0.32854   0.33120   0.33907   0.41082
 Alpha virt. eigenvalues --    0.47123

 Mulliken charges:
               1
     1  C   -0.086519
     2  C   -1.587224
     3  O    2.798037
     4  C   -1.545815
     5  C   -0.060586
     6  H    0.066174
     7  H    0.164454
     8  H    0.182939
     9  H    0.068541
 Sum of Mulliken charges =   0.00000

 Dipole moment (field-independent basis, Debye):
    X=              1.4849    Y=             -9.1009    Z=             -0.4164  Tot=              9.2306
 N-N= 1.034474910465D+02 E-N=-1.696901589452D+02  KE=-1.584928401689D+01
 Orbital energies and kinetic energies (alpha):
                                 1                 2
   1         O                -1.897914         -1.393148
   2         O                -1.168800         -1.053713
   3         O                -0.965789         -0.878119
   4         O                -0.793111         -0.635908
   5         O                -0.765798         -0.705978
   6         O                -0.679381         -0.613362
   7         O                -0.619145         -0.535500

 Normal termination of Gaussian 09 at Tue Dec 15 17:08:05 2015.
