 Gaussian 09, Revision D.01,
 Gaussian 09:  ES64L-G09RevD.01 24-Apr-2013

 ------------------------------------------------------------
 #P AM1(Input,print) CIS(Singlets,NStates=15) pop(full) force
 ------------------------------------------------------------

 -----------------
 AM1-Reparam Input
 -----------------
 Symbolic Z-matrix:
 Charge =  0 Multiplicity = 1

                         Standard orientation:
 ---------------------------------------------------------------------
 Center     Atomic      Atomic             Coordinates (Angstroms)
 Number     Number       Type             X           Y           Z
 ---------------------------------------------------------------------
      1          6           0        1.041420    0.649805   -0.038434
      2          6           0        0.885524   -0.662698    0.043344
      3          8           0       -0.430291   -1.099748   -0.015550
      4          6           0       -1.099306    0.047668   -0.016891
      5          6           0       -0.381449    1.131555    0.027832
      6          1           0       -0.679998    2.150430    0.006740
      7          1           0       -2.171500   -0.081625    0.031763
      8          1           0        1.677080   -1.468754   -0.000150
      9          1           0        1.939605    1.199960   -0.009059
 ---------------------------------------------------------------------

 SCF Done:  E(RAM1) =   1.43521427042     A.U. after   13 cycles

 Excitation energies and oscillator strengths:

 Excited State   1:      Singlet-A      5.5146 eV  224.83 nm  f=0.0438  <S**2>=0.000
      13 -> 14         0.29038
      13 -> 15         0.61117
      13 -> 16        -0.11596
 This state for optimization and/or second-order correction.
 Total Energy, E(CIS) =   1.63787080371
 Copying the excited state density for this state as the 1-particle RhoCI density.

 Excited State   2:      Singlet-A      5.5685 eV  222.65 nm  f=0.2576  <S**2>=0.000
      13 -> 14         0.62772
      13 -> 15        -0.28838

 Excited State   3:      Singlet-A      5.7937 eV  214.00 nm  f=0.0003  <S**2>=0.000
      13 -> 15         0.12336
      13 -> 16         0.66559
      13 -> 20        -0.10296

 Excited State   4:      Singlet-A      7.0486 eV  175.90 nm  f=0.0010  <S**2>=0.000
      11 -> 14        -0.16002
      12 -> 14         0.67684

 Excited State   5:      Singlet-A      7.4393 eV  166.66 nm  f=0.0041  <S**2>=0.000
      13 -> 16        -0.11760
      13 -> 18         0.52117
      13 -> 19        -0.24453
      13 -> 20        -0.22256
      13 -> 21        -0.12407
      13 -> 22         0.25353

 Excited State   6:      Singlet-A      7.6127 eV  162.86 nm  f=0.0044  <S**2>=0.000
      13 -> 15        -0.10384
      13 -> 18         0.43936
      13 -> 19         0.26700
      13 -> 20         0.36070
      13 -> 22        -0.26922

 Excited State   7:      Singlet-A      8.1418 eV  152.28 nm  f=0.0030  <S**2>=0.000
      11 -> 14        -0.43695
      13 -> 17         0.50980
      13 -> 19        -0.11416

 Excited State   8:      Singlet-A      8.3074 eV  149.25 nm  f=0.0006  <S**2>=0.000
      13 -> 19         0.48453
      13 -> 20        -0.47045
      13 -> 22        -0.10418

 Excited State   9:      Singlet-A      8.5806 eV  144.49 nm  f=0.0013  <S**2>=0.000
      10 -> 14         0.52623
      13 -> 19         0.22029
      13 -> 20         0.14214
      13 -> 21        -0.19084
      13 -> 22         0.32292

 Excited State  10:      Singlet-A      8.6199 eV  143.84 nm  f=0.0019  <S**2>=0.000
      10 -> 14        -0.43820
      13 -> 19         0.23724
      13 -> 20         0.18503
      13 -> 22         0.44368

 Excited State  11:      Singlet-A      8.8801 eV  139.62 nm  f=0.0521  <S**2>=0.000
      10 -> 14         0.10972
      11 -> 14         0.11125
      11 -> 15         0.44628
      12 -> 15         0.22814
      12 -> 16        -0.11529
      13 -> 21         0.39385

 Excited State  12:      Singlet-A      8.9681 eV  138.25 nm  f=0.0441  <S**2>=0.000
      11 -> 15         0.40017
      11 -> 16         0.21695
      12 -> 15         0.10138
      12 -> 16         0.25585
      13 -> 20         0.11217
      13 -> 21        -0.35355
      13 -> 22        -0.17042

 Excited State  13:      Singlet-A      9.0402 eV  137.15 nm  f=0.1943  <S**2>=0.000
       8 -> 15        -0.14725
       9 -> 15         0.11783
      11 -> 14        -0.28657
      12 -> 15         0.38263
      12 -> 16        -0.27403
      13 -> 17        -0.30133
      13 -> 21        -0.13900

 Excited State  14:      Singlet-A      9.1732 eV  135.16 nm  f=0.2775  <S**2>=0.000
       8 -> 16        -0.10921
      11 -> 14         0.34630
      12 -> 16        -0.33788
      13 -> 17         0.32643
      13 -> 21        -0.25411

 Excited State  15:      Singlet-A      9.2461 eV  134.09 nm  f=0.0259  <S**2>=0.000
      11 -> 15        -0.17730
      11 -> 16         0.56998
      12 -> 15         0.12379
      12 -> 16         0.10682
      13 -> 16         0.10300
      13 -> 21         0.24469

 The electronic state is 1-A.
 Alpha  occ. eigenvalues --   -1.89585  -1.19191  -0.96098  -0.79112  -0.76008
 Alpha  occ. eigenvalues --   -0.68115  -0.62269  -0.47731  -0.47206  -0.41026
 Alpha  occ. eigenvalues --   -0.37091  -0.35880  -0.22352
 Alpha virt. eigenvalues --    0.17822   0.20430   0.21654   0.30582   0.30776
 Alpha virt. eigenvalues --    0.32238   0.34226   0.35011   0.36349   0.41524
 Alpha virt. eigenvalues --    0.45705

 Mulliken charges:
               1
     1  C   -0.052824
     2  C   -1.499047
     3  O    2.740064
     4  C   -1.489434
     5  C   -0.101604
     6  H    0.056750
     7  H    0.146370
     8  H    0.142882
     9  H    0.056843
 Sum of Mulliken charges =   0.00000

 Dipole moment (field-independent basis, Debye):
    X=             -3.7990    Y=             -9.5123    Z=             -0.3341  Tot=             10.2483
 N-N= 1.037989954493D+02 E-N=-1.704191962771D+02  KE=-1.587507912680D+01
 Orbital energies and kinetic energies (alpha):
                                 1                 2
   1         O                -1.895850         -1.388979
   2         O                -1.191905         -1.084499
   3         O                -0.960982         -0.896942
   4         O                -0.791121         -0.624670
   5         O                -0.760082         -0.687716
   6         O                -0.681154         -0.616972
   7         O                -0.622688         -0.546191

 Normal termination of Gaussian 09 at Tue Dec 15 17:08:02 2015.
