 Gaussian 09, Revision D.01,
 Gaussian 09:  ES64L-G09RevD.01 24-Apr-2013

 ------------------------------------------------------------
 #P AM1(Input,print) CIS(Singlets,NStates=15) pop(full) force
 ------------------------------------------------------------

 -----------------
 AM1-Reparam Input
 -----------------
 Symbolic Z-matrix:
 Charge =  0 Multiplicity = 1

                         Standard orientation:
 ---------------------------------------------------------------------
 Center     Atomic      Atomic             Coordinates (Angstroms)
 Number     Number       Type             X           Y           Z
 ---------------------------------------------------------------------
      1          6           0        1.010083    0.697276   -0.032860
      2          6           0        0.930391   -0.687172    0.030939
      3          8           0       -0.399434   -1.105088   -0.013396
      4          6           0       -1.135891   -0.028866    0.008723
      5          6           0       -0.380748    1.193153    0.008364
      6          1           0       -0.733018    2.149220   -0.013539
      7          1           0       -2.233786   -0.150229    0.002140
      8          1           0        1.729140   -1.456914   -0.030691
      9          1           0        1.890128    1.252281    0.058256
 ---------------------------------------------------------------------

 SCF Done:  E(RAM1) =   1.75947327828     A.U. after   14 cycles

 Excitation energies and oscillator strengths:

 Excited State   1:      Singlet-A      5.4533 eV  227.35 nm  f=0.3771  <S**2>=0.000
      13 -> 14         0.69418
 This state for optimization and/or second-order correction.
 Total Energy, E(CIS) =   1.95987975869
 Copying the excited state density for this state as the 1-particle RhoCI density.

 Excited State   2:      Singlet-A      6.5720 eV  188.66 nm  f=0.0063  <S**2>=0.000
      13 -> 15         0.66904
      13 -> 17         0.18829

 Excited State   3:      Singlet-A      7.1004 eV  174.62 nm  f=0.0028  <S**2>=0.000
      13 -> 16         0.66071
      13 -> 18        -0.19347

 Excited State   4:      Singlet-A      7.5385 eV  164.47 nm  f=0.0005  <S**2>=0.000
      12 -> 14         0.69831

 Excited State   5:      Singlet-A      8.2785 eV  149.77 nm  f=0.0002  <S**2>=0.000
      13 -> 16         0.12146
      13 -> 17         0.33091
      13 -> 18         0.51068
      13 -> 19         0.18190
      13 -> 21        -0.22298

 Excited State   6:      Singlet-A      8.4539 eV  146.66 nm  f=0.0082  <S**2>=0.000
      10 -> 14         0.67593
      11 -> 14         0.16458

 Excited State   7:      Singlet-A      8.8407 eV  140.24 nm  f=0.1225  <S**2>=0.000
      10 -> 14        -0.16128
      11 -> 14         0.66636

 Excited State   8:      Singlet-A      9.0607 eV  136.84 nm  f=0.0152  <S**2>=0.000
      11 -> 15        -0.13694
      11 -> 16         0.12332
      13 -> 15        -0.12712
      13 -> 17         0.56157
      13 -> 18        -0.31803
      13 -> 19        -0.11114

 Excited State   9:      Singlet-A      9.5873 eV  129.32 nm  f=0.0004  <S**2>=0.000
      11 -> 15         0.10742
      11 -> 16         0.15181
      13 -> 18        -0.16374
      13 -> 19         0.64413

 Excited State  10:      Singlet-A      9.9536 eV  124.56 nm  f=0.0203  <S**2>=0.000
       9 -> 15         0.15848
      10 -> 15        -0.17524
      10 -> 16        -0.21647
      10 -> 17        -0.14250
      10 -> 18         0.16103
      12 -> 15         0.36030
      12 -> 16        -0.16395
      12 -> 17         0.21347
      12 -> 18         0.23699

 Excited State  11:      Singlet-A     10.0879 eV  122.90 nm  f=0.0017  <S**2>=0.000
       7 -> 15        -0.11932
      11 -> 15         0.63778
      13 -> 15        -0.13236
      13 -> 17         0.12134

 Excited State  12:      Singlet-A     10.3902 eV  119.33 nm  f=0.0054  <S**2>=0.000
      13 -> 18         0.19365
      13 -> 20         0.21978
      13 -> 21         0.62731

 Excited State  13:      Singlet-A     10.4697 eV  118.42 nm  f=0.0472  <S**2>=0.000
      10 -> 15         0.41393
      10 -> 17         0.15932
      12 -> 15         0.47083
      12 -> 16         0.15584
      12 -> 18        -0.11670

 Excited State  14:      Singlet-A     10.6028 eV  116.94 nm  f=0.1643  <S**2>=0.000
      10 -> 16        -0.12091
      11 -> 16        -0.28661
      12 -> 16         0.47356
      12 -> 19         0.10246
      13 -> 20        -0.31349
      13 -> 21         0.12403

 Excited State  15:      Singlet-A     10.6766 eV  116.13 nm  f=0.1472  <S**2>=0.000
      10 -> 15        -0.16385
      10 -> 16        -0.12236
      11 -> 16         0.12969
      12 -> 16         0.35079
      13 -> 20         0.49584
      13 -> 21        -0.16387

 The electronic state is 1-A.
 Alpha  occ. eigenvalues --   -1.98725  -1.24177  -0.98152  -0.89683  -0.83532
 Alpha  occ. eigenvalues --   -0.76576  -0.73147  -0.63025  -0.60944  -0.53826
 Alpha  occ. eigenvalues --   -0.51612  -0.50664  -0.37118
 Alpha virt. eigenvalues --    0.03470   0.09949   0.12340   0.19236   0.20747
 Alpha virt. eigenvalues --    0.22471   0.25742   0.26279   0.30436   0.38384
 Alpha virt. eigenvalues --    0.43653

 Mulliken charges:
               1
     1  C   -0.048219
     2  C   -1.900287
     3  O    3.164160
     4  C   -1.935381
     5  C   -0.142528
     6  H    0.138949
     7  H    0.300674
     8  H    0.285841
     9  H    0.136792
 Sum of Mulliken charges =   0.00000

 Dipole moment (field-independent basis, Debye):
    X=             -3.6814    Y=             -9.8013    Z=             -0.5472  Tot=             10.4841
 N-N= 1.048096744613D+02 E-N=-1.692919392804D+02  KE=-1.558485610765D+01
 Orbital energies and kinetic energies (alpha):
                                 1                 2
   1         O                -1.987248         -1.369652
   2         O                -1.241775         -1.038557
   3         O                -0.981516         -0.862567
   4         O                -0.896832         -0.595451
   5         O                -0.835319         -0.685909
   6         O                -0.765756         -0.612579
   7         O                -0.731472         -0.528307

 Normal termination of Gaussian 09 at Tue Dec 15 17:08:55 2015.
