 Gaussian 09, Revision D.01,
 Gaussian 09:  ES64L-G09RevD.01 24-Apr-2013

 -----------------------
 #P AM1(Input,print) opt
 -----------------------

 -----------------
 AM1-Reparam Input
 -----------------
 Symbolic Z-matrix:
 Charge =  0 Multiplicity = 1

 SCF Done:  E(RAM1) = -0.238617983067     A.U. after   13 cycles
 SCF Done:  E(RAM1) = -0.258582350547     A.U. after   12 cycles
 SCF Done:  E(RAM1) = -0.259834821432     A.U. after   11 cycles
 SCF Done:  E(RAM1) = -0.260156302899     A.U. after   11 cycles
 SCF Done:  E(RAM1) = -0.260162384720     A.U. after   11 cycles
 SCF Done:  E(RAM1) = -0.260177954873     A.U. after   11 cycles
 SCF Done:  E(RAM1) = -0.260179198437     A.U. after    9 cycles
 Optimization completed.
    -- Stationary point found.

                         Standard orientation:
 ---------------------------------------------------------------------
 Center     Atomic      Atomic             Coordinates (Angstroms)
 Number     Number       Type             X           Y           Z
 ---------------------------------------------------------------------
      1          6           0        0.725878    0.968267    0.000022
      2          6           0        1.107481   -0.359223    0.000007
      3          8           0       -0.001506   -1.154338   -0.000021
      4          6           0       -1.108472   -0.356408    0.000002
      5          6           0       -0.723306    0.970136    0.000005
      6          1           0       -1.356673    1.836966    0.000288
      7          1           0       -2.046684   -0.883610   -0.000168
      8          1           0        2.044318   -0.888785    0.000257
      9          1           0        1.361603    1.833497   -0.000425
 ---------------------------------------------------------------------

 The electronic state is 1-A.
 Alpha  occ. eigenvalues --   -1.59676  -1.25602  -1.13468  -0.84618  -0.83301
 Alpha  occ. eigenvalues --   -0.69288  -0.61767  -0.58387  -0.52113  -0.51796
 Alpha  occ. eigenvalues --   -0.50280  -0.39898  -0.34045
 Alpha virt. eigenvalues --    0.02996   0.06585   0.08795   0.11263   0.14300
 Alpha virt. eigenvalues --    0.14633   0.17080   0.17188   0.19138   0.20803
 Alpha virt. eigenvalues --    0.22703

 Mulliken charges:
               1
     1  C   -0.167253
     2  C    0.012109
     3  O   -0.270587
     4  C    0.012093
     5  C   -0.167256
     6  H    0.129499
     7  H    0.160948
     8  H    0.160915
     9  H    0.129533
 Sum of Mulliken charges =   0.00000

 Dipole moment (field-independent basis, Debye):
    X=              0.0010    Y=              0.8004    Z=              0.0000  Tot=              0.8004
 N-N= 1.030019559088D+02 E-N=-1.698817871521D+02  KE=-1.695770152399D+01
 Leave Link  601 at Sat Nov 14 18:18:52 2015, MaxMem=    33554432 cpu:         0.0
 (Enter /home/Applications/g09/g09/l9999.exe)
 1\1\GINC-DUSTIN-DESKTOP\FOpt\RAM1\ZDO\C4H4O1\DUSTIN\14-Nov-2015\0\\#P
 AM1(Input,print) opt\\AM1-Reparam Input\\0,1\C,0.9778813468,-0.7180791
 755,0.0098348988\C,-0.347296659,-1.1071160294,-0.0102233825\O,-1.14861
 42833,-0.0026170182,-0.0159831721\C,-0.3570520463,1.1087933545,0.00020
 2893\C,0.9715298305,0.7310763184,0.0166406905\H,1.8346677373,1.3692852
 12,0.031812942\H,-0.8895159724,2.0440245192,-0.0028165475\H,-0.8714896
 127,-2.0468983912,-0.0216477066\H,1.8466286592,-1.34893279,0.018304384

 Normal termination of Gaussian 09 at Sat Nov 14 18:18:52 2015.
