 Gaussian 09, Revision D.01,
 Gaussian 09:  ES64L-G09RevD.01 24-Apr-2013

 ------------------------------------------------------------
 #P AM1(Input,print) CIS(Singlets,NStates=15) pop(full) force
 ------------------------------------------------------------

 -----------------
 AM1-Reparam Input
 -----------------
 Symbolic Z-matrix:
 Charge =  0 Multiplicity = 1

                         Standard orientation:
 ---------------------------------------------------------------------
 Center     Atomic      Atomic             Coordinates (Angstroms)
 Number     Number       Type             X           Y           Z
 ---------------------------------------------------------------------
      1          6           0        0.998752    0.679922   -0.001949
      2          6           0        0.970490   -0.617294   -0.003461
      3          8           0       -0.401906   -1.116253   -0.007436
      4          6           0       -1.112923    0.025511    0.003450
      5          6           0       -0.424883    1.084749   -0.002005
      6          1           0       -0.759060    2.137273    0.008006
      7          1           0       -2.161964   -0.160181    0.024412
      8          1           0        1.666415   -1.403271    0.051075
      9          1           0        1.881249    1.318878   -0.000214
 ---------------------------------------------------------------------

 SCF Done:  E(RAM1) =   1.81941686102     A.U. after   14 cycles

 Excitation energies and oscillator strengths:

 Excited State   1:      Singlet-A      4.9721 eV  249.36 nm  f=0.3329  <S**2>=0.000
      13 -> 14         0.69559
 This state for optimization and/or second-order correction.
 Total Energy, E(CIS) =   2.00213652356
 Copying the excited state density for this state as the 1-particle RhoCI density.

 Excited State   2:      Singlet-A      5.1869 eV  239.03 nm  f=0.0012  <S**2>=0.000
      13 -> 15         0.68425
      13 -> 19         0.10604

 Excited State   3:      Singlet-A      6.0562 eV  204.72 nm  f=0.0007  <S**2>=0.000
      11 -> 16        -0.10320
      13 -> 16         0.64529
      13 -> 17         0.15282
      13 -> 19        -0.15000
      13 -> 20        -0.12611

 Excited State   4:      Singlet-A      6.7213 eV  184.46 nm  f=0.0003  <S**2>=0.000
      12 -> 14         0.67533
      13 -> 19         0.11457
      13 -> 21        -0.10315

 Excited State   5:      Singlet-A      7.0233 eV  176.53 nm  f=0.0011  <S**2>=0.000
      12 -> 14        -0.18237
      13 -> 16         0.19851
      13 -> 17        -0.22944
      13 -> 18         0.13304
      13 -> 19         0.38115
      13 -> 20         0.31352
      13 -> 21        -0.31872

 Excited State   6:      Singlet-A      7.1885 eV  172.48 nm  f=0.0163  <S**2>=0.000
      13 -> 15        -0.11148
      13 -> 17         0.62992
      13 -> 19         0.25992

 Excited State   7:      Singlet-A      7.9489 eV  155.98 nm  f=0.0027  <S**2>=0.000
      10 -> 14         0.12586
      13 -> 18         0.56354
      13 -> 19         0.16246
      13 -> 20        -0.21380
      13 -> 21         0.28172

 Excited State   8:      Singlet-A      8.0379 eV  154.25 nm  f=0.0014  <S**2>=0.000
      13 -> 18        -0.38260
      13 -> 19         0.41885
      13 -> 20        -0.10034
      13 -> 21         0.37646

 Excited State   9:      Singlet-A      8.2380 eV  150.50 nm  f=0.0001  <S**2>=0.000
      10 -> 14         0.65061
      13 -> 20        -0.12324
      13 -> 21        -0.21516

 Excited State  10:      Singlet-A      8.5898 eV  144.34 nm  f=0.0897  <S**2>=0.000
      10 -> 14         0.20051
      11 -> 14        -0.11047
      13 -> 19        -0.17373
      13 -> 20         0.53007
      13 -> 21         0.32801

 Excited State  11:      Singlet-A      8.6238 eV  143.77 nm  f=0.0554  <S**2>=0.000
       8 -> 15         0.12398
       9 -> 15         0.10651
      11 -> 14        -0.38570
      12 -> 15         0.49088
      12 -> 19         0.10370
      13 -> 20        -0.11583
      13 -> 22         0.12915

 Excited State  12:      Singlet-A      8.8090 eV  140.75 nm  f=0.1272  <S**2>=0.000
       8 -> 16         0.13203
      10 -> 17         0.12102
      11 -> 14         0.43267
      12 -> 15         0.31785
      12 -> 16        -0.30285
      12 -> 18         0.10913
      12 -> 20         0.11507
      13 -> 22        -0.14933

 Excited State  13:      Singlet-A      9.4426 eV  131.30 nm  f=0.0483  <S**2>=0.000
      10 -> 15        -0.18912
      10 -> 17        -0.18363
      11 -> 14         0.22133
      12 -> 15         0.29121
      12 -> 16         0.35152
      12 -> 17         0.11371
      12 -> 18        -0.13673
      12 -> 19        -0.13150
      12 -> 20        -0.21108
      12 -> 21         0.13806
      13 -> 22        -0.15002

 Excited State  14:      Singlet-A      9.5946 eV  129.22 nm  f=0.0024  <S**2>=0.000
       7 -> 15        -0.16824
      11 -> 15         0.66410
      13 -> 15        -0.10418

 Excited State  15:      Singlet-A      9.7831 eV  126.73 nm  f=0.0635  <S**2>=0.000
       8 -> 16         0.12111
      10 -> 17        -0.14598
      12 -> 16        -0.25434
      12 -> 17         0.20895
      12 -> 18        -0.18733
      12 -> 19        -0.10048
      12 -> 21         0.17337
      13 -> 22         0.47147

 The electronic state is 1-A.
 Alpha  occ. eigenvalues --   -1.90970  -1.22838  -1.00757  -0.81972  -0.80172
 Alpha  occ. eigenvalues --   -0.69005  -0.63226  -0.52511  -0.50763  -0.42456
 Alpha  occ. eigenvalues --   -0.42111  -0.37681  -0.24237
 Alpha virt. eigenvalues --    0.14152   0.16952   0.20713   0.27137   0.28986
 Alpha virt. eigenvalues --    0.29790   0.30812   0.31334   0.33745   0.43471
 Alpha virt. eigenvalues --    0.46710

 Mulliken charges:
               1
     1  C   -0.087543
     2  C   -1.859269
     3  O    3.156739
     4  C   -1.859152
     5  C   -0.235860
     6  H    0.173401
     7  H    0.283861
     8  H    0.264187
     9  H    0.163637
 Sum of Mulliken charges =   0.00000

 Dipole moment (field-independent basis, Debye):
    X=             -4.3501    Y=            -11.0089    Z=              0.0510  Tot=             11.8373
 N-N= 1.040860961714D+02 E-N=-1.696136693611D+02  KE=-1.574566481258D+01
 Orbital energies and kinetic energies (alpha):
                                 1                 2
   1         O                -1.909701         -1.356380
   2         O                -1.228381         -1.109732
   3         O                -1.007575         -0.942419
   4         O                -0.819720         -0.639597
   5         O                -0.801718         -0.690017
   6         O                -0.690053         -0.567931
   7         O                -0.632256         -0.516473

 Normal termination of Gaussian 09 at Tue Dec 15 17:07:09 2015.
