 Gaussian 09, Revision D.01,
 Gaussian 09:  ES64L-G09RevD.01 24-Apr-2013

 ------------------------------------------------------------
 #P AM1(Input,print) CIS(Singlets,NStates=15) pop(full) force
 ------------------------------------------------------------

 -----------------
 AM1-Reparam Input
 -----------------
 Symbolic Z-matrix:
 Charge =  0 Multiplicity = 1

                         Standard orientation:
 ---------------------------------------------------------------------
 Center     Atomic      Atomic             Coordinates (Angstroms)
 Number     Number       Type             X           Y           Z
 ---------------------------------------------------------------------
      1          6           0        0.136899    1.145612    0.021080
      2          6           0       -1.020423    0.469537   -0.029252
      3          8           0       -0.771031   -0.829433    0.032619
      4          6           0        0.514860   -0.998840   -0.016891
      5          6           0        1.165948    0.247622   -0.024180
      6          1           0        2.287033    0.389486    0.061056
      7          1           0        0.891306   -1.977307   -0.014250
      8          1           0       -2.083258    0.774374   -0.043303
      9          1           0        0.289466    2.265327    0.031001
 ---------------------------------------------------------------------

 SCF Done:  E(RAM1) =   1.72377492674     A.U. after   14 cycles

 Excitation energies and oscillator strengths:

 Excited State   1:      Singlet-A      5.8538 eV  211.80 nm  f=0.3348  <S**2>=0.000
      13 -> 14         0.68865
 This state for optimization and/or second-order correction.
 Total Energy, E(CIS) =   1.93889898330
 Copying the excited state density for this state as the 1-particle RhoCI density.

 Excited State   2:      Singlet-A      7.2094 eV  171.98 nm  f=0.0017  <S**2>=0.000
      12 -> 14         0.69859

 Excited State   3:      Singlet-A      7.4829 eV  165.69 nm  f=0.0064  <S**2>=0.000
      10 -> 16        -0.10042
      13 -> 15         0.47926
      13 -> 16         0.45946
      13 -> 17        -0.17021

 Excited State   4:      Singlet-A      7.6346 eV  162.40 nm  f=0.0001  <S**2>=0.000
      10 -> 15        -0.12858
      13 -> 15        -0.46516
      13 -> 16         0.47787
      13 -> 19         0.15483

 Excited State   5:      Singlet-A      7.9517 eV  155.92 nm  f=0.0044  <S**2>=0.000
      11 -> 14         0.69645

 Excited State   6:      Singlet-A      9.2625 eV  133.86 nm  f=0.0001  <S**2>=0.000
      13 -> 17        -0.25098
      13 -> 18         0.58264
      13 -> 21        -0.25331

 Excited State   7:      Singlet-A      9.4357 eV  131.40 nm  f=0.0121  <S**2>=0.000
      10 -> 14         0.24419
      10 -> 16        -0.12146
      13 -> 15         0.10050
      13 -> 17         0.57259
      13 -> 18         0.22901

 Excited State   8:      Singlet-A      9.4654 eV  130.99 nm  f=0.0563  <S**2>=0.000
      10 -> 14         0.60749
      12 -> 17         0.11439
      13 -> 17        -0.23006

 Excited State   9:      Singlet-A      9.8775 eV  125.52 nm  f=0.0826  <S**2>=0.000
       9 -> 16         0.11561
      10 -> 14         0.19117
      11 -> 15        -0.25581
      11 -> 16        -0.10694
      11 -> 17         0.22269
      11 -> 18         0.15237
      12 -> 16         0.37918
      12 -> 17        -0.15880
      12 -> 18         0.23994
      13 -> 14        -0.11116

 Excited State  10:      Singlet-A     10.0387 eV  123.51 nm  f=0.0006  <S**2>=0.000
      10 -> 15         0.10753
      13 -> 16        -0.10205
      13 -> 18        -0.17431
      13 -> 19         0.63719
      13 -> 20         0.11111

 Excited State  11:      Singlet-A     10.2421 eV  121.05 nm  f=0.1345  <S**2>=0.000
      12 -> 15         0.64818
      12 -> 16        -0.10394

 Excited State  12:      Singlet-A     10.5209 eV  117.85 nm  f=0.1326  <S**2>=0.000
      11 -> 15         0.14382
      11 -> 16         0.53000
      11 -> 17        -0.13734
      11 -> 19         0.13624
      12 -> 16         0.34996

 Excited State  13:      Singlet-A     10.7571 eV  115.26 nm  f=0.0782  <S**2>=0.000
       8 -> 16        -0.16132
       9 -> 15         0.10116
       9 -> 16         0.11235
      10 -> 14        -0.12441
      11 -> 15         0.13425
      11 -> 16        -0.18920
      11 -> 18         0.13210
      11 -> 19        -0.19801
      12 -> 16         0.27780
      12 -> 17         0.27782
      12 -> 18        -0.24138
      12 -> 19         0.22015
      12 -> 20        -0.13700

 Excited State  14:      Singlet-A     10.8090 eV  114.70 nm  f=0.0897  <S**2>=0.000
      10 -> 16        -0.16712
      13 -> 18        -0.12756
      13 -> 19        -0.15161
      13 -> 20         0.59017
      13 -> 21        -0.24287

 Excited State  15:      Singlet-A     10.9761 eV  112.96 nm  f=0.0135  <S**2>=0.000
       9 -> 14        -0.12440
      10 -> 15        -0.18674
      10 -> 16        -0.25957
      13 -> 18         0.19019
      13 -> 19         0.11647
      13 -> 20         0.22687
      13 -> 21         0.49005

 The electronic state is 1-A.
 Alpha  occ. eigenvalues --   -1.93280  -1.19183  -0.92502  -0.82568  -0.78419
 Alpha  occ. eigenvalues --   -0.70131  -0.69111  -0.57066  -0.55135  -0.47069
 Alpha  occ. eigenvalues --   -0.44521  -0.42339  -0.32431
 Alpha virt. eigenvalues --    0.11087   0.18311   0.18833   0.25876   0.27208
 Alpha virt. eigenvalues --    0.29540   0.31356   0.35416   0.37479   0.45760
 Alpha virt. eigenvalues --    0.50101

 Mulliken charges:
               1
     1  C   -0.125888
     2  C   -2.032901
     3  O    3.294093
     4  C   -2.067324
     5  C   -0.170728
     6  H    0.210720
     7  H    0.341893
     8  H    0.342138
     9  H    0.207997
 Sum of Mulliken charges =   0.00000

 Dipole moment (field-independent basis, Debye):
    X=             -6.7118    Y=             -6.9797    Z=              0.8444  Tot=              9.7200
 N-N= 1.046349924597D+02 E-N=-1.705970131877D+02  KE=-1.555031570260D+01
 Orbital energies and kinetic energies (alpha):
                                 1                 2
   1         O                -1.932800         -1.423532
   2         O                -1.191825         -1.057783
   3         O                -0.925019         -0.868521
   4         O                -0.825681         -0.576841
   5         O                -0.784187         -0.696054
   6         O                -0.701308         -0.578932
   7         O                -0.691113         -0.565718

 Normal termination of Gaussian 09 at Tue Dec 15 17:09:48 2015.
