 Gaussian 09, Revision D.01,
 Gaussian 09:  ES64L-G09RevD.01 24-Apr-2013

 ------------------------------------------------------------
 #P AM1(Input,print) CIS(Singlets,NStates=15) pop(full) force
 ------------------------------------------------------------

 -----------------
 AM1-Reparam Input
 -----------------
 Symbolic Z-matrix:
 Charge =  0 Multiplicity = 1

                         Standard orientation:
 ---------------------------------------------------------------------
 Center     Atomic      Atomic             Coordinates (Angstroms)
 Number     Number       Type             X           Y           Z
 ---------------------------------------------------------------------
      1          6           0       -0.539353    1.061019   -0.012649
      2          6           0       -1.170045   -0.182549    0.028961
      3          8           0       -0.201308   -1.090727   -0.017120
      4          6           0        1.014732   -0.522020   -0.001889
      5          6           0        0.911592    0.780923   -0.009582
      6          1           0        1.622497    1.557458    0.076031
      7          1           0        1.845513   -1.197540    0.044122
      8          1           0       -2.155868   -0.461706    0.015911
      9          1           0       -1.003236    2.003364   -0.028147
 ---------------------------------------------------------------------

 SCF Done:  E(RAM1) =  -4.67886882559     A.U. after   14 cycles

 Excitation energies and oscillator strengths:

 Excited State   1:      Singlet-A      6.3942 eV  193.90 nm  f=0.3876  <S**2>=0.000
      13 -> 14         0.69266
 This state for optimization and/or second-order correction.
 Total Energy, E(CIS) =  -4.44388531985
 Copying the excited state density for this state as the 1-particle RhoCI density.

 Excited State   2:      Singlet-A      7.0311 eV  176.34 nm  f=0.0042  <S**2>=0.000
      12 -> 14         0.69979

 Excited State   3:      Singlet-A      8.0998 eV  153.07 nm  f=0.0005  <S**2>=0.000
      13 -> 15         0.68060

 Excited State   4:      Singlet-A      8.2621 eV  150.06 nm  f=0.0073  <S**2>=0.000
      11 -> 14         0.67833
      13 -> 16         0.14946

 Excited State   5:      Singlet-A      8.4907 eV  146.02 nm  f=0.0021  <S**2>=0.000
      11 -> 14        -0.15374
      13 -> 16         0.66840

 Excited State   6:      Singlet-A      9.9221 eV  124.96 nm  f=0.0334  <S**2>=0.000
       9 -> 15        -0.10520
      10 -> 14         0.59043
      12 -> 15         0.14959
      13 -> 18         0.27573
      13 -> 19         0.14139

 Excited State   7:      Singlet-A     10.2787 eV  120.62 nm  f=0.0006  <S**2>=0.000
      13 -> 17         0.63117
      13 -> 18         0.13514
      13 -> 19        -0.20732
      13 -> 21        -0.10390

 Excited State   8:      Singlet-A     10.5814 eV  117.17 nm  f=0.1510  <S**2>=0.000
       9 -> 15        -0.15837
      10 -> 14        -0.11492
      12 -> 15         0.58836
      12 -> 16        -0.10934
      12 -> 17         0.14763
      13 -> 18        -0.12754

 Excited State   9:      Singlet-A     10.8996 eV  113.75 nm  f=0.0105  <S**2>=0.000
      10 -> 15         0.12272
      13 -> 17         0.24328
      13 -> 18        -0.38566
      13 -> 19         0.48681

 Excited State  10:      Singlet-A     11.1440 eV  111.26 nm  f=0.1732  <S**2>=0.000
       9 -> 14        -0.18231
      10 -> 14        -0.30335
      12 -> 15         0.10934
      13 -> 18         0.46049
      13 -> 19         0.34540

 Excited State  11:      Singlet-A     11.2398 eV  110.31 nm  f=0.0642  <S**2>=0.000
      11 -> 15        -0.23668
      11 -> 18        -0.11157
      11 -> 19         0.14593
      12 -> 15         0.19897
      12 -> 16         0.45757
      12 -> 17        -0.33235

 Excited State  12:      Singlet-A     11.4224 eV  108.54 nm  f=0.0081  <S**2>=0.000
       8 -> 14         0.15386
       9 -> 14         0.53186
      10 -> 15         0.15028
      13 -> 19         0.11672
      13 -> 20        -0.34539

 Excited State  13:      Singlet-A     11.5163 eV  107.66 nm  f=0.1864  <S**2>=0.000
      11 -> 16         0.34976
      11 -> 18         0.13655
      11 -> 19        -0.17559
      12 -> 16         0.37079
      12 -> 17         0.27228
      12 -> 18         0.10742
      12 -> 19        -0.16991
      13 -> 20        -0.14202

 Excited State  14:      Singlet-A     11.5851 eV  107.02 nm  f=0.0326  <S**2>=0.000
       8 -> 14        -0.31386
       9 -> 14         0.37626
      10 -> 15        -0.12012
      12 -> 16         0.10407
      13 -> 20         0.41408

 Excited State  15:      Singlet-A     11.6488 eV  106.43 nm  f=0.0227  <S**2>=0.000
       8 -> 14         0.58736
      10 -> 15        -0.10258
      13 -> 20         0.32127

 The electronic state is 1-A.
 Alpha  occ. eigenvalues --   -3.73110  -1.12959  -0.80022  -0.77936  -0.76112
 Alpha  occ. eigenvalues --   -0.74814  -0.63970  -0.48877  -0.48090  -0.42266
 Alpha  occ. eigenvalues --   -0.39492  -0.35452  -0.25658
 Alpha virt. eigenvalues --    0.18829   0.27806   0.29907   0.37914   0.38782
 Alpha virt. eigenvalues --    0.39149   0.42545   0.46545   0.54646   0.57321
 Alpha virt. eigenvalues --    0.61105

 Mulliken charges:
               1
     1  C   -0.284500
     2  C   -1.516258
     3  O    2.886198
     4  C   -1.457720
     5  C   -0.196280
     6  H    0.119444
     7  H    0.153514
     8  H    0.168347
     9  H    0.127256
 Sum of Mulliken charges =   0.00000

 Dipole moment (field-independent basis, Debye):
    X=             -1.3522    Y=            -10.1206    Z=             -0.2793  Tot=             10.2144
 N-N= 1.025995788402D+02 E-N=-1.703736592623D+02  KE=-2.220806524331D+01
 Orbital energies and kinetic energies (alpha):
                                 1                 2
   1         O                -3.731102         -3.115178
   2         O                -1.129593         -1.166120
   3         O                -0.800217         -0.830364
   4         O                -0.779361         -0.868302
   5         O                -0.761116         -0.766123
   6         O                -0.748139         -0.838934
   7         O                -0.639700         -0.689004

 Normal termination of Gaussian 09 at Fri Dec 11 13:41:39 2015.
