 Gaussian 09, Revision D.01,
 Gaussian 09:  ES64L-G09RevD.01 24-Apr-2013

 ------------------------------------------------------------
 #P AM1(Input,print) CIS(Singlets,NStates=15) pop(full) force
 ------------------------------------------------------------

 -----------------
 AM1-Reparam Input
 -----------------
 Symbolic Z-matrix:
 Charge =  0 Multiplicity = 1

                         Standard orientation:
 ---------------------------------------------------------------------
 Center     Atomic      Atomic             Coordinates (Angstroms)
 Number     Number       Type             X           Y           Z
 ---------------------------------------------------------------------
      1          6           0       -0.695082    0.999306   -0.007815
      2          6           0       -1.097835   -0.365665    0.016671
      3          8           0       -0.007775   -1.141947    0.000639
      4          6           0        1.078678   -0.372664   -0.009648
      5          6           0        0.747365    0.946265   -0.004641
      6          1           0        1.357938    1.753186    0.037363
      7          1           0        1.990748   -0.858447    0.020310
      8          1           0       -2.098460   -0.798087   -0.038623
      9          1           0       -1.386778    1.795466    0.008438
 ---------------------------------------------------------------------

 SCF Done:  E(RAM1) =   1.36599202785     A.U. after   13 cycles

 Excitation energies and oscillator strengths:

 Excited State   1:      Singlet-A      6.0430 eV  205.17 nm  f=0.3222  <S**2>=0.000
      13 -> 14         0.69218
 This state for optimization and/or second-order correction.
 Total Energy, E(CIS) =   1.58806957958
 Copying the excited state density for this state as the 1-particle RhoCI density.

 Excited State   2:      Singlet-A      6.5315 eV  189.82 nm  f=0.0045  <S**2>=0.000
      12 -> 16         0.12096
      13 -> 15         0.64960
      13 -> 17         0.22819

 Excited State   3:      Singlet-A      6.9059 eV  179.53 nm  f=0.0000  <S**2>=0.000
      12 -> 15         0.17462
      13 -> 16         0.63924
      13 -> 18        -0.10541
      13 -> 21         0.15912
      13 -> 22         0.12083

 Excited State   4:      Singlet-A      7.4963 eV  165.39 nm  f=0.0006  <S**2>=0.000
       9 -> 14         0.10312
      11 -> 14         0.68744

 Excited State   5:      Singlet-A      7.9567 eV  155.82 nm  f=0.0124  <S**2>=0.000
      10 -> 14         0.15479
      12 -> 16        -0.13531
      13 -> 15        -0.19127
      13 -> 17         0.61365
      13 -> 22        -0.11816

 Excited State   6:      Singlet-A      8.1588 eV  151.96 nm  f=0.0025  <S**2>=0.000
      12 -> 15        -0.17864
      13 -> 17         0.16213
      13 -> 18        -0.27929
      13 -> 20        -0.18651
      13 -> 22         0.54685

 Excited State   7:      Singlet-A      8.3263 eV  148.91 nm  f=0.0131  <S**2>=0.000
      10 -> 14         0.61882
      12 -> 14        -0.28102
      13 -> 17        -0.14453

 Excited State   8:      Singlet-A      8.4094 eV  147.43 nm  f=0.0733  <S**2>=0.000
      10 -> 14         0.28596
      12 -> 14         0.60787
      13 -> 19         0.18212

 Excited State   9:      Singlet-A      8.8606 eV  139.93 nm  f=0.0003  <S**2>=0.000
      12 -> 15        -0.31374
      13 -> 18         0.12923
      13 -> 20         0.27915
      13 -> 21         0.54188

 Excited State  10:      Singlet-A      8.9796 eV  138.07 nm  f=0.0016  <S**2>=0.000
      13 -> 16         0.10694
      13 -> 18         0.61324
      13 -> 20        -0.16301
      13 -> 22         0.24357

 Excited State  11:      Singlet-A      9.1774 eV  135.10 nm  f=0.0053  <S**2>=0.000
      12 -> 15         0.50617
      12 -> 16        -0.13158
      12 -> 17         0.13799
      13 -> 16        -0.23309
      13 -> 21         0.31276
      13 -> 22         0.14406

 Excited State  12:      Singlet-A      9.3854 eV  132.10 nm  f=0.0633  <S**2>=0.000
      12 -> 15         0.14281
      12 -> 16         0.36179
      13 -> 20         0.47209
      13 -> 21        -0.18093
      13 -> 22         0.25312

 Excited State  13:      Singlet-A      9.7229 eV  127.52 nm  f=0.0100  <S**2>=0.000
       7 -> 15        -0.10097
      12 -> 16         0.52224
      13 -> 15        -0.17212
      13 -> 20        -0.33403
      13 -> 21         0.17043
      13 -> 22        -0.11047

 Excited State  14:      Singlet-A      9.7752 eV  126.84 nm  f=0.1271  <S**2>=0.000
      10 -> 15        -0.12700
      10 -> 17        -0.11708
      11 -> 15         0.14893
      12 -> 14        -0.17444
      13 -> 19         0.59432

 Excited State  15:      Singlet-A      9.9690 eV  124.37 nm  f=0.0817  <S**2>=0.000
       8 -> 15        -0.22293
       9 -> 16         0.12641
      10 -> 15         0.30684
      10 -> 17         0.27292
      11 -> 15         0.10507
      11 -> 16         0.35014
      11 -> 18        -0.17828
      11 -> 22         0.10814
      13 -> 19         0.17282

 The electronic state is 1-A.
 Alpha  occ. eigenvalues --   -1.90193  -1.18135  -0.96216  -0.79861  -0.77109
 Alpha  occ. eigenvalues --   -0.68163  -0.62171  -0.50903  -0.48051  -0.41482
 Alpha  occ. eigenvalues --   -0.39198  -0.37217  -0.26010
 Alpha virt. eigenvalues --    0.16404   0.21351   0.22692   0.28318   0.31031
 Alpha virt. eigenvalues --    0.31937   0.32879   0.32986   0.34378   0.41710
 Alpha virt. eigenvalues --    0.47796

 Mulliken charges:
               1
     1  C   -0.067070
     2  C   -1.609569
     3  O    2.807243
     4  C   -1.574934
     5  C   -0.038783
     6  H    0.066909
     7  H    0.166438
     8  H    0.179403
     9  H    0.070363
 Sum of Mulliken charges =   0.00000

 Dipole moment (field-independent basis, Debye):
    X=              0.0687    Y=             -8.9839    Z=             -0.0459  Tot=              8.9843
 N-N= 1.037557577222D+02 E-N=-1.701832096502D+02  KE=-1.590213503935D+01
 Orbital energies and kinetic energies (alpha):
                                 1                 2
   1         O                -1.901934         -1.402029
   2         O                -1.181352         -1.070326
   3         O                -0.962157         -0.872728
   4         O                -0.798613         -0.648812
   5         O                -0.771090         -0.694383
   6         O                -0.681628         -0.627852
   7         O                -0.621713         -0.538036

 Normal termination of Gaussian 09 at Tue Dec 15 17:08:09 2015.
