 Gaussian 09, Revision D.01,
 Gaussian 09:  ES64L-G09RevD.01 24-Apr-2013

 ------------------------------------------------------------
 #P AM1(Input,print) CIS(Singlets,NStates=15) pop(full) force
 ------------------------------------------------------------

 -----------------
 AM1-Reparam Input
 -----------------
 Symbolic Z-matrix:
 Charge =  0 Multiplicity = 1

                         Standard orientation:
 ---------------------------------------------------------------------
 Center     Atomic      Atomic             Coordinates (Angstroms)
 Number     Number       Type             X           Y           Z
 ---------------------------------------------------------------------
      1          6           0        0.906798    0.776835   -0.013504
      2          6           0        1.034385   -0.574751    0.020855
      3          8           0       -0.305036   -1.109669   -0.002194
      4          6           0       -1.147473   -0.105361   -0.002074
      5          6           0       -0.458687    1.060529   -0.015200
      6          1           0       -0.909003    2.133576    0.071905
      7          1           0       -2.221451   -0.316488    0.014679
      8          1           0        1.834847   -1.276483   -0.028184
      9          1           0        1.725766    1.393239    0.018693
 ---------------------------------------------------------------------

 SCF Done:  E(RAM1) =  -4.54689393961     A.U. after   14 cycles

 Excitation energies and oscillator strengths:

 Excited State   1:      Singlet-A      6.7244 eV  184.38 nm  f=0.3601  <S**2>=0.000
      13 -> 14         0.68459
 This state for optimization and/or second-order correction.
 Total Energy, E(CIS) =  -4.29977531761
 Copying the excited state density for this state as the 1-particle RhoCI density.

 Excited State   2:      Singlet-A      7.4122 eV  167.27 nm  f=0.0138  <S**2>=0.000
      12 -> 14         0.68224

 Excited State   3:      Singlet-A      8.0269 eV  154.46 nm  f=0.0113  <S**2>=0.000
      11 -> 14         0.69246

 Excited State   4:      Singlet-A      8.4173 eV  147.30 nm  f=0.0307  <S**2>=0.000
      13 -> 15         0.56203
      13 -> 16         0.24747
      13 -> 17        -0.29876
      13 -> 19        -0.10488

 Excited State   5:      Singlet-A      8.7785 eV  141.24 nm  f=0.0141  <S**2>=0.000
      13 -> 15        -0.11410
      13 -> 16         0.54995
      13 -> 19         0.34684
      13 -> 20         0.13146
      13 -> 22         0.15807

 Excited State   6:      Singlet-A      9.4523 eV  131.17 nm  f=0.0414  <S**2>=0.000
      10 -> 15        -0.10156
      13 -> 15         0.35246
      13 -> 17         0.51365
      13 -> 18         0.23450
      13 -> 19         0.12576
      13 -> 22         0.11440

 Excited State   7:      Singlet-A      9.7734 eV  126.86 nm  f=0.0043  <S**2>=0.000
      10 -> 16        -0.11107
      13 -> 15        -0.10150
      13 -> 17        -0.20943
      13 -> 18         0.54486
      13 -> 20        -0.31861
      13 -> 22         0.15096

 Excited State   8:      Singlet-A     10.1737 eV  121.87 nm  f=0.0014  <S**2>=0.000
      10 -> 15        -0.10357
      13 -> 15         0.10706
      13 -> 16        -0.32265
      13 -> 17        -0.27773
      13 -> 19         0.47497
      13 -> 20         0.18971
      13 -> 22         0.11713

 Excited State   9:      Singlet-A     10.2376 eV  121.11 nm  f=0.0310  <S**2>=0.000
      10 -> 14         0.56656
      11 -> 17         0.10233
      13 -> 21         0.34077

 Excited State  10:      Singlet-A     10.3801 eV  119.44 nm  f=0.0154  <S**2>=0.000
      10 -> 14        -0.13693
      11 -> 15        -0.12179
      11 -> 16        -0.10872
      11 -> 17         0.12463
      12 -> 15         0.15386
      12 -> 16         0.48267
      12 -> 18         0.28310
      12 -> 19         0.13169
      12 -> 22         0.13004
      13 -> 20        -0.10409

 Excited State  11:      Singlet-A     10.6588 eV  116.32 nm  f=0.0281  <S**2>=0.000
      12 -> 19         0.11650
      13 -> 18         0.32854
      13 -> 19        -0.16434
      13 -> 20         0.51130
      13 -> 22        -0.17269

 Excited State  12:      Singlet-A     10.7102 eV  115.76 nm  f=0.0419  <S**2>=0.000
      12 -> 15         0.45142
      12 -> 17        -0.30863
      12 -> 19        -0.32222
      12 -> 22        -0.14500
      13 -> 20         0.12699

 Excited State  13:      Singlet-A     11.0757 eV  111.94 nm  f=0.0575  <S**2>=0.000
       9 -> 14         0.56982
      10 -> 14        -0.13291
      11 -> 17        -0.12025
      13 -> 21         0.26863

 Excited State  14:      Singlet-A     11.0974 eV  111.72 nm  f=0.2732  <S**2>=0.000
       9 -> 14        -0.25328
      11 -> 15         0.15978
      11 -> 17        -0.28084
      11 -> 18        -0.22860
      12 -> 17         0.22390
      12 -> 18         0.35615
      12 -> 20         0.14830
      13 -> 21         0.10736

 Excited State  15:      Singlet-A     11.2432 eV  110.27 nm  f=0.0554  <S**2>=0.000
       9 -> 14        -0.24671
      10 -> 14        -0.25167
      12 -> 15        -0.15178
      12 -> 17        -0.23938
      12 -> 18        -0.15280
      13 -> 21         0.46972

 The electronic state is 1-A.
 Alpha  occ. eigenvalues --   -3.03580  -1.25762  -0.98304  -0.95244  -0.93828
 Alpha  occ. eigenvalues --   -0.87458  -0.81661  -0.66305  -0.62947  -0.60120
 Alpha  occ. eigenvalues --   -0.55185  -0.53104  -0.44197
 Alpha virt. eigenvalues --    0.02023   0.09954   0.13189   0.14384   0.16474
 Alpha virt. eigenvalues --    0.19074   0.19542   0.20453   0.23337   0.29460
 Alpha virt. eigenvalues --    0.35621

 Mulliken charges:
               1
     1  C   -0.460440
     2  C   -1.924291
     3  O    3.028275
     4  C   -1.932590
     5  C   -0.556659
     6  H    0.454843
     7  H    0.488993
     8  H    0.466629
     9  H    0.435240
 Sum of Mulliken charges =   0.00000

 Dipole moment (field-independent basis, Debye):
    X=             -3.4243    Y=             -9.4028    Z=             -0.0008  Tot=             10.0069
 N-N= 1.046530021796D+02 E-N=-1.702679679442D+02  KE=-2.357793298087D+01
 Orbital energies and kinetic energies (alpha):
                                 1                 2
   1         O                -3.035801         -2.309918
   2         O                -1.257618         -1.230900
   3         O                -0.983043         -0.940730
   4         O                -0.952437         -0.967675
   5         O                -0.938282         -0.962118
   6         O                -0.874576         -0.898639
   7         O                -0.816609         -0.790167

 Normal termination of Gaussian 09 at Fri Dec 11 13:41:15 2015.
