 Gaussian 09, Revision D.01,
 Gaussian 09:  ES64L-G09RevD.01 24-Apr-2013

 ------------------------------------------------------------
 #P AM1(Input,print) CIS(Singlets,NStates=15) pop(full) force
 ------------------------------------------------------------

 -----------------
 AM1-Reparam Input
 -----------------
 Symbolic Z-matrix:
 Charge =  0 Multiplicity = 1

                         Standard orientation:
 ---------------------------------------------------------------------
 Center     Atomic      Atomic             Coordinates (Angstroms)
 Number     Number       Type             X           Y           Z
 ---------------------------------------------------------------------
      1          6           0        0.699464    0.957538   -0.011056
      2          6           0        1.134713   -0.301575   -0.003416
      3          8           0        0.025016   -1.146156   -0.012566
      4          6           0       -1.088091   -0.362235    0.026599
      5          6           0       -0.773046    0.941971    0.004832
      6          1           0       -1.398015    1.705741   -0.031000
      7          1           0       -2.025956   -0.964620   -0.042853
      8          1           0        2.075277   -0.823505    0.056105
      9          1           0        1.310319    1.837434    0.016522
 ---------------------------------------------------------------------

 SCF Done:  E(RAM1) =   2.62700562522     A.U. after   13 cycles

 Excitation energies and oscillator strengths:

 Excited State   1:      Singlet-A      4.8532 eV  255.47 nm  f=0.3699  <S**2>=0.000
      13 -> 14         0.69947
 This state for optimization and/or second-order correction.
 Total Energy, E(CIS) =   2.80535669960
 Copying the excited state density for this state as the 1-particle RhoCI density.

 Excited State   2:      Singlet-A      5.8192 eV  213.06 nm  f=0.0003  <S**2>=0.000
      13 -> 15         0.66296
      13 -> 16        -0.10257
      13 -> 17         0.15482
      13 -> 19         0.11445

 Excited State   3:      Singlet-A      6.3395 eV  195.57 nm  f=0.0024  <S**2>=0.000
      12 -> 14        -0.37988
      13 -> 15         0.10628
      13 -> 16         0.55874
      13 -> 18        -0.11542

 Excited State   4:      Singlet-A      6.3988 eV  193.76 nm  f=0.0009  <S**2>=0.000
      12 -> 14         0.58741
      13 -> 16         0.36683

 Excited State   5:      Singlet-A      7.4887 eV  165.56 nm  f=0.0052  <S**2>=0.000
      10 -> 14         0.62460
      13 -> 17         0.30342

 Excited State   6:      Singlet-A      7.5548 eV  164.11 nm  f=0.0008  <S**2>=0.000
      10 -> 14        -0.31580
      13 -> 15        -0.10296
      13 -> 17         0.59156

 Excited State   7:      Singlet-A      8.4579 eV  146.59 nm  f=0.1227  <S**2>=0.000
      11 -> 14         0.69511

 Excited State   8:      Singlet-A      9.0472 eV  137.04 nm  f=0.0136  <S**2>=0.000
      11 -> 15         0.24966
      13 -> 18         0.60582
      13 -> 19        -0.15991

 Excited State   9:      Singlet-A      9.1617 eV  135.33 nm  f=0.1431  <S**2>=0.000
       8 -> 16         0.10628
       9 -> 15         0.10247
      10 -> 16        -0.10345
      10 -> 18         0.12499
      12 -> 15         0.54628
      12 -> 16        -0.18513
      12 -> 17         0.27464

 Excited State  10:      Singlet-A      9.2945 eV  133.40 nm  f=0.0009  <S**2>=0.000
      11 -> 16        -0.21349
      13 -> 18         0.15031
      13 -> 19         0.63606

 Excited State  11:      Singlet-A      9.7715 eV  126.88 nm  f=0.1933  <S**2>=0.000
      10 -> 15        -0.10926
      10 -> 16        -0.33483
      10 -> 18         0.18708
      12 -> 15        -0.14589
      12 -> 16         0.37900
      12 -> 17         0.34306
      12 -> 19        -0.13078

 Excited State  12:      Singlet-A      9.8191 eV  126.27 nm  f=0.0449  <S**2>=0.000
      10 -> 15         0.38548
      12 -> 15         0.24323
      12 -> 16         0.45069
      12 -> 17        -0.17064
      12 -> 18        -0.11279

 Excited State  13:      Singlet-A     10.0101 eV  123.86 nm  f=0.0014  <S**2>=0.000
       7 -> 15        -0.13409
      11 -> 15         0.60705
      13 -> 15        -0.13587
      13 -> 18        -0.19910
      13 -> 19         0.11508

 Excited State  14:      Singlet-A     10.3304 eV  120.02 nm  f=0.0105  <S**2>=0.000
       8 -> 15         0.11568
       9 -> 14        -0.17309
       9 -> 15         0.18682
      10 -> 15        -0.31979
      10 -> 19        -0.14899
      11 -> 15        -0.11757
      11 -> 16         0.36560
      12 -> 15         0.11342
      12 -> 16         0.16471
      12 -> 17        -0.15421
      13 -> 18         0.12019

 Excited State  15:      Singlet-A     10.3882 eV  119.35 nm  f=0.0050  <S**2>=0.000
       9 -> 14        -0.19892
       9 -> 15        -0.17962
      10 -> 15         0.28202
      10 -> 19         0.12536
      11 -> 16         0.43233
      12 -> 16        -0.11319
      12 -> 17         0.19734
      13 -> 18         0.10435

 The electronic state is 1-A.
 Alpha  occ. eigenvalues --   -1.84698  -1.12234  -0.88231  -0.80192  -0.74732
 Alpha  occ. eigenvalues --   -0.67042  -0.63036  -0.56217  -0.54977  -0.45497
 Alpha  occ. eigenvalues --   -0.45269  -0.42082  -0.28995
 Alpha virt. eigenvalues --    0.08380   0.15514   0.17579   0.25278   0.28382
 Alpha virt. eigenvalues --    0.29624   0.36668   0.40344   0.46917   0.54532
 Alpha virt. eigenvalues --    0.58623

 Mulliken charges:
               1
     1  C   -0.187604
     2  C   -1.963297
     3  O    3.438767
     4  C   -1.980377
     5  C   -0.210409
     6  H    0.179576
     7  H    0.269726
     8  H    0.259513
     9  H    0.194106
 Sum of Mulliken charges =   0.00000

 Dipole moment (field-independent basis, Debye):
    X=              0.1214    Y=            -11.9254    Z=             -0.3715  Tot=             11.9318
 N-N= 1.038964974227D+02 E-N=-1.693171436712D+02  KE=-1.435783772071D+01
 Orbital energies and kinetic energies (alpha):
                                 1                 2
   1         O                -1.846975         -1.234893
   2         O                -1.122340         -0.963542
   3         O                -0.882305         -0.796226
   4         O                -0.801916         -0.541701
   5         O                -0.747321         -0.614689
   6         O                -0.670417         -0.552024
   7         O                -0.630361         -0.492476

 Normal termination of Gaussian 09 at Tue Dec 15 17:07:46 2015.
