 Gaussian 09, Revision D.01,
 Gaussian 09:  ES64L-G09RevD.01 24-Apr-2013

 ------------------------------------------------------------
 #P AM1(Input,print) CIS(Singlets,NStates=15) pop(full) force
 ------------------------------------------------------------

 -----------------
 AM1-Reparam Input
 -----------------
 Symbolic Z-matrix:
 Charge =  0 Multiplicity = 1

                         Standard orientation:
 ---------------------------------------------------------------------
 Center     Atomic      Atomic             Coordinates (Angstroms)
 Number     Number       Type             X           Y           Z
 ---------------------------------------------------------------------
      1          6           0        0.222048    1.174549   -0.022903
      2          6           0        1.125406    0.115966    0.022755
      3          8           0        0.481424   -1.064922   -0.017949
      4          6           0       -0.810911   -0.774028    0.015656
      5          6           0       -1.055215    0.593731   -0.003601
      6          1           0       -1.979509    1.086894    0.028569
      7          1           0       -1.545866   -1.581484    0.001573
      8          1           0        2.236428    0.095079    0.020905
      9          1           0        0.549588    2.257576    0.021105
 ---------------------------------------------------------------------

 SCF Done:  E(RAM1) =   1.66776306840     A.U. after   14 cycles

 Excitation energies and oscillator strengths:

 Excited State   1:      Singlet-A      5.6298 eV  220.23 nm  f=0.3295  <S**2>=0.000
      13 -> 14         0.69241
 This state for optimization and/or second-order correction.
 Total Energy, E(CIS) =   1.87465568985
 Copying the excited state density for this state as the 1-particle RhoCI density.

 Excited State   2:      Singlet-A      6.5000 eV  190.75 nm  f=0.0056  <S**2>=0.000
      11 -> 16        -0.10614
      13 -> 15         0.64241
      13 -> 17        -0.23991

 Excited State   3:      Singlet-A      6.7969 eV  182.41 nm  f=0.0001  <S**2>=0.000
      11 -> 15        -0.14255
      13 -> 16         0.63983
      13 -> 18        -0.10141
      13 -> 19        -0.15638
      13 -> 20         0.11524

 Excited State   4:      Singlet-A      7.3128 eV  169.54 nm  f=0.0012  <S**2>=0.000
      11 -> 14         0.28065
      12 -> 14         0.60793
      13 -> 21        -0.14445

 Excited State   5:      Singlet-A      7.8496 eV  157.95 nm  f=0.0080  <S**2>=0.000
      10 -> 14        -0.12768
      12 -> 14         0.13393
      13 -> 15         0.13893
      13 -> 17         0.44933
      13 -> 19         0.17127
      13 -> 21         0.41229

 Excited State   6:      Singlet-A      7.8931 eV  157.08 nm  f=0.0148  <S**2>=0.000
      10 -> 14         0.19850
      12 -> 14         0.10138
      13 -> 15        -0.15666
      13 -> 17        -0.41181
      13 -> 18        -0.15291
      13 -> 19         0.11034
      13 -> 20        -0.15056
      13 -> 21         0.41413

 Excited State   7:      Singlet-A      8.1116 eV  152.85 nm  f=0.0003  <S**2>=0.000
      10 -> 14         0.64624
      11 -> 14         0.12634
      13 -> 17         0.21715

 Excited State   8:      Singlet-A      8.5071 eV  145.74 nm  f=0.0009  <S**2>=0.000
      11 -> 15        -0.11093
      13 -> 16         0.14674
      13 -> 18         0.56997
      13 -> 19         0.31745
      13 -> 20        -0.13146

 Excited State   9:      Singlet-A      8.5944 eV  144.26 nm  f=0.1049  <S**2>=0.000
      10 -> 14        -0.11280
      11 -> 14         0.61425
      12 -> 14        -0.29246

 Excited State  10:      Singlet-A      8.7585 eV  141.56 nm  f=0.0109  <S**2>=0.000
      13 -> 18        -0.33976
      13 -> 19         0.43817
      13 -> 20        -0.24449
      13 -> 21        -0.34104

 Excited State  11:      Singlet-A      9.1731 eV  135.16 nm  f=0.0801  <S**2>=0.000
      13 -> 19         0.33513
      13 -> 20         0.59821

 Excited State  12:      Singlet-A      9.4087 eV  131.78 nm  f=0.0031  <S**2>=0.000
       8 -> 15        -0.13242
      10 -> 15         0.21856
      10 -> 17        -0.22362
      11 -> 15         0.42825
      11 -> 17        -0.15306
      12 -> 15        -0.12518
      12 -> 16        -0.19302
      12 -> 21         0.14590
      13 -> 16         0.14132

 Excited State  13:      Singlet-A      9.4719 eV  130.90 nm  f=0.0023  <S**2>=0.000
       8 -> 15         0.12879
      10 -> 15        -0.21872
      10 -> 17         0.20375
      11 -> 15         0.34704
      12 -> 15        -0.30551
      12 -> 16         0.20748
      12 -> 17         0.12823
      12 -> 21        -0.12536
      13 -> 16         0.14447

 Excited State  14:      Singlet-A      9.8404 eV  125.99 nm  f=0.0018  <S**2>=0.000
       7 -> 15         0.13268
      11 -> 16         0.57157
      12 -> 16        -0.27117
      13 -> 15         0.17777

 Excited State  15:      Singlet-A      9.9256 eV  124.91 nm  f=0.1153  <S**2>=0.000
       8 -> 16         0.18187
      10 -> 18        -0.10048
      10 -> 21        -0.12016
      11 -> 15         0.26605
      12 -> 15         0.47110
      12 -> 18        -0.14047
      12 -> 19         0.13872
      12 -> 20         0.10054

 The electronic state is 1-A.
 Alpha  occ. eigenvalues --   -1.91477  -1.21912  -0.97857  -0.81904  -0.79859
 Alpha  occ. eigenvalues --   -0.68347  -0.63379  -0.53563  -0.51485  -0.43621
 Alpha  occ. eigenvalues --   -0.41525  -0.41321  -0.28932
 Alpha virt. eigenvalues --    0.12895   0.17853   0.18690   0.24371   0.26530
 Alpha virt. eigenvalues --    0.27856   0.29075   0.29912   0.38775   0.47788
 Alpha virt. eigenvalues --    0.52232

 Mulliken charges:
               1
     1  C   -0.094293
     2  C   -1.961651
     3  O    3.176199
     4  C   -1.971783
     5  C   -0.116819
     6  H    0.176651
     7  H    0.314857
     8  H    0.304390
     9  H    0.172450
 Sum of Mulliken charges =   0.00000

 Dipole moment (field-independent basis, Debye):
    X=              4.0546    Y=             -9.0688    Z=             -0.4766  Tot=              9.9454
 N-N= 1.039187440485D+02 E-N=-1.694653192885D+02  KE=-1.573301896154D+01
 Orbital energies and kinetic energies (alpha):
                                 1                 2
   1         O                -1.914766         -1.396832
   2         O                -1.219116         -1.105273
   3         O                -0.978571         -0.898948
   4         O                -0.819037         -0.634349
   5         O                -0.798588         -0.692142
   6         O                -0.683473         -0.589619
   7         O                -0.633788         -0.513407

 Normal termination of Gaussian 09 at Tue Dec 15 17:07:05 2015.
