 Gaussian 09, Revision D.01,
 Gaussian 09:  ES64L-G09RevD.01 24-Apr-2013

 ------------------------------------------------------------
 #P AM1(Input,print) CIS(Singlets,NStates=15) pop(full) force
 ------------------------------------------------------------

 -----------------
 AM1-Reparam Input
 -----------------
 Symbolic Z-matrix:
 Charge =  0 Multiplicity = 1

                         Standard orientation:
 ---------------------------------------------------------------------
 Center     Atomic      Atomic             Coordinates (Angstroms)
 Number     Number       Type             X           Y           Z
 ---------------------------------------------------------------------
      1          6           0       -0.854886    0.855175    0.007371
      2          6           0       -1.039381   -0.523795   -0.018260
      3          8           0        0.161980   -1.110345    0.011342
      4          6           0        1.149741   -0.200510   -0.033841
      5          6           0        0.565601    1.020617    0.019370
      6          1           0        1.073919    1.971679   -0.025861
      7          1           0        2.154652   -0.508292    0.067459
      8          1           0       -1.846721   -1.133546    0.036402
      9          1           0       -1.604135    1.643992   -0.016579
 ---------------------------------------------------------------------

 SCF Done:  E(RAM1) =   1.71287563822     A.U. after   13 cycles

 Excitation energies and oscillator strengths:

 Excited State   1:      Singlet-A      5.5020 eV  225.34 nm  f=0.3697  <S**2>=0.000
      13 -> 14         0.69390
 This state for optimization and/or second-order correction.
 Total Energy, E(CIS) =   1.91507115936
 Copying the excited state density for this state as the 1-particle RhoCI density.

 Excited State   2:      Singlet-A      6.9882 eV  177.42 nm  f=0.0005  <S**2>=0.000
      12 -> 14         0.70078

 Excited State   3:      Singlet-A      7.4693 eV  165.99 nm  f=0.0094  <S**2>=0.000
      13 -> 15         0.61032
      13 -> 16         0.27873
      13 -> 17        -0.16734

 Excited State   4:      Singlet-A      7.5849 eV  163.46 nm  f=0.0000  <S**2>=0.000
      10 -> 15        -0.10390
      13 -> 15        -0.27737
      13 -> 16         0.59705
      13 -> 18         0.15671
      13 -> 19         0.15737

 Excited State   5:      Singlet-A      7.9470 eV  156.01 nm  f=0.0052  <S**2>=0.000
      11 -> 14         0.69883

 Excited State   6:      Singlet-A      8.9399 eV  138.69 nm  f=0.0000  <S**2>=0.000
      13 -> 16        -0.14396
      13 -> 17        -0.17546
      13 -> 18         0.59390
      13 -> 21        -0.27942

 Excited State   7:      Singlet-A      9.3615 eV  132.44 nm  f=0.1110  <S**2>=0.000
      10 -> 14         0.68539

 Excited State   8:      Singlet-A      9.5284 eV  130.12 nm  f=0.0075  <S**2>=0.000
      10 -> 16        -0.12800
      13 -> 15         0.13081
      13 -> 17         0.64289
      13 -> 18         0.18413

 Excited State   9:      Singlet-A     10.0118 eV  123.84 nm  f=0.0069  <S**2>=0.000
       9 -> 16         0.10076
      11 -> 15        -0.22692
      11 -> 17         0.20066
      11 -> 18         0.10406
      12 -> 16         0.36220
      12 -> 17        -0.13641
      12 -> 18         0.31689
      12 -> 21        -0.10253
      13 -> 19         0.25669

 Excited State  10:      Singlet-A     10.0209 eV  123.73 nm  f=0.0016  <S**2>=0.000
      11 -> 15         0.11677
      12 -> 16        -0.13495
      12 -> 18        -0.13688
      13 -> 16        -0.11464
      13 -> 19         0.61574

 Excited State  11:      Singlet-A     10.4769 eV  118.34 nm  f=0.1061  <S**2>=0.000
      11 -> 15        -0.17322
      11 -> 16         0.11533
      12 -> 15         0.61020
      12 -> 16        -0.15477
      12 -> 17        -0.12837

 Excited State  12:      Singlet-A     10.6943 eV  115.94 nm  f=0.0319  <S**2>=0.000
      13 -> 18         0.24106
      13 -> 20        -0.37303
      13 -> 21         0.50941

 Excited State  13:      Singlet-A     10.7629 eV  115.20 nm  f=0.1916  <S**2>=0.000
      11 -> 15         0.27974
      11 -> 16         0.27493
      11 -> 17        -0.14969
      12 -> 15         0.16544
      12 -> 16         0.45754
      12 -> 18        -0.12721
      12 -> 19         0.14219
      13 -> 20         0.11037

 Excited State  14:      Singlet-A     10.8164 eV  114.63 nm  f=0.0811  <S**2>=0.000
      13 -> 18         0.12336
      13 -> 20         0.55980
      13 -> 21         0.36170

 Excited State  15:      Singlet-A     11.1134 eV  111.56 nm  f=0.0002  <S**2>=0.000
       9 -> 14         0.67978
      13 -> 21         0.12400

 The electronic state is 1-A.
 Alpha  occ. eigenvalues --   -1.92280  -1.17433  -0.93841  -0.82969  -0.79280
 Alpha  occ. eigenvalues --   -0.70691  -0.68460  -0.58893  -0.55914  -0.48077
 Alpha  occ. eigenvalues --   -0.46062  -0.43050  -0.31945
 Alpha virt. eigenvalues --    0.09285   0.19046   0.19537   0.26520   0.27282
 Alpha virt. eigenvalues --    0.29366   0.31242   0.33607   0.35190   0.43093
 Alpha virt. eigenvalues --    0.48116

 Mulliken charges:
               1
     1  C   -0.167302
     2  C   -2.044796
     3  O    3.311446
     4  C   -2.038817
     5  C   -0.165998
     6  H    0.215788
     7  H    0.343717
     8  H    0.331010
     9  H    0.214953
 Sum of Mulliken charges =   0.00000

 Dipole moment (field-independent basis, Debye):
    X=              1.5980    Y=             -9.5567    Z=              0.7821  Tot=              9.7209
 N-N= 1.041782853997D+02 E-N=-1.696229257199D+02  KE=-1.552997836773D+01
 Orbital energies and kinetic energies (alpha):
                                 1                 2
   1         O                -1.922803         -1.394187
   2         O                -1.174327         -1.037256
   3         O                -0.938410         -0.878862
   4         O                -0.829694         -0.584914
   5         O                -0.792801         -0.705741
   6         O                -0.706910         -0.588245
   7         O                -0.684600         -0.542225

 Normal termination of Gaussian 09 at Tue Dec 15 17:09:42 2015.
