 Gaussian 09, Revision D.01,
 Gaussian 09:  ES64L-G09RevD.01 24-Apr-2013

 ------------------------------------------------------------
 #P AM1(Input,print) CIS(Singlets,NStates=15) pop(full) force
 ------------------------------------------------------------

 -----------------
 AM1-Reparam Input
 -----------------
 Symbolic Z-matrix:
 Charge =  0 Multiplicity = 1

                         Standard orientation:
 ---------------------------------------------------------------------
 Center     Atomic      Atomic             Coordinates (Angstroms)
 Number     Number       Type             X           Y           Z
 ---------------------------------------------------------------------
      1          6           0        1.041420    0.649805   -0.038434
      2          6           0        0.885524   -0.662698    0.043344
      3          8           0       -0.430291   -1.099748   -0.015550
      4          6           0       -1.099306    0.047668   -0.016891
      5          6           0       -0.381449    1.131555    0.027832
      6          1           0       -0.679998    2.150430    0.006740
      7          1           0       -2.171500   -0.081625    0.031763
      8          1           0        1.677080   -1.468754   -0.000150
      9          1           0        1.939605    1.199960   -0.009059
 ---------------------------------------------------------------------

 SCF Done:  E(RAM1) =   2.17350336066     A.U. after   13 cycles

 Excitation energies and oscillator strengths:

 Excited State   1:      Singlet-A      5.1053 eV  242.85 nm  f=0.3511  <S**2>=0.000
      13 -> 14         0.69682
 This state for optimization and/or second-order correction.
 Total Energy, E(CIS) =   2.36112127441
 Copying the excited state density for this state as the 1-particle RhoCI density.

 Excited State   2:      Singlet-A      5.6565 eV  219.19 nm  f=0.0006  <S**2>=0.000
      13 -> 15         0.68166
      13 -> 18         0.10538

 Excited State   3:      Singlet-A      5.9639 eV  207.89 nm  f=0.0005  <S**2>=0.000
      13 -> 16         0.67684
      13 -> 17        -0.12291

 Excited State   4:      Singlet-A      6.8693 eV  180.49 nm  f=0.0008  <S**2>=0.000
      12 -> 14         0.70204

 Excited State   5:      Singlet-A      7.6074 eV  162.98 nm  f=0.0002  <S**2>=0.000
      13 -> 17         0.26437
      13 -> 18         0.56208
      13 -> 19        -0.15562
      13 -> 22        -0.25056

 Excited State   6:      Singlet-A      8.0774 eV  153.50 nm  f=0.0135  <S**2>=0.000
      10 -> 14         0.22467
      13 -> 17         0.59841
      13 -> 18        -0.24677

 Excited State   7:      Singlet-A      8.3889 eV  147.80 nm  f=0.0023  <S**2>=0.000
      10 -> 14         0.65818
      13 -> 17        -0.20590

 Excited State   8:      Singlet-A      8.7252 eV  142.10 nm  f=0.0003  <S**2>=0.000
      13 -> 18         0.17629
      13 -> 19         0.66144
      13 -> 22        -0.10153

 Excited State   9:      Singlet-A      8.8692 eV  139.79 nm  f=0.0365  <S**2>=0.000
      11 -> 14         0.60164
      12 -> 15        -0.15937
      12 -> 16        -0.14186
      13 -> 20        -0.21783

 Excited State  10:      Singlet-A      9.1285 eV  135.82 nm  f=0.2250  <S**2>=0.000
       9 -> 15         0.12157
       9 -> 16         0.11788
      12 -> 15         0.53858
      12 -> 16        -0.30821
      12 -> 18         0.17073

 Excited State  11:      Singlet-A      9.3804 eV  132.17 nm  f=0.0051  <S**2>=0.000
      13 -> 18         0.25661
      13 -> 21        -0.21620
      13 -> 22         0.61111

 Excited State  12:      Singlet-A      9.6078 eV  129.05 nm  f=0.0845  <S**2>=0.000
      11 -> 15         0.10007
      12 -> 15        -0.17786
      12 -> 16        -0.12763
      13 -> 20         0.27111
      13 -> 21         0.54677
      13 -> 22         0.18671

 Excited State  13:      Singlet-A      9.6889 eV  127.96 nm  f=0.0887  <S**2>=0.000
       9 -> 16        -0.10134
      10 -> 15        -0.12534
      11 -> 14         0.20413
      11 -> 15         0.10414
      12 -> 15         0.28614
      12 -> 16         0.49887
      13 -> 21         0.21776

 Excited State  14:      Singlet-A      9.9507 eV  124.60 nm  f=0.0903  <S**2>=0.000
      11 -> 14         0.19524
      11 -> 15         0.28101
      13 -> 20         0.51878
      13 -> 21        -0.25662

 Excited State  15:      Singlet-A      9.9895 eV  124.11 nm  f=0.0568  <S**2>=0.000
       7 -> 15        -0.12660
      11 -> 14        -0.14153
      11 -> 15         0.57974
      13 -> 20        -0.28908

 The electronic state is 1-A.
 Alpha  occ. eigenvalues --   -1.94100  -1.19173  -0.93837  -0.80801  -0.77137
 Alpha  occ. eigenvalues --   -0.69843  -0.66169  -0.52843  -0.52417  -0.44832
 Alpha  occ. eigenvalues --   -0.44150  -0.39806  -0.26401
 Alpha virt. eigenvalues --    0.12267   0.16758   0.17890   0.27950   0.28758
 Alpha virt. eigenvalues --    0.30588   0.32200   0.32757   0.34009   0.41217
 Alpha virt. eigenvalues --    0.44163

 Mulliken charges:
               1
     1  C   -0.129310
     2  C   -1.845936
     3  O    3.180710
     4  C   -1.836486
     5  C   -0.192590
     6  H    0.151915
     7  H    0.261399
     8  H    0.262757
     9  H    0.147541
 Sum of Mulliken charges =   0.00000

 Dipole moment (field-independent basis, Debye):
    X=             -4.2462    Y=            -10.8568    Z=             -0.3848  Tot=             11.6640
 N-N= 1.043326029923D+02 E-N=-1.697484063499D+02  KE=-1.533960112118D+01
 Orbital energies and kinetic energies (alpha):
                                 1                 2
   1         O                -1.940998         -1.366977
   2         O                -1.191732         -1.061147
   3         O                -0.938373         -0.897542
   4         O                -0.808006         -0.569078
   5         O                -0.771370         -0.670874
   6         O                -0.698434         -0.573205
   7         O                -0.661693         -0.531109

 Normal termination of Gaussian 09 at Tue Dec 15 17:08:42 2015.
