 Gaussian 09, Revision D.01,
 Gaussian 09:  ES64L-G09RevD.01 24-Apr-2013

 ------------------------------------------------------------
 #P AM1(Input,print) CIS(Singlets,NStates=15) pop(full) force
 ------------------------------------------------------------

 -----------------
 AM1-Reparam Input
 -----------------
 Symbolic Z-matrix:
 Charge =  0 Multiplicity = 1

                         Standard orientation:
 ---------------------------------------------------------------------
 Center     Atomic      Atomic             Coordinates (Angstroms)
 Number     Number       Type             X           Y           Z
 ---------------------------------------------------------------------
      1          6           0       -1.066028    0.549571    0.013166
      2          6           0       -0.878971   -0.796044   -0.016967
      3          8           0        0.582850   -1.035453    0.006998
      4          6           0        1.153102    0.178886   -0.007447
      5          6           0        0.175993    1.158476   -0.003216
      6          1           0        0.382676    2.257368   -0.024410
      7          1           0        2.218832    0.183356    0.032427
      8          1           0       -1.469872   -1.686384    0.003517
      9          1           0       -2.099014    0.983952    0.019260
 ---------------------------------------------------------------------

 SCF Done:  E(RAM1) =   2.10861411747     A.U. after   13 cycles

 Excitation energies and oscillator strengths:

 Excited State   1:      Singlet-A      5.6582 eV  219.12 nm  f=0.3193  <S**2>=0.000
      13 -> 14         0.69216
 This state for optimization and/or second-order correction.
 Total Energy, E(CIS) =   2.31654847709
 Copying the excited state density for this state as the 1-particle RhoCI density.

 Excited State   2:      Singlet-A      6.4429 eV  192.44 nm  f=0.0017  <S**2>=0.000
      10 -> 15         0.12655
      13 -> 15         0.66542
      13 -> 17        -0.14516

 Excited State   3:      Singlet-A      7.1163 eV  174.23 nm  f=0.0008  <S**2>=0.000
      10 -> 16        -0.13166
      13 -> 16         0.65904
      13 -> 21         0.11179

 Excited State   4:      Singlet-A      7.5367 eV  164.51 nm  f=0.0001  <S**2>=0.000
      12 -> 14         0.69410

 Excited State   5:      Singlet-A      7.9187 eV  156.57 nm  f=0.0077  <S**2>=0.000
      11 -> 14         0.68417
      13 -> 17        -0.12929

 Excited State   6:      Singlet-A      8.3102 eV  149.19 nm  f=0.0069  <S**2>=0.000
      10 -> 16        -0.11931
      11 -> 14         0.13391
      13 -> 17         0.60595
      13 -> 18         0.23661
      13 -> 22        -0.11901

 Excited State   7:      Singlet-A      8.4350 eV  146.99 nm  f=0.0018  <S**2>=0.000
      13 -> 17        -0.25065
      13 -> 18         0.51958
      13 -> 21        -0.14480
      13 -> 22        -0.33637

 Excited State   8:      Singlet-A      9.0475 eV  137.04 nm  f=0.0367  <S**2>=0.000
      10 -> 14         0.61734
      13 -> 19        -0.26808

 Excited State   9:      Singlet-A      9.2097 eV  134.62 nm  f=0.0002  <S**2>=0.000
      13 -> 18         0.27239
      13 -> 20         0.53526
      13 -> 21         0.27132
      13 -> 22         0.15219

 Excited State  10:      Singlet-A      9.5739 eV  129.50 nm  f=0.0194  <S**2>=0.000
      13 -> 18         0.28596
      13 -> 20        -0.36983
      13 -> 21         0.22208
      13 -> 22         0.45922

 Excited State  11:      Singlet-A      9.7406 eV  127.29 nm  f=0.0629  <S**2>=0.000
       9 -> 15        -0.12532
      10 -> 14         0.11508
      11 -> 15        -0.20158
      11 -> 16        -0.12193
      11 -> 17         0.23374
      12 -> 15        -0.16764
      12 -> 18        -0.19667
      13 -> 19         0.48944

 Excited State  12:      Singlet-A      9.8538 eV  125.82 nm  f=0.0319  <S**2>=0.000
       8 -> 15         0.10151
      10 -> 15         0.20258
      11 -> 15        -0.28416
      12 -> 15         0.51043
      13 -> 19         0.17892
      13 -> 21        -0.10963

 Excited State  13:      Singlet-A      9.9232 eV  124.94 nm  f=0.1590  <S**2>=0.000
       9 -> 15         0.10529
      10 -> 14         0.26538
      10 -> 15        -0.12946
      11 -> 15         0.22426
      11 -> 16         0.19437
      11 -> 17        -0.25983
      12 -> 18         0.21634
      13 -> 19         0.35136
      13 -> 21         0.10646

 Excited State  14:      Singlet-A      9.9689 eV  124.37 nm  f=0.0711  <S**2>=0.000
      10 -> 15         0.39451
      11 -> 15         0.17773
      12 -> 15        -0.19715
      13 -> 21        -0.39301
      13 -> 22         0.21291

 Excited State  15:      Singlet-A     10.1167 eV  122.55 nm  f=0.0335  <S**2>=0.000
       7 -> 15        -0.10545
      10 -> 15         0.44780
      10 -> 16         0.10666
      13 -> 15        -0.12215
      13 -> 20        -0.17456
      13 -> 21         0.36762
      13 -> 22        -0.27164

 The electronic state is 1-A.
 Alpha  occ. eigenvalues --   -1.92192  -1.18810  -0.91983  -0.80127  -0.77939
 Alpha  occ. eigenvalues --   -0.68538  -0.64776  -0.55335  -0.53584  -0.43724
 Alpha  occ. eigenvalues --   -0.42528  -0.41423  -0.28960
 Alpha virt. eigenvalues --    0.13050   0.17356   0.21012   0.25358   0.27554
 Alpha virt. eigenvalues --    0.29444   0.29931   0.31866   0.33324   0.37859
 Alpha virt. eigenvalues --    0.41671

 Mulliken charges:
               1
     1  C   -0.062163
     2  C   -1.863086
     3  O    3.215153
     4  C   -1.893730
     5  C   -0.220413
     6  H    0.163896
     7  H    0.265171
     8  H    0.242134
     9  H    0.153039
 Sum of Mulliken charges =   0.00000

 Dipole moment (field-independent basis, Debye):
    X=              5.7825    Y=             -9.7643    Z=              0.3659  Tot=             11.3539
 N-N= 1.033681811764D+02 E-N=-1.680505534999D+02  KE=-1.527022641587D+01
 Orbital energies and kinetic energies (alpha):
                                 1                 2
   1         O                -1.921917         -1.321414
   2         O                -1.188097         -1.052831
   3         O                -0.919827         -0.875158
   4         O                -0.801269         -0.605147
   5         O                -0.779392         -0.650103
   6         O                -0.685385         -0.585911
   7         O                -0.647755         -0.524650

 Normal termination of Gaussian 09 at Tue Dec 15 17:09:25 2015.
