 Gaussian 09, Revision D.01,
 Gaussian 09:  ES64L-G09RevD.01 24-Apr-2013

 ------------------------------------------------------------
 #P AM1(Input,print) CIS(Singlets,NStates=15) pop(full) force
 ------------------------------------------------------------

 -----------------
 AM1-Reparam Input
 -----------------
 Symbolic Z-matrix:
 Charge =  0 Multiplicity = 1

                         Standard orientation:
 ---------------------------------------------------------------------
 Center     Atomic      Atomic             Coordinates (Angstroms)
 Number     Number       Type             X           Y           Z
 ---------------------------------------------------------------------
      1          6           0       -0.885270    0.787392    0.015701
      2          6           0       -1.065905   -0.472591   -0.015346
      3          8           0        0.213108   -1.146504    0.022311
      4          6           0        1.169657   -0.156108   -0.021829
      5          6           0        0.536669    1.068398   -0.009674
      6          1           0        1.077165    1.969415    0.057703
      7          1           0        2.133243   -0.528447   -0.004625
      8          1           0       -1.874166   -1.175156   -0.029939
      9          1           0       -1.572016    1.543671   -0.014736
 ---------------------------------------------------------------------

 SCF Done:  E(RAM1) =  -9.22125370524     A.U. after   14 cycles

 Excitation energies and oscillator strengths:

 Excited State   1:      Singlet-A      5.7826 eV  214.41 nm  f=0.0008  <S**2>=0.000
      10 -> 14         0.17137
      11 -> 14         0.11942
      12 -> 14         0.67303
 This state for optimization and/or second-order correction.
 Total Energy, E(CIS) =  -9.00874774395
 Copying the excited state density for this state as the 1-particle RhoCI density.

 Excited State   2:      Singlet-A      6.4926 eV  190.96 nm  f=0.1506  <S**2>=0.000
      10 -> 14        -0.11625
      11 -> 14         0.49448
      13 -> 14        -0.47244

 Excited State   3:      Singlet-A      6.5956 eV  187.98 nm  f=0.1906  <S**2>=0.000
      10 -> 14        -0.10811
      11 -> 14         0.46798
      13 -> 14         0.50433

 Excited State   4:      Singlet-A      8.2907 eV  149.55 nm  f=0.0002  <S**2>=0.000
      10 -> 14         0.66120
      11 -> 14         0.13388
      12 -> 14        -0.19356

 Excited State   5:      Singlet-A      9.1867 eV  134.96 nm  f=0.0679  <S**2>=0.000
      13 -> 15         0.69142

 Excited State   6:      Singlet-A      9.6176 eV  128.91 nm  f=0.0060  <S**2>=0.000
      13 -> 16         0.69922

 Excited State   7:      Singlet-A     10.1708 eV  121.90 nm  f=0.0008  <S**2>=0.000
       9 -> 14        -0.27262
      12 -> 15         0.63901

 Excited State   8:      Singlet-A     10.5505 eV  117.52 nm  f=0.0046  <S**2>=0.000
       9 -> 14         0.60383
      12 -> 15         0.26128
      13 -> 17         0.19506

 Excited State   9:      Singlet-A     10.6293 eV  116.64 nm  f=0.0015  <S**2>=0.000
       9 -> 14        -0.18751
      13 -> 17         0.62537
      13 -> 18        -0.17644
      13 -> 19        -0.10156
      13 -> 20        -0.10095

 Excited State  10:      Singlet-A     11.0044 eV  112.67 nm  f=0.0812  <S**2>=0.000
       8 -> 14         0.23652
      12 -> 16         0.59911
      12 -> 17        -0.11973
      12 -> 20         0.12596

 Excited State  11:      Singlet-A     11.4144 eV  108.62 nm  f=0.0109  <S**2>=0.000
      10 -> 17         0.15255
      11 -> 15        -0.20090
      11 -> 16        -0.35601
      11 -> 17         0.10031
      11 -> 18        -0.10954
      11 -> 21         0.12560
      12 -> 16         0.17374
      12 -> 17         0.37827
      12 -> 18        -0.11530
      12 -> 19        -0.10668
      12 -> 20        -0.21513

 Excited State  12:      Singlet-A     11.4523 eV  108.26 nm  f=0.0013  <S**2>=0.000
      11 -> 15         0.66019
      12 -> 17         0.14001

 Excited State  13:      Singlet-A     11.7390 eV  105.62 nm  f=0.0364  <S**2>=0.000
       8 -> 14         0.36944
      11 -> 16         0.38054
      11 -> 17        -0.12243
      11 -> 18         0.10334
      12 -> 17         0.34355
      12 -> 18        -0.11593
      12 -> 19        -0.10256

 Excited State  14:      Singlet-A     11.8033 eV  105.04 nm  f=0.0164  <S**2>=0.000
       8 -> 14         0.13592
       9 -> 15        -0.10545
      10 -> 15         0.62269
      11 -> 16        -0.16386
      12 -> 17        -0.12670

 Excited State  15:      Singlet-A     11.8501 eV  104.63 nm  f=0.0869  <S**2>=0.000
       8 -> 14         0.44051
      10 -> 15        -0.26197
      10 -> 16        -0.17997
      11 -> 16        -0.29220
      12 -> 16        -0.18582
      12 -> 17        -0.15954

 The electronic state is 1-A.
 Alpha  occ. eigenvalues --   -3.85256  -1.34453  -1.07607  -1.04843  -1.03498
 Alpha  occ. eigenvalues --   -0.88546  -0.85645  -0.70355  -0.67478  -0.58391
 Alpha  occ. eigenvalues --   -0.55305  -0.52446  -0.48510
 Alpha virt. eigenvalues --   -0.02699   0.08337   0.12212   0.15870   0.20855
 Alpha virt. eigenvalues --    0.21227   0.27346   0.30347   0.32151   0.40098
 Alpha virt. eigenvalues --    0.43497

 Mulliken charges:
               1
     1  C   -0.442278
     2  C   -1.855905
     3  O    3.111446
     4  C   -1.908290
     5  C   -0.601250
     6  H    0.420847
     7  H    0.433167
     8  H    0.431278
     9  H    0.410985
 Sum of Mulliken charges =   0.00000

 Dipole moment (field-independent basis, Debye):
    X=              1.8117    Y=            -11.6792    Z=              0.6339  Tot=             11.8359
 N-N= 1.043303399030D+02 E-N=-1.728798088011D+02  KE=-2.697670250375D+01
 Orbital energies and kinetic energies (alpha):
                                 1                 2
   1         O                -3.852558         -3.159640
   2         O                -1.344528         -1.348504
   3         O                -1.076070         -1.100658
   4         O                -1.048434         -1.069354
   5         O                -1.034980         -1.026115
   6         O                -0.885464         -0.935831
   7         O                -0.856451         -0.901429

 Normal termination of Gaussian 09 at Fri Dec 11 13:41:16 2015.
