 Gaussian 09, Revision D.01,
 Gaussian 09:  ES64L-G09RevD.01 24-Apr-2013

 ------------------------------------------------------------
 #P AM1(Input,print) CIS(Singlets,NStates=15) pop(full) force
 ------------------------------------------------------------

 -----------------
 AM1-Reparam Input
 -----------------
 Symbolic Z-matrix:
 Charge =  0 Multiplicity = 1

                         Standard orientation:
 ---------------------------------------------------------------------
 Center     Atomic      Atomic             Coordinates (Angstroms)
 Number     Number       Type             X           Y           Z
 ---------------------------------------------------------------------
      1          6           0       -0.604638    1.068931   -0.015413
      2          6           0       -1.152340   -0.264023    0.032375
      3          8           0       -0.149541   -1.118586   -0.035039
      4          6           0        1.069541   -0.492961    0.036707
      5          6           0        0.853211    0.849429   -0.018215
      6          1           0        1.528250    1.653489    0.034645
      7          1           0        1.939498   -1.071980    0.000474
      8          1           0       -2.163899   -0.586992    0.032373
      9          1           0       -1.102162    1.985913    0.000107
 ---------------------------------------------------------------------

 SCF Done:  E(RAM1) =  0.237923441806E-01 A.U. after   14 cycles

 Excitation energies and oscillator strengths:

 Excited State   1:      Singlet-A      4.3163 eV  287.24 nm  f=0.0793  <S**2>=0.000
      12 -> 15         0.22361
      13 -> 14         0.64840
      13 -> 16         0.13346
 This state for optimization and/or second-order correction.
 Total Energy, E(CIS) =  0.182414386078
 Copying the excited state density for this state as the 1-particle RhoCI density.

 Excited State   2:      Singlet-A      4.5615 eV  271.80 nm  f=0.0049  <S**2>=0.000
      13 -> 14        -0.12314
      13 -> 16         0.67603

 Excited State   3:      Singlet-A      4.8139 eV  257.56 nm  f=0.0131  <S**2>=0.000
      12 -> 14        -0.39299
      13 -> 15         0.57903

 Excited State   4:      Singlet-A      5.5055 eV  225.20 nm  f=0.0003  <S**2>=0.000
      12 -> 17        -0.12520
      12 -> 18         0.14731
      13 -> 17        -0.40412
      13 -> 18         0.41648
      13 -> 20        -0.16958
      13 -> 21         0.12921
      13 -> 22        -0.15122
      13 -> 23         0.16013

 Excited State   5:      Singlet-A      5.6964 eV  217.65 nm  f=0.0096  <S**2>=0.000
       7 -> 16        -0.15961
      12 -> 16         0.65150
      12 -> 22         0.12562

 Excited State   6:      Singlet-A      5.9573 eV  208.12 nm  f=0.2964  <S**2>=0.000
      11 -> 18        -0.10740
      12 -> 14         0.51973
      12 -> 15         0.19592
      12 -> 16        -0.12005
      13 -> 15         0.34080

 Excited State   7:      Singlet-A      6.1111 eV  202.88 nm  f=0.0612  <S**2>=0.000
      12 -> 15         0.33832
      12 -> 17         0.11488
      12 -> 19         0.25062
      12 -> 23        -0.13573
      13 -> 14        -0.10419
      13 -> 17        -0.21483
      13 -> 18        -0.10036
      13 -> 19        -0.33682
      13 -> 22         0.11192
      13 -> 23         0.17380

 Excited State   8:      Singlet-A      6.1255 eV  202.41 nm  f=0.1419  <S**2>=0.000
      12 -> 14        -0.11943
      12 -> 15         0.52000
      12 -> 19        -0.18914
      13 -> 14        -0.17076
      13 -> 15        -0.11149
      13 -> 17         0.12648
      13 -> 19         0.20589
      13 -> 23        -0.11115

 Excited State   9:      Singlet-A      6.3734 eV  194.53 nm  f=0.0045  <S**2>=0.000
      12 -> 17         0.13618
      12 -> 21         0.13858
      12 -> 23        -0.10105
      13 -> 17         0.34558
      13 -> 18         0.41739
      13 -> 19        -0.31990
      13 -> 20         0.10477
      13 -> 21         0.11853

 Excited State  10:      Singlet-A      6.6814 eV  185.57 nm  f=0.0094  <S**2>=0.000
       9 -> 15         0.15091
      10 -> 14        -0.27203
      11 -> 14         0.56540
      11 -> 15         0.21513

 Excited State  11:      Singlet-A      6.9046 eV  179.57 nm  f=0.0018  <S**2>=0.000
      12 -> 17         0.31144
      12 -> 18         0.46331
      12 -> 20         0.22646
      12 -> 21         0.12236
      12 -> 23        -0.11454
      13 -> 17        -0.11466
      13 -> 18        -0.19731
      13 -> 21         0.11202

 Excited State  12:      Singlet-A      7.2454 eV  171.12 nm  f=0.0049  <S**2>=0.000
      10 -> 15         0.15510
      11 -> 15         0.21104
      12 -> 18        -0.12476
      12 -> 19         0.27469
      13 -> 18         0.14434
      13 -> 19         0.33232
      13 -> 20         0.34370
      13 -> 22         0.12738
      13 -> 24        -0.10221

 Excited State  13:      Singlet-A      7.3426 eV  168.86 nm  f=0.0015  <S**2>=0.000
       9 -> 14         0.35574
       9 -> 15        -0.20225
      10 -> 14         0.16455
      10 -> 15         0.13066
      11 -> 15         0.42614
      13 -> 19        -0.16809
      13 -> 20        -0.20449

 Excited State  14:      Singlet-A      7.4129 eV  167.25 nm  f=0.0070  <S**2>=0.000
      12 -> 19        -0.25935
      12 -> 22         0.17850
      13 -> 17        -0.25830
      13 -> 19        -0.12306
      13 -> 20         0.16029
      13 -> 22         0.40934
      13 -> 23        -0.23121
      13 -> 24         0.11568

 Excited State  15:      Singlet-A      7.6261 eV  162.58 nm  f=0.0014  <S**2>=0.000
       9 -> 14        -0.20836
       9 -> 15         0.11946
      10 -> 15         0.24234
      12 -> 17         0.30881
      12 -> 18        -0.28110
      12 -> 19        -0.13360
      12 -> 20         0.11800
      12 -> 21         0.12249
      12 -> 22         0.15183
      12 -> 24        -0.10208
      13 -> 17        -0.11572
      13 -> 20        -0.15657
      13 -> 21        -0.16846
      13 -> 24         0.17102

 The electronic state is 1-A.
 Alpha  occ. eigenvalues --   -1.56460  -1.21940  -1.10073  -0.82929  -0.81492
 Alpha  occ. eigenvalues --   -0.68883  -0.60741  -0.58640  -0.51177  -0.50020
 Alpha  occ. eigenvalues --   -0.48404  -0.38545  -0.33902
 Alpha virt. eigenvalues --    0.02989   0.05697   0.08727   0.14147   0.14894
 Alpha virt. eigenvalues --    0.16093   0.18119   0.18392   0.19439   0.20882
 Alpha virt. eigenvalues --    0.22942

 Mulliken charges:
               1
     1  C   -0.239303
     2  C   -0.091021
     3  O   -0.071492
     4  C   -0.102889
     5  C   -0.195837
     6  H    0.154679
     7  H    0.190605
     8  H    0.195866
     9  H    0.159392
 Sum of Mulliken charges =   0.00000

 Dipole moment (field-independent basis, Debye):
    X=             -0.0467    Y=              0.1987    Z=              0.0452  Tot=              0.2091
 N-N= 1.032255290487D+02 E-N=-1.705923296875D+02  KE=-1.654700774421D+01
 Orbital energies and kinetic energies (alpha):
                                 1                 2
   1         O                -1.564602         -1.301791
   2         O                -1.219402         -1.047397
   3         O                -1.100734         -0.961295
   4         O                -0.829294         -0.713913
   5         O                -0.814923         -0.728853
   6         O                -0.688829         -0.602926
   7         O                -0.607406         -0.488235

 Normal termination of Gaussian 09 at Tue Dec 15 16:17:16 2015.
