 Gaussian 09, Revision D.01,
 Gaussian 09:  ES64L-G09RevD.01 24-Apr-2013

 ------------------------------------------------------------
 #P AM1(Input,print) CIS(Singlets,NStates=15) pop(full) force
 ------------------------------------------------------------

 -----------------
 AM1-Reparam Input
 -----------------
 Symbolic Z-matrix:
 Charge =  0 Multiplicity = 1

                         Standard orientation:
 ---------------------------------------------------------------------
 Center     Atomic      Atomic             Coordinates (Angstroms)
 Number     Number       Type             X           Y           Z
 ---------------------------------------------------------------------
      1          6           0        0.136899    1.145612    0.021080
      2          6           0       -1.020423    0.469537   -0.029252
      3          8           0       -0.771031   -0.829433    0.032619
      4          6           0        0.514860   -0.998840   -0.016891
      5          6           0        1.165948    0.247622   -0.024180
      6          1           0        2.287033    0.389486    0.061056
      7          1           0        0.891306   -1.977307   -0.014250
      8          1           0       -2.083258    0.774374   -0.043303
      9          1           0        0.289466    2.265327    0.031001
 ---------------------------------------------------------------------

 SCF Done:  E(RAM1) =   2.82261855311     A.U. after   14 cycles

 Excitation energies and oscillator strengths:

 Excited State   1:      Singlet-A      5.6827 eV  218.18 nm  f=0.3193  <S**2>=0.000
      13 -> 14         0.69158
 This state for optimization and/or second-order correction.
 Total Energy, E(CIS) =   3.03145265351
 Copying the excited state density for this state as the 1-particle RhoCI density.

 Excited State   2:      Singlet-A      6.7680 eV  183.19 nm  f=0.0082  <S**2>=0.000
      13 -> 15         0.53088
      13 -> 16         0.35766
      13 -> 17        -0.24988

 Excited State   3:      Singlet-A      6.9311 eV  178.88 nm  f=0.0010  <S**2>=0.000
       9 -> 14         0.14095
      12 -> 14         0.66461
      13 -> 16         0.15117

 Excited State   4:      Singlet-A      6.9735 eV  177.79 nm  f=0.0003  <S**2>=0.000
      11 -> 15        -0.11892
      12 -> 14        -0.16117
      13 -> 15        -0.37125
      13 -> 16         0.50476
      13 -> 18         0.15159
      13 -> 19         0.14504

 Excited State   5:      Singlet-A      7.7344 eV  160.30 nm  f=0.0050  <S**2>=0.000
      10 -> 14         0.54793
      11 -> 14        -0.41601

 Excited State   6:      Singlet-A      8.2177 eV  150.87 nm  f=0.0041  <S**2>=0.000
      11 -> 16        -0.13816
      13 -> 15         0.11592
      13 -> 16         0.14996
      13 -> 17         0.55270
      13 -> 18        -0.18114
      13 -> 21         0.25562

 Excited State   7:      Singlet-A      8.2834 eV  149.68 nm  f=0.0063  <S**2>=0.000
      11 -> 15         0.10328
      13 -> 15         0.13516
      13 -> 17         0.30962
      13 -> 18         0.43696
      13 -> 21        -0.40216

 Excited State   8:      Singlet-A      8.6411 eV  143.48 nm  f=0.0752  <S**2>=0.000
      10 -> 14         0.40908
      11 -> 14         0.53991

 Excited State   9:      Singlet-A      8.8651 eV  139.86 nm  f=0.0003  <S**2>=0.000
      13 -> 16        -0.14282
      13 -> 19         0.64242
      13 -> 20        -0.14196

 Excited State  10:      Singlet-A      9.1646 eV  135.29 nm  f=0.0018  <S**2>=0.000
      13 -> 18         0.48370
      13 -> 20         0.15049
      13 -> 21         0.45501

 Excited State  11:      Singlet-A      9.3204 eV  133.02 nm  f=0.0593  <S**2>=0.000
       8 -> 15        -0.12287
       9 -> 16         0.12736
       9 -> 18         0.11487
      10 -> 15        -0.21645
      10 -> 16        -0.10052
      10 -> 17         0.23812
      11 -> 15         0.11937
      11 -> 17        -0.16804
      12 -> 16         0.31165
      12 -> 17        -0.12523
      12 -> 18         0.23225
      12 -> 21        -0.13842
      13 -> 20         0.12943

 Excited State  12:      Singlet-A      9.4864 eV  130.70 nm  f=0.0887  <S**2>=0.000
       9 -> 15        -0.11978
      11 -> 15         0.11715
      12 -> 15         0.60118
      12 -> 17        -0.11922
      12 -> 20         0.11514
      13 -> 20        -0.15476

 Excited State  13:      Singlet-A      9.5123 eV  130.34 nm  f=0.0947  <S**2>=0.000
      11 -> 16         0.11775
      12 -> 15         0.15961
      12 -> 16        -0.11008
      13 -> 19         0.14026
      13 -> 20         0.61089
      13 -> 21        -0.11664

 Excited State  14:      Singlet-A      9.6856 eV  128.01 nm  f=0.0768  <S**2>=0.000
       9 -> 16        -0.11473
      10 -> 16         0.27419
      11 -> 15        -0.20019
      11 -> 16        -0.32491
      12 -> 16         0.40946
      12 -> 17        -0.12865

 Excited State  15:      Singlet-A      9.8200 eV  126.26 nm  f=0.0017  <S**2>=0.000
       9 -> 14         0.50559
      10 -> 15         0.20204
      10 -> 16         0.14286
      11 -> 15         0.24823
      11 -> 16         0.17557
      12 -> 14        -0.10705
      13 -> 16         0.11294
      13 -> 21         0.14000

 The electronic state is 1-A.
 Alpha  occ. eigenvalues --   -1.74913  -1.13170  -0.92670  -0.79430  -0.75117
 Alpha  occ. eigenvalues --   -0.66514  -0.65149  -0.54180  -0.48781  -0.43279
 Alpha  occ. eigenvalues --   -0.42874  -0.40485  -0.30480
 Alpha virt. eigenvalues --    0.11814   0.17868   0.18638   0.23559   0.25946
 Alpha virt. eigenvalues --    0.27277   0.28275   0.30612   0.40833   0.49464
 Alpha virt. eigenvalues --    0.53858

 Mulliken charges:
               1
     1  C   -0.094117
     2  C   -1.964330
     3  O    3.212906
     4  C   -2.002140
     5  C   -0.135350
     6  H    0.182004
     7  H    0.312353
     8  H    0.310356
     9  H    0.178319
 Sum of Mulliken charges =   0.00000

 Dipole moment (field-independent basis, Debye):
    X=             -6.4982    Y=             -6.7735    Z=              0.8087  Tot=              9.4213
 N-N= 1.047265243179D+02 E-N=-1.704359550795D+02  KE=-1.483104115837D+01
 Orbital energies and kinetic energies (alpha):
                                 1                 2
   1         O                -1.749129         -1.268620
   2         O                -1.131704         -0.992520
   3         O                -0.926696         -0.828679
   4         O                -0.794299         -0.604103
   5         O                -0.751167         -0.676543
   6         O                -0.665135         -0.576415
   7         O                -0.651486         -0.536698

 Normal termination of Gaussian 09 at Tue Dec 15 17:06:06 2015.
