 Gaussian 09, Revision D.01,
 Gaussian 09:  ES64L-G09RevD.01 24-Apr-2013

 ------------------------------------------------------------
 #P AM1(Input,print) CIS(Singlets,NStates=15) pop(full) force
 ------------------------------------------------------------

 -----------------
 AM1-Reparam Input
 -----------------
 Symbolic Z-matrix:
 Charge =  0 Multiplicity = 1

                         Standard orientation:
 ---------------------------------------------------------------------
 Center     Atomic      Atomic             Coordinates (Angstroms)
 Number     Number       Type             X           Y           Z
 ---------------------------------------------------------------------
      1          6           0       -0.680242    0.948863   -0.013063
      2          6           0       -1.083726   -0.310280    0.007307
      3          8           0       -0.016349   -1.107750    0.006145
      4          6           0        1.040856   -0.382702    0.006055
      5          6           0        0.727086    0.908568   -0.010395
      6          1           0        1.462002    1.801478    0.044368
      7          1           0        2.026513   -0.922641   -0.039495
      8          1           0       -2.094448   -0.811625   -0.032368
      9          1           0       -1.287123    1.808097    0.038915
 ---------------------------------------------------------------------

 SCF Done:  E(RAM1) =   2.60835187017     A.U. after   13 cycles

 Excitation energies and oscillator strengths:

 Excited State   1:      Singlet-A      5.1475 eV  240.86 nm  f=0.3494  <S**2>=0.000
      13 -> 14         0.69820
 This state for optimization and/or second-order correction.
 Total Energy, E(CIS) =   2.79751917203
 Copying the excited state density for this state as the 1-particle RhoCI density.

 Excited State   2:      Singlet-A      6.0444 eV  205.12 nm  f=0.0010  <S**2>=0.000
      13 -> 15         0.66847
      13 -> 18        -0.11223
      13 -> 19        -0.11091

 Excited State   3:      Singlet-A      6.4304 eV  192.81 nm  f=0.0028  <S**2>=0.000
      13 -> 16         0.67031

 Excited State   4:      Singlet-A      6.5800 eV  188.42 nm  f=0.0003  <S**2>=0.000
      12 -> 14         0.69570

 Excited State   5:      Singlet-A      7.3560 eV  168.55 nm  f=0.0049  <S**2>=0.000
      10 -> 14         0.13189
      11 -> 14         0.68588

 Excited State   6:      Singlet-A      7.7562 eV  159.85 nm  f=0.0002  <S**2>=0.000
      13 -> 17         0.66198
      13 -> 18        -0.13737
      13 -> 21        -0.11965

 Excited State   7:      Singlet-A      8.5767 eV  144.56 nm  f=0.1130  <S**2>=0.000
      10 -> 14         0.68106
      11 -> 14        -0.13179

 Excited State   8:      Singlet-A      8.9560 eV  138.44 nm  f=0.0054  <S**2>=0.000
      10 -> 15         0.25087
      13 -> 17         0.14730
      13 -> 18         0.61049
      13 -> 19         0.10049

 Excited State   9:      Singlet-A      9.1271 eV  135.84 nm  f=0.0675  <S**2>=0.000
       8 -> 16        -0.11307
      11 -> 18        -0.13076
      12 -> 15         0.54288
      12 -> 16        -0.19473
      12 -> 17         0.25907

 Excited State  10:      Singlet-A      9.3966 eV  131.95 nm  f=0.0881  <S**2>=0.000
      10 -> 16         0.17302
      11 -> 15        -0.23590
      11 -> 16        -0.25651
      11 -> 18         0.14361
      12 -> 15         0.21552
      12 -> 17        -0.20379
      13 -> 18        -0.10047
      13 -> 19         0.43577

 Excited State  11:      Singlet-A      9.4266 eV  131.53 nm  f=0.0703  <S**2>=0.000
      10 -> 16         0.19979
      11 -> 15         0.30145
      11 -> 18        -0.14450
      12 -> 15        -0.25694
      12 -> 16        -0.14455
      12 -> 17         0.17971
      13 -> 19         0.43306

 Excited State  12:      Singlet-A      9.6763 eV  128.13 nm  f=0.1194  <S**2>=0.000
      11 -> 15        -0.17957
      11 -> 16         0.36799
      11 -> 19         0.12558
      12 -> 16         0.48383
      12 -> 17         0.12881
      13 -> 19         0.11326

 Excited State  13:      Singlet-A      9.9315 eV  124.84 nm  f=0.0029  <S**2>=0.000
       7 -> 15        -0.12256
      10 -> 15         0.59826
      10 -> 16         0.12961
      11 -> 15        -0.10700
      13 -> 15        -0.13968
      13 -> 18        -0.22944

 Excited State  14:      Singlet-A     10.2024 eV  121.52 nm  f=0.0162  <S**2>=0.000
       8 -> 15        -0.21859
       8 -> 16         0.10823
       9 -> 15         0.12383
       9 -> 16         0.16517
      11 -> 15         0.32874
      11 -> 16        -0.13842
      11 -> 17        -0.19656
      11 -> 19        -0.19094
      12 -> 15         0.15067
      12 -> 16         0.30882
      12 -> 18         0.14072

 Excited State  15:      Singlet-A     10.2543 eV  120.91 nm  f=0.0029  <S**2>=0.000
       9 -> 14        -0.17926
      10 -> 15        -0.11314
      10 -> 16         0.56137
      13 -> 16         0.14207
      13 -> 18         0.11225
      13 -> 19        -0.24310

 The electronic state is 1-A.
 Alpha  occ. eigenvalues --   -1.87744  -1.14657  -0.88840  -0.80690  -0.74045
 Alpha  occ. eigenvalues --   -0.66308  -0.65767  -0.56277  -0.54350  -0.45710
 Alpha  occ. eigenvalues --   -0.44599  -0.42611  -0.30531
 Alpha virt. eigenvalues --    0.08774   0.14839   0.16391   0.24313   0.26539
 Alpha virt. eigenvalues --    0.28902   0.35147   0.40158   0.51996   0.59182
 Alpha virt. eigenvalues --    0.63855

 Mulliken charges:
               1
     1  C   -0.171420
     2  C   -1.995177
     3  O    3.419979
     4  C   -2.018235
     5  C   -0.230890
     6  H    0.208935
     7  H    0.301757
     8  H    0.290639
     9  H    0.194413
 Sum of Mulliken charges =   0.00000

 Dipole moment (field-independent basis, Debye):
    X=              0.1387    Y=            -10.5438    Z=             -0.0670  Tot=             10.5450
 N-N= 1.051149157885D+02 E-N=-1.715620209474D+02  KE=-1.440851622283D+01
 Orbital energies and kinetic energies (alpha):
                                 1                 2
   1         O                -1.877443         -1.311868
   2         O                -1.146575         -0.971418
   3         O                -0.888401         -0.783979
   4         O                -0.806904         -0.535217
   5         O                -0.740448         -0.625121
   6         O                -0.663076         -0.533500
   7         O                -0.657666         -0.511499

 Normal termination of Gaussian 09 at Tue Dec 15 17:07:34 2015.
