 Gaussian 09, Revision D.01,
 Gaussian 09:  ES64L-G09RevD.01 24-Apr-2013

 ------------------------------------------------------------
 #P AM1(Input,print) CIS(Singlets,NStates=15) pop(full) force
 ------------------------------------------------------------

 -----------------
 AM1-Reparam Input
 -----------------
 Symbolic Z-matrix:
 Charge =  0 Multiplicity = 1

                         Standard orientation:
 ---------------------------------------------------------------------
 Center     Atomic      Atomic             Coordinates (Angstroms)
 Number     Number       Type             X           Y           Z
 ---------------------------------------------------------------------
      1          6           0        0.666294    1.023339    0.017408
      2          6           0        1.136860   -0.249874   -0.014082
      3          8           0        0.089896   -1.178830   -0.004540
      4          6           0       -1.096074   -0.398709    0.011096
      5          6           0       -0.792337    0.873631   -0.015119
      6          1           0       -1.484298    1.786474   -0.001429
      7          1           0       -2.044421   -0.954456    0.016592
      8          1           0        2.101279   -0.747939    0.035972
      9          1           0        1.219823    1.856243   -0.010626
 ---------------------------------------------------------------------

 SCF Done:  E(RAM1) =  0.206692523275E-01 A.U. after   13 cycles

 Excitation energies and oscillator strengths:

 Excited State   1:      Singlet-A      4.5744 eV  271.04 nm  f=0.0803  <S**2>=0.000
      12 -> 15         0.20052
      13 -> 14         0.66949
 This state for optimization and/or second-order correction.
 Total Energy, E(CIS) =  0.188777144542
 Copying the excited state density for this state as the 1-particle RhoCI density.

 Excited State   2:      Singlet-A      5.2363 eV  236.78 nm  f=0.0013  <S**2>=0.000
      12 -> 14        -0.39682
      13 -> 15         0.46373
      13 -> 16         0.33737

 Excited State   3:      Singlet-A      5.2998 eV  233.94 nm  f=0.0003  <S**2>=0.000
      12 -> 14         0.24321
      13 -> 15        -0.24648
      13 -> 16         0.59451

 Excited State   4:      Singlet-A      5.8052 eV  213.58 nm  f=0.0018  <S**2>=0.000
       7 -> 16        -0.19326
      12 -> 16         0.63813
      12 -> 22         0.14495

 Excited State   5:      Singlet-A      5.9890 eV  207.02 nm  f=0.0008  <S**2>=0.000
      12 -> 18         0.16682
      12 -> 20        -0.13432
      12 -> 22         0.10431
      13 -> 18         0.47352
      13 -> 20        -0.24479
      13 -> 21        -0.12166
      13 -> 22         0.25223
      13 -> 23        -0.14322
      13 -> 24        -0.12455

 Excited State   6:      Singlet-A      6.2460 eV  198.50 nm  f=0.3492  <S**2>=0.000
      11 -> 16         0.11706
      12 -> 14         0.47726
      12 -> 15         0.12740
      13 -> 15         0.43694

 Excited State   7:      Singlet-A      6.3445 eV  195.42 nm  f=0.0006  <S**2>=0.000
      12 -> 18        -0.13449
      12 -> 19        -0.25449
      12 -> 22         0.12277
      12 -> 23         0.13934
      12 -> 24         0.10618
      13 -> 17        -0.25007
      13 -> 19         0.37466
      13 -> 22        -0.26134
      13 -> 23        -0.20694
      13 -> 24        -0.10643

 Excited State   8:      Singlet-A      6.3983 eV  193.78 nm  f=0.0183  <S**2>=0.000
      11 -> 14        -0.10840
      13 -> 17         0.57442
      13 -> 18         0.15964
      13 -> 19         0.24883

 Excited State   9:      Singlet-A      6.4512 eV  192.19 nm  f=0.1141  <S**2>=0.000
      12 -> 15         0.64338
      13 -> 14        -0.18332

 Excited State  10:      Singlet-A      6.9023 eV  179.63 nm  f=0.0005  <S**2>=0.000
      12 -> 17         0.49652
      12 -> 18         0.31910
      12 -> 19         0.12584
      12 -> 20        -0.15888
      13 -> 18        -0.15952
      13 -> 19         0.19483

 Excited State  11:      Singlet-A      7.2429 eV  171.18 nm  f=0.0011  <S**2>=0.000
       9 -> 14        -0.20207
       9 -> 15        -0.16480
      10 -> 14         0.53737
      10 -> 15         0.12577
      11 -> 14         0.12880
      11 -> 15         0.27279

 Excited State  12:      Singlet-A      7.3295 eV  169.16 nm  f=0.0001  <S**2>=0.000
      10 -> 14        -0.17202
      10 -> 15         0.14156
      11 -> 14         0.62783

 Excited State  13:      Singlet-A      7.4470 eV  166.49 nm  f=0.0009  <S**2>=0.000
      10 -> 14        -0.10910
      11 -> 15         0.20223
      12 -> 17         0.25967
      12 -> 18        -0.21017
      12 -> 19        -0.23697
      12 -> 20        -0.13757
      12 -> 21         0.20815
      12 -> 23         0.17113
      12 -> 24        -0.10744
      13 -> 19        -0.25827
      13 -> 21         0.20707
      13 -> 24        -0.12263

 Excited State  14:      Singlet-A      7.5911 eV  163.33 nm  f=0.0013  <S**2>=0.000
       9 -> 14         0.20682
      10 -> 15        -0.10196
      12 -> 17         0.13511
      12 -> 18        -0.29867
      12 -> 22        -0.20477
      12 -> 24        -0.10086
      13 -> 18         0.15791
      13 -> 19         0.16549
      13 -> 20         0.20781
      13 -> 22         0.31857
      13 -> 24         0.20088

 Excited State  15:      Singlet-A      7.6451 eV  162.17 nm  f=0.0005  <S**2>=0.000
       9 -> 15        -0.10286
      10 -> 14         0.14475
      11 -> 15        -0.10986
      12 -> 19        -0.22381
      12 -> 20         0.18041
      12 -> 22         0.17398
      12 -> 24        -0.12412
      13 -> 17         0.12520
      13 -> 18        -0.29587
      13 -> 20        -0.10641
      13 -> 22         0.35326
      13 -> 24        -0.17642

 The electronic state is 1-A.
 Alpha  occ. eigenvalues --   -1.52946  -1.22756  -1.10174  -0.82208  -0.80044
 Alpha  occ. eigenvalues --   -0.67636  -0.58233  -0.55631  -0.51527  -0.50752
 Alpha  occ. eigenvalues --   -0.48808  -0.39593  -0.35338
 Alpha virt. eigenvalues --    0.03028   0.06485   0.09748   0.13325   0.13909
 Alpha virt. eigenvalues --    0.15508   0.17097   0.18678   0.19080   0.20946
 Alpha virt. eigenvalues --    0.21737

 Mulliken charges:
               1
     1  C   -0.195217
     2  C   -0.080955
     3  O   -0.131312
     4  C   -0.080173
     5  C   -0.201924
     6  H    0.162101
     7  H    0.188429
     8  H    0.185213
     9  H    0.153837
 Sum of Mulliken charges =   0.00000

 Dipole moment (field-independent basis, Debye):
    X=             -0.1256    Y=              0.5842    Z=              0.0370  Tot=              0.5987
 N-N= 1.028797816479D+02 E-N=-1.701308806680D+02  KE=-1.647439681735D+01
 Orbital energies and kinetic energies (alpha):
                                 1                 2
   1         O                -1.529457         -1.295452
   2         O                -1.227563         -1.039203
   3         O                -1.101739         -0.963532
   4         O                -0.822081         -0.722842
   5         O                -0.800443         -0.704420
   6         O                -0.676360         -0.599879
   7         O                -0.582327         -0.477386

 Normal termination of Gaussian 09 at Tue Dec 15 16:13:48 2015.
