 Gaussian 09, Revision D.01,
 Gaussian 09:  ES64L-G09RevD.01 24-Apr-2013

 ------------------------------------------------------------
 #P AM1(Input,print) CIS(Singlets,NStates=15) pop(full) force
 ------------------------------------------------------------

 -----------------
 AM1-Reparam Input
 -----------------
 Symbolic Z-matrix:
 Charge =  0 Multiplicity = 1

                         Standard orientation:
 ---------------------------------------------------------------------
 Center     Atomic      Atomic             Coordinates (Angstroms)
 Number     Number       Type             X           Y           Z
 ---------------------------------------------------------------------
      1          6           0        1.007904    0.735301   -0.010651
      2          6           0        0.916886   -0.666669   -0.015906
      3          8           0       -0.356045   -1.062698    0.009082
      4          6           0       -1.117933   -0.040962   -0.017816
      5          6           0       -0.431617    1.100602    0.019935
      6          1           0       -0.735326    2.120375   -0.047185
      7          1           0       -2.221389   -0.217233    0.035419
      8          1           0        1.722424   -1.466074    0.028507
      9          1           0        1.831221    1.294886    0.057225
 ---------------------------------------------------------------------

 SCF Done:  E(RAM1) =   1.37727521300     A.U. after   13 cycles

 Excitation energies and oscillator strengths:

 Excited State   1:      Singlet-A      5.8244 eV  212.87 nm  f=0.3322  <S**2>=0.000
      13 -> 14         0.69021
 This state for optimization and/or second-order correction.
 Total Energy, E(CIS) =   1.59131754014
 Copying the excited state density for this state as the 1-particle RhoCI density.

 Excited State   2:      Singlet-A      6.0108 eV  206.27 nm  f=0.0032  <S**2>=0.000
      13 -> 15         0.67451
      13 -> 17         0.10387

 Excited State   3:      Singlet-A      6.4274 eV  192.90 nm  f=0.0010  <S**2>=0.000
      12 -> 16        -0.12363
      13 -> 16         0.64689
      13 -> 17         0.16524
      13 -> 19         0.13459

 Excited State   4:      Singlet-A      7.0675 eV  175.43 nm  f=0.0004  <S**2>=0.000
      11 -> 14         0.69462

 Excited State   5:      Singlet-A      7.6252 eV  162.60 nm  f=0.0047  <S**2>=0.000
      12 -> 16         0.13443
      13 -> 16        -0.17047
      13 -> 17         0.54017
      13 -> 18        -0.16023
      13 -> 22        -0.32948

 Excited State   6:      Singlet-A      7.9509 eV  155.94 nm  f=0.0107  <S**2>=0.000
      12 -> 15        -0.13214
      13 -> 15        -0.11780
      13 -> 17         0.38207
      13 -> 18         0.34269
      13 -> 19        -0.15961
      13 -> 20         0.10460
      13 -> 22         0.38552

 Excited State   7:      Singlet-A      8.3671 eV  148.18 nm  f=0.0822  <S**2>=0.000
      10 -> 14        -0.16192
      12 -> 14         0.65126
      13 -> 21        -0.14110

 Excited State   8:      Singlet-A      8.5314 eV  145.33 nm  f=0.0065  <S**2>=0.000
      10 -> 14         0.67000
      12 -> 14         0.15505

 Excited State   9:      Singlet-A      8.6556 eV  143.24 nm  f=0.0057  <S**2>=0.000
      12 -> 15         0.16446
      12 -> 16         0.15900
      13 -> 18         0.22386
      13 -> 19         0.51749
      13 -> 20        -0.29576
      13 -> 22         0.17086

 Excited State  10:      Singlet-A      8.7567 eV  141.59 nm  f=0.0041  <S**2>=0.000
      12 -> 15         0.14963
      13 -> 18         0.51510
      13 -> 19        -0.14149
      13 -> 22        -0.39097

 Excited State  11:      Singlet-A      8.8600 eV  139.94 nm  f=0.0088  <S**2>=0.000
      12 -> 15         0.59757
      13 -> 15        -0.10067
      13 -> 16         0.11050
      13 -> 18        -0.13455
      13 -> 19        -0.18394
      13 -> 22         0.18158

 Excited State  12:      Singlet-A      9.2170 eV  134.52 nm  f=0.0438  <S**2>=0.000
      12 -> 16         0.44352
      13 -> 19         0.17868
      13 -> 20         0.45292
      13 -> 21        -0.15648

 Excited State  13:      Singlet-A      9.3752 eV  132.25 nm  f=0.0852  <S**2>=0.000
       8 -> 15         0.12499
      11 -> 15         0.41660
      11 -> 16        -0.14246
      12 -> 16         0.34526
      13 -> 19        -0.21209
      13 -> 20        -0.24215

 Excited State  14:      Singlet-A      9.4126 eV  131.72 nm  f=0.1133  <S**2>=0.000
       8 -> 15         0.12770
      11 -> 15         0.42582
      11 -> 16        -0.17836
      12 -> 16        -0.29012
      13 -> 19         0.21317
      13 -> 20         0.25979

 Excited State  15:      Singlet-A      9.7097 eV  127.69 nm  f=0.1380  <S**2>=0.000
       8 -> 15        -0.11404
       8 -> 16        -0.19316
       9 -> 15        -0.11124
      10 -> 15        -0.16099
      10 -> 17        -0.11150
      11 -> 15         0.26386
      11 -> 16         0.48449
      11 -> 17         0.13849
      13 -> 21         0.13723

 The electronic state is 1-A.
 Alpha  occ. eigenvalues --   -1.92221  -1.18122  -0.96332  -0.80301  -0.76129
 Alpha  occ. eigenvalues --   -0.67974  -0.63530  -0.50512  -0.47748  -0.42675
 Alpha  occ. eigenvalues --   -0.38009  -0.37703  -0.25322
 Alpha virt. eigenvalues --    0.15903   0.19021   0.21201   0.28717   0.30816
 Alpha virt. eigenvalues --    0.32709   0.33121   0.33788   0.33875   0.43055
 Alpha virt. eigenvalues --    0.49371

 Mulliken charges:
               1
     1  C   -0.049763
     2  C   -1.590905
     3  O    2.805172
     4  C   -1.571200
     5  C   -0.082975
     6  H    0.068057
     7  H    0.182476
     8  H    0.168840
     9  H    0.070298
 Sum of Mulliken charges =   0.00000

 Dipole moment (field-independent basis, Debye):
    X=             -3.1544    Y=             -8.3385    Z=              0.4269  Tot=              8.9254
 N-N= 1.040697532911D+02 E-N=-1.707380464594D+02  KE=-1.591532488035D+01
 Orbital energies and kinetic energies (alpha):
                                 1                 2
   1         O                -1.922206         -1.431627
   2         O                -1.181220         -1.066539
   3         O                -0.963321         -0.861388
   4         O                -0.803013         -0.643368
   5         O                -0.761291         -0.693941
   6         O                -0.679745         -0.624208
   7         O                -0.635300         -0.543857

 Normal termination of Gaussian 09 at Tue Dec 15 17:08:01 2015.
