 Gaussian 09, Revision D.01,
 Gaussian 09:  ES64L-G09RevD.01 24-Apr-2013

 ------------------------------------------------------------
 #P AM1(Input,print) CIS(Singlets,NStates=15) pop(full) force
 ------------------------------------------------------------

 -----------------
 AM1-Reparam Input
 -----------------
 Symbolic Z-matrix:
 Charge =  0 Multiplicity = 1

                         Standard orientation:
 ---------------------------------------------------------------------
 Center     Atomic      Atomic             Coordinates (Angstroms)
 Number     Number       Type             X           Y           Z
 ---------------------------------------------------------------------
      1          6           0       -1.019134    0.700298   -0.028078
      2          6           0       -0.896149   -0.702093    0.005899
      3          8           0        0.366618   -1.083516   -0.012352
      4          6           0        1.164285   -0.002440    0.015332
      5          6           0        0.363164    1.140054    0.027278
      6          1           0        0.743042    2.129363   -0.022659
      7          1           0        2.214252   -0.156025   -0.065589
      8          1           0       -1.697125   -1.438065    0.071687
      9          1           0       -1.866105    1.317940   -0.007204
 ---------------------------------------------------------------------

 SCF Done:  E(RAM1) =   2.07564723325     A.U. after   13 cycles

 Excitation energies and oscillator strengths:

 Excited State   1:      Singlet-A      5.5772 eV  222.30 nm  f=0.3678  <S**2>=0.000
      13 -> 14         0.69565
 This state for optimization and/or second-order correction.
 Total Energy, E(CIS) =   2.28060628002
 Copying the excited state density for this state as the 1-particle RhoCI density.

 Excited State   2:      Singlet-A      6.7179 eV  184.56 nm  f=0.0056  <S**2>=0.000
      11 -> 15         0.10037
      13 -> 15         0.66408
      13 -> 17        -0.16618

 Excited State   3:      Singlet-A      7.0493 eV  175.88 nm  f=0.0008  <S**2>=0.000
      11 -> 16        -0.10239
      13 -> 16         0.65386
      13 -> 18        -0.15279
      13 -> 19        -0.11801

 Excited State   4:      Singlet-A      7.2108 eV  171.94 nm  f=0.0008  <S**2>=0.000
      12 -> 14         0.69313

 Excited State   5:      Singlet-A      8.1869 eV  151.44 nm  f=0.0070  <S**2>=0.000
      10 -> 14         0.67513
      11 -> 14        -0.12998
      13 -> 17        -0.11112

 Excited State   6:      Singlet-A      8.3096 eV  149.21 nm  f=0.0004  <S**2>=0.000
      10 -> 14        -0.11277
      11 -> 15        -0.10946
      13 -> 17        -0.20232
      13 -> 18         0.51068
      13 -> 21        -0.38512

 Excited State   7:      Singlet-A      8.7791 eV  141.23 nm  f=0.0115  <S**2>=0.000
      11 -> 16        -0.15006
      13 -> 15         0.10425
      13 -> 17         0.62026
      13 -> 18         0.19794

 Excited State   8:      Singlet-A      8.8226 eV  140.53 nm  f=0.1187  <S**2>=0.000
      10 -> 14         0.13571
      11 -> 14         0.67078

 Excited State   9:      Singlet-A      9.3747 eV  132.25 nm  f=0.0009  <S**2>=0.000
      11 -> 15        -0.13388
      13 -> 19         0.66554

 Excited State  10:      Singlet-A      9.6944 eV  127.89 nm  f=0.0036  <S**2>=0.000
      13 -> 18         0.39452
      13 -> 21         0.56601

 Excited State  11:      Singlet-A      9.8808 eV  125.48 nm  f=0.0206  <S**2>=0.000
       8 -> 15        -0.12794
       9 -> 15        -0.10700
      10 -> 15         0.14142
      10 -> 16         0.15957
      10 -> 17        -0.17751
      10 -> 18        -0.10291
      12 -> 15         0.42262
      12 -> 16        -0.20865
      12 -> 17        -0.13227
      12 -> 18         0.22467
      13 -> 20        -0.15893

 Excited State  12:      Singlet-A     10.0595 eV  123.25 nm  f=0.0908  <S**2>=0.000
      11 -> 16         0.14035
      12 -> 15         0.12006
      13 -> 19         0.10001
      13 -> 20         0.63942

 Excited State  13:      Singlet-A     10.1234 eV  122.47 nm  f=0.0047  <S**2>=0.000
      11 -> 15         0.54167
      11 -> 16         0.15613
      11 -> 17        -0.10614
      12 -> 15         0.15499
      12 -> 16         0.17440
      12 -> 18        -0.12396
      13 -> 15        -0.11358
      13 -> 16         0.12279
      13 -> 19         0.12564

 Excited State  14:      Singlet-A     10.2888 eV  120.50 nm  f=0.0799  <S**2>=0.000
      10 -> 16         0.15390
      11 -> 15        -0.19348
      11 -> 16        -0.11700
      12 -> 15         0.25061
      12 -> 16         0.53946
      12 -> 17        -0.12127

 Excited State  15:      Singlet-A     10.4488 eV  118.66 nm  f=0.1831  <S**2>=0.000
      10 -> 15         0.38051
      10 -> 16         0.14133
      10 -> 17        -0.19986
      11 -> 15         0.13684
      12 -> 15        -0.33325
      12 -> 16         0.20441
      12 -> 17        -0.10057
      12 -> 18         0.13978
      12 -> 19        -0.15477

 The electronic state is 1-A.
 Alpha  occ. eigenvalues --   -1.94482  -1.17687  -0.92684  -0.81440  -0.78157
 Alpha  occ. eigenvalues --   -0.69716  -0.66066  -0.56301  -0.53810  -0.46433
 Alpha  occ. eigenvalues --   -0.44792  -0.43033  -0.30707
 Alpha virt. eigenvalues --    0.10245   0.17165   0.18448   0.25345   0.26932
 Alpha virt. eigenvalues --    0.28722   0.29938   0.30674   0.34061   0.41791
 Alpha virt. eigenvalues --    0.46928

 Mulliken charges:
               1
     1  C   -0.138086
     2  C   -1.932237
     3  O    3.217796
     4  C   -1.906447
     5  C   -0.120394
     6  H    0.159058
     7  H    0.270716
     8  H    0.288538
     9  H    0.161056
 Sum of Mulliken charges =   0.00000

 Dipole moment (field-independent basis, Debye):
    X=              2.9602    Y=             -9.4492    Z=             -0.3481  Tot=              9.9081
 N-N= 1.039984698622D+02 E-N=-1.690230638943D+02  KE=-1.531643164040D+01
 Orbital energies and kinetic energies (alpha):
                                 1                 2
   1         O                -1.944818         -1.381841
   2         O                -1.176867         -1.036571
   3         O                -0.926836         -0.867081
   4         O                -0.814396         -0.572813
   5         O                -0.781567         -0.688068
   6         O                -0.697159         -0.597999
   7         O                -0.660656         -0.519391

 Normal termination of Gaussian 09 at Tue Dec 15 17:09:12 2015.
