 Gaussian 09, Revision D.01,
 Gaussian 09:  ES64L-G09RevD.01 24-Apr-2013

 ------------------------------------------------------------
 #P AM1(Input,print) CIS(Singlets,NStates=15) pop(full) force
 ------------------------------------------------------------

 -----------------
 AM1-Reparam Input
 -----------------
 Symbolic Z-matrix:
 Charge =  0 Multiplicity = 1

                         Standard orientation:
 ---------------------------------------------------------------------
 Center     Atomic      Atomic             Coordinates (Angstroms)
 Number     Number       Type             X           Y           Z
 ---------------------------------------------------------------------
      1          6           0       -0.580822    0.998465   -0.038253
      2          6           0       -1.094022   -0.221458    0.050986
      3          8           0       -0.151048   -1.125212   -0.037750
      4          6           0        1.033067   -0.491337    0.032976
      5          6           0        0.801596    0.893040    0.012313
      6          1           0        1.655578    1.614624   -0.044816
      7          1           0        1.897739   -1.124745   -0.014281
      8          1           0       -2.165750   -0.502364   -0.007960
      9          1           0       -1.138090    1.941924    0.020924
 ---------------------------------------------------------------------

 SCF Done:  E(RAM1) =   2.82343590834     A.U. after   13 cycles

 Excitation energies and oscillator strengths:

 Excited State   1:      Singlet-A      5.5225 eV  224.51 nm  f=0.3180  <S**2>=0.000
      13 -> 14         0.69202
 This state for optimization and/or second-order correction.
 Total Energy, E(CIS) =   3.02638316964
 Copying the excited state density for this state as the 1-particle RhoCI density.

 Excited State   2:      Singlet-A      6.5438 eV  189.47 nm  f=0.0060  <S**2>=0.000
      13 -> 15         0.64473
      13 -> 16         0.11144
      13 -> 17         0.19609

 Excited State   3:      Singlet-A      6.8905 eV  179.94 nm  f=0.0019  <S**2>=0.000
      13 -> 15        -0.12189
      13 -> 16         0.61159
      13 -> 17         0.17630
      13 -> 18        -0.17311
      13 -> 19        -0.11717

 Excited State   4:      Singlet-A      6.9387 eV  178.69 nm  f=0.0008  <S**2>=0.000
       9 -> 14        -0.13826
      12 -> 14         0.68078

 Excited State   5:      Singlet-A      7.6405 eV  162.27 nm  f=0.0056  <S**2>=0.000
      10 -> 14         0.58958
      11 -> 14         0.35272

 Excited State   6:      Singlet-A      8.0645 eV  153.74 nm  f=0.0067  <S**2>=0.000
      11 -> 16         0.14660
      13 -> 16        -0.19182
      13 -> 17         0.55021
      13 -> 18        -0.16687
      13 -> 19         0.11130
      13 -> 21        -0.23345

 Excited State   7:      Singlet-A      8.1532 eV  152.07 nm  f=0.0081  <S**2>=0.000
      11 -> 15        -0.10256
      13 -> 15        -0.13234
      13 -> 17         0.31106
      13 -> 18         0.41341
      13 -> 20        -0.12354
      13 -> 21         0.41835

 Excited State   8:      Singlet-A      8.5705 eV  144.66 nm  f=0.0973  <S**2>=0.000
      10 -> 14        -0.35346
      11 -> 14         0.58972

 Excited State   9:      Singlet-A      8.7066 eV  142.40 nm  f=0.0009  <S**2>=0.000
      13 -> 16         0.13335
      13 -> 18         0.18554
      13 -> 19         0.62673
      13 -> 21        -0.12525

 Excited State  10:      Singlet-A      9.1433 eV  135.60 nm  f=0.0006  <S**2>=0.000
      13 -> 18         0.46712
      13 -> 19        -0.25287
      13 -> 20         0.14875
      13 -> 21        -0.42289

 Excited State  11:      Singlet-A      9.3382 eV  132.77 nm  f=0.0299  <S**2>=0.000
       8 -> 15         0.11384
       9 -> 15         0.13726
       9 -> 18         0.12673
      10 -> 15         0.25387
      10 -> 16         0.14667
      10 -> 17         0.28081
      11 -> 16         0.10438
      11 -> 17         0.14665
      12 -> 16         0.22678
      12 -> 17         0.10072
      12 -> 18        -0.20601
      12 -> 19         0.12863
      12 -> 21        -0.14272
      13 -> 20        -0.20270

 Excited State  12:      Singlet-A      9.3860 eV  132.09 nm  f=0.0944  <S**2>=0.000
       9 -> 15         0.11169
      10 -> 15         0.17574
      12 -> 15         0.62270
      12 -> 17         0.11296

 Excited State  13:      Singlet-A      9.5369 eV  130.00 nm  f=0.0894  <S**2>=0.000
      13 -> 20         0.62190
      13 -> 21         0.20758

 Excited State  14:      Singlet-A      9.7661 eV  126.95 nm  f=0.0202  <S**2>=0.000
       9 -> 14        -0.14752
      10 -> 15        -0.24461
      11 -> 15         0.48151
      11 -> 16         0.27996
      11 -> 17         0.14955
      13 -> 15        -0.11949
      13 -> 16         0.11000
      13 -> 21         0.10101

 Excited State  15:      Singlet-A      9.8202 eV  126.25 nm  f=0.0420  <S**2>=0.000
       9 -> 14         0.49797
      10 -> 16         0.21844
      11 -> 16         0.14598
      12 -> 14         0.10101
      12 -> 16        -0.32486
      12 -> 17        -0.13095

 The electronic state is 1-A.
 Alpha  occ. eigenvalues --   -1.73871  -1.12833  -0.92609  -0.79520  -0.74587
 Alpha  occ. eigenvalues --   -0.66450  -0.64505  -0.54034  -0.49038  -0.42964
 Alpha  occ. eigenvalues --   -0.42703  -0.40535  -0.29750
 Alpha virt. eigenvalues --    0.11653   0.17329   0.19199   0.23796   0.26731
 Alpha virt. eigenvalues --    0.27476   0.28892   0.30614   0.39818   0.48559
 Alpha virt. eigenvalues --    0.52851

 Mulliken charges:
               1
     1  C   -0.137996
     2  C   -1.977178
     3  O    3.214879
     4  C   -1.976867
     5  C   -0.111168
     6  H    0.181407
     7  H    0.296606
     8  H    0.328466
     9  H    0.181851
 Sum of Mulliken charges =   0.00000

 Dipole moment (field-independent basis, Debye):
    X=             -1.8228    Y=             -9.5366    Z=             -1.2736  Tot=              9.7924
 N-N= 1.045080697504D+02 E-N=-1.700945774981D+02  KE=-1.480669247293D+01
 Orbital energies and kinetic energies (alpha):
                                 1                 2
   1         O                -1.738711         -1.252385
   2         O                -1.128330         -0.990184
   3         O                -0.926093         -0.842010
   4         O                -0.795200         -0.594976
   5         O                -0.745875         -0.675132
   6         O                -0.664496         -0.565636
   7         O                -0.645055         -0.536549

 Normal termination of Gaussian 09 at Tue Dec 15 17:06:04 2015.
