 Gaussian 09, Revision D.01,
 Gaussian 09:  ES64L-G09RevD.01 24-Apr-2013

 ------------------------------------------------------------
 #P AM1(Input,print) CIS(Singlets,NStates=15) pop(full) force
 ------------------------------------------------------------

 -----------------
 AM1-Reparam Input
 -----------------
 Symbolic Z-matrix:
 Charge =  0 Multiplicity = 1

                         Standard orientation:
 ---------------------------------------------------------------------
 Center     Atomic      Atomic             Coordinates (Angstroms)
 Number     Number       Type             X           Y           Z
 ---------------------------------------------------------------------
      1          6           0       -0.743460    0.905586    0.007329
      2          6           0       -1.067291   -0.314285    0.004573
      3          8           0        0.009564   -1.178529    0.003626
      4          6           0        1.093313   -0.336497   -0.019341
      5          6           0        0.704809    0.997165   -0.017738
      6          1           0        1.398201    1.779010    0.077998
      7          1           0        2.038640   -0.796708    0.062001
      8          1           0       -2.043865   -0.840370   -0.004796
      9          1           0       -1.393711    1.774489   -0.013147
 ---------------------------------------------------------------------

 SCF Done:  E(RAM1) =   1.43258301351     A.U. after   13 cycles

 Excitation energies and oscillator strengths:

 Excited State   1:      Singlet-A      5.7698 eV  214.88 nm  f=0.1732  <S**2>=0.000
      13 -> 14         0.53969
      13 -> 15         0.42532
 This state for optimization and/or second-order correction.
 Total Energy, E(CIS) =   1.64462079847
 Copying the excited state density for this state as the 1-particle RhoCI density.

 Excited State   2:      Singlet-A      5.8486 eV  211.99 nm  f=0.1254  <S**2>=0.000
      13 -> 14        -0.42962
      13 -> 15         0.53511

 Excited State   3:      Singlet-A      6.2686 eV  197.79 nm  f=0.0057  <S**2>=0.000
      11 -> 16        -0.10130
      13 -> 16         0.65041
      13 -> 17         0.10506
      13 -> 18        -0.14370
      13 -> 20        -0.12921

 Excited State   4:      Singlet-A      7.3514 eV  168.65 nm  f=0.0012  <S**2>=0.000
      11 -> 14         0.27672
      12 -> 14         0.63320

 Excited State   5:      Singlet-A      7.5112 eV  165.07 nm  f=0.0066  <S**2>=0.000
      13 -> 16         0.17503
      13 -> 17        -0.37086
      13 -> 18         0.53562
      13 -> 22         0.12176

 Excited State   6:      Singlet-A      7.9011 eV  156.92 nm  f=0.0035  <S**2>=0.000
      13 -> 19        -0.39657
      13 -> 21         0.28394
      13 -> 22         0.46454

 Excited State   7:      Singlet-A      8.1548 eV  152.04 nm  f=0.0082  <S**2>=0.000
      11 -> 14         0.38137
      12 -> 14        -0.16215
      13 -> 17         0.45936
      13 -> 18         0.30938

 Excited State   8:      Singlet-A      8.4231 eV  147.20 nm  f=0.0009  <S**2>=0.000
      10 -> 14        -0.13669
      13 -> 19         0.46232
      13 -> 20         0.34915
      13 -> 21         0.31562

 Excited State   9:      Singlet-A      8.4766 eV  146.27 nm  f=0.0027  <S**2>=0.000
      10 -> 14         0.65996
      13 -> 20         0.19538

 Excited State  10:      Singlet-A      8.7632 eV  141.48 nm  f=0.0034  <S**2>=0.000
      10 -> 14        -0.14890
      13 -> 19        -0.33540
      13 -> 20         0.45725
      13 -> 22        -0.36796

 Excited State  11:      Singlet-A      9.0021 eV  137.73 nm  f=0.1037  <S**2>=0.000
       8 -> 15        -0.12926
      11 -> 14        -0.34873
      12 -> 14         0.16945
      12 -> 15         0.36201
      12 -> 16        -0.10125
      13 -> 17         0.27286
      13 -> 18         0.20191
      13 -> 22        -0.10989

 Excited State  12:      Singlet-A      9.0782 eV  136.57 nm  f=0.0621  <S**2>=0.000
      11 -> 14         0.12216
      11 -> 15        -0.25296
      11 -> 16         0.19819
      13 -> 17        -0.12367
      13 -> 20        -0.23388
      13 -> 21         0.43244
      13 -> 22        -0.28483
      13 -> 23         0.13058

 Excited State  13:      Singlet-A      9.1441 eV  135.59 nm  f=0.0079  <S**2>=0.000
      11 -> 15         0.51722
      11 -> 16         0.26569
      12 -> 15        -0.11706
      12 -> 16        -0.19105
      13 -> 16         0.11277
      13 -> 21         0.20754

 Excited State  14:      Singlet-A      9.3184 eV  133.05 nm  f=0.3186  <S**2>=0.000
       8 -> 15        -0.17179
      11 -> 14         0.32832
      12 -> 14        -0.14124
      12 -> 15         0.46073
      12 -> 16        -0.17847
      13 -> 17        -0.15103
      13 -> 21        -0.10507

 Excited State  15:      Singlet-A      9.4556 eV  131.12 nm  f=0.0312  <S**2>=0.000
      11 -> 15        -0.27288
      11 -> 16         0.47257
      12 -> 16        -0.21244
      13 -> 16         0.11295
      13 -> 20         0.18506
      13 -> 21        -0.20825
      13 -> 22         0.12425

 The electronic state is 1-A.
 Alpha  occ. eigenvalues --   -1.88717  -1.19774  -0.96033  -0.78722  -0.77036
 Alpha  occ. eigenvalues --   -0.67898  -0.61905  -0.48501  -0.47636  -0.40149
 Alpha  occ. eigenvalues --   -0.36903  -0.36637  -0.23238
 Alpha virt. eigenvalues --    0.18259   0.20726   0.23005   0.29525   0.29547
 Alpha virt. eigenvalues --    0.32098   0.34217   0.34994   0.36325   0.40534
 Alpha virt. eigenvalues --    0.44897

 Mulliken charges:
               1
     1  C   -0.030025
     2  C   -1.478752
     3  O    2.750799
     4  C   -1.539601
     5  C   -0.108770
     6  H    0.065099
     7  H    0.151283
     8  H    0.138074
     9  H    0.051895
 Sum of Mulliken charges =   0.00000

 Dipole moment (field-independent basis, Debye):
    X=             -0.3845    Y=            -10.1935    Z=              0.2757  Tot=             10.2045
 N-N= 1.037055591975D+02 E-N=-1.702107605294D+02  KE=-1.587223258535D+01
 Orbital energies and kinetic energies (alpha):
                                 1                 2
   1         O                -1.887166         -1.374807
   2         O                -1.197740         -1.086272
   3         O                -0.960330         -0.898032
   4         O                -0.787219         -0.621076
   5         O                -0.770363         -0.699481
   6         O                -0.678977         -0.622311
   7         O                -0.619055         -0.547347

 Normal termination of Gaussian 09 at Tue Dec 15 17:07:53 2015.
