 Gaussian 09, Revision D.01,
 Gaussian 09:  ES64L-G09RevD.01 24-Apr-2013

 ------------------------------------------------------------
 #P AM1(Input,print) CIS(Singlets,NStates=15) pop(full) force
 ------------------------------------------------------------

 -----------------
 AM1-Reparam Input
 -----------------
 Symbolic Z-matrix:
 Charge =  0 Multiplicity = 1

                         Standard orientation:
 ---------------------------------------------------------------------
 Center     Atomic      Atomic             Coordinates (Angstroms)
 Number     Number       Type             X           Y           Z
 ---------------------------------------------------------------------
      1          6           0        0.906798    0.776835   -0.013504
      2          6           0        1.034385   -0.574751    0.020855
      3          8           0       -0.305036   -1.109669   -0.002194
      4          6           0       -1.147473   -0.105361   -0.002074
      5          6           0       -0.458687    1.060529   -0.015200
      6          1           0       -0.909003    2.133576    0.071905
      7          1           0       -2.221451   -0.316488    0.014679
      8          1           0        1.834847   -1.276483   -0.028184
      9          1           0        1.725766    1.393239    0.018693
 ---------------------------------------------------------------------

 SCF Done:  E(RAM1) =  -4.90692902740     A.U. after   14 cycles

 Excitation energies and oscillator strengths:

 Excited State   1:      Singlet-A      6.8934 eV  179.86 nm  f=0.2504  <S**2>=0.000
      12 -> 14        -0.16759
      13 -> 14         0.66409
 This state for optimization and/or second-order correction.
 Total Energy, E(CIS) =  -4.65360210929
 Copying the excited state density for this state as the 1-particle RhoCI density.

 Excited State   2:      Singlet-A      7.2291 eV  171.51 nm  f=0.0048  <S**2>=0.000
      12 -> 14         0.15774
      13 -> 15         0.63795
      13 -> 16         0.14921
      13 -> 17        -0.10679
      13 -> 18         0.12556

 Excited State   3:      Singlet-A      7.3755 eV  168.10 nm  f=0.0266  <S**2>=0.000
      12 -> 14         0.65696
      13 -> 14         0.16007
      13 -> 15        -0.14769

 Excited State   4:      Singlet-A      7.9639 eV  155.68 nm  f=0.0066  <S**2>=0.000
      11 -> 14        -0.30418
      13 -> 15        -0.15377
      13 -> 16         0.58257
      13 -> 17        -0.10114
      13 -> 21        -0.11938

 Excited State   5:      Singlet-A      8.0658 eV  153.72 nm  f=0.0049  <S**2>=0.000
      11 -> 14         0.62712
      13 -> 16         0.29549

 Excited State   6:      Singlet-A      9.1016 eV  136.22 nm  f=0.0137  <S**2>=0.000
      10 -> 16         0.10256
      13 -> 16         0.11132
      13 -> 17         0.66958

 Excited State   7:      Singlet-A      9.2941 eV  133.40 nm  f=0.0279  <S**2>=0.000
      10 -> 14         0.24952
      12 -> 15         0.37393
      12 -> 18         0.10988
      13 -> 18        -0.22688
      13 -> 19         0.44827

 Excited State   8:      Singlet-A      9.3900 eV  132.04 nm  f=0.0188  <S**2>=0.000
      10 -> 14         0.17237
      11 -> 15         0.10306
      12 -> 15        -0.35225
      12 -> 18        -0.11318
      13 -> 17         0.10515
      13 -> 18         0.30881
      13 -> 19         0.42168

 Excited State   9:      Singlet-A      9.4398 eV  131.34 nm  f=0.0257  <S**2>=0.000
      12 -> 15         0.37694
      12 -> 18         0.10662
      13 -> 18         0.53173

 Excited State  10:      Singlet-A      9.8852 eV  125.42 nm  f=0.0237  <S**2>=0.000
       8 -> 15         0.14104
       9 -> 15        -0.16521
      11 -> 15         0.37880
      11 -> 16         0.13740
      11 -> 17        -0.20394
      11 -> 18         0.13170
      12 -> 15         0.10764
      12 -> 16        -0.33361
      12 -> 17         0.17615
      12 -> 21         0.11761
      12 -> 22        -0.10655

 Excited State  11:      Singlet-A     10.1641 eV  121.98 nm  f=0.0339  <S**2>=0.000
      10 -> 15         0.10051
      10 -> 16         0.13520
      11 -> 16         0.10620
      12 -> 16         0.14902
      13 -> 20        -0.34689
      13 -> 21         0.41918
      13 -> 22        -0.29932

 Excited State  12:      Singlet-A     10.2301 eV  121.20 nm  f=0.1849  <S**2>=0.000
      11 -> 15         0.15482
      11 -> 16         0.24981
      11 -> 17        -0.14548
      12 -> 16         0.41361
      12 -> 17         0.19020
      12 -> 18         0.20920
      12 -> 21        -0.11867
      13 -> 20         0.26939

 Excited State  13:      Singlet-A     10.3310 eV  120.01 nm  f=0.0155  <S**2>=0.000
      10 -> 14         0.23504
      10 -> 15         0.14731
      11 -> 15        -0.11320
      11 -> 16        -0.20902
      12 -> 16        -0.12113
      12 -> 17         0.29380
      13 -> 19        -0.16879
      13 -> 20         0.35252
      13 -> 21         0.19843
      13 -> 22        -0.13245

 Excited State  14:      Singlet-A     10.3651 eV  119.62 nm  f=0.0367  <S**2>=0.000
       8 -> 16         0.10658
      10 -> 14        -0.23664
      10 -> 15         0.12099
      12 -> 17        -0.33933
      13 -> 18        -0.15221
      13 -> 19         0.10600
      13 -> 20         0.37343
      13 -> 21         0.23913
      13 -> 22        -0.13504

 Excited State  15:      Singlet-A     10.5802 eV  117.19 nm  f=0.1663  <S**2>=0.000
      10 -> 14        -0.30831
      11 -> 15        -0.10430
      11 -> 16        -0.30408
      11 -> 17        -0.13128
      11 -> 20        -0.15524
      12 -> 15        -0.10415
      12 -> 17         0.13371
      12 -> 18         0.35177
      13 -> 19         0.18364

 The electronic state is 1-A.
 Alpha  occ. eigenvalues --   -3.96888  -1.22728  -0.92516  -0.91475  -0.90485
 Alpha  occ. eigenvalues --   -0.80906  -0.70581  -0.53333  -0.51843  -0.47864
 Alpha  occ. eigenvalues --   -0.43179  -0.40644  -0.33275
 Alpha virt. eigenvalues --    0.14359   0.16773   0.20372   0.24020   0.25529
 Alpha virt. eigenvalues --    0.25780   0.28697   0.33092   0.35540   0.37907
 Alpha virt. eigenvalues --    0.42222

 Mulliken charges:
               1
     1  C   -0.268343
     2  C   -1.569451
     3  O    2.790573
     4  C   -1.589269
     5  C   -0.324025
     6  H    0.206910
     7  H    0.279829
     8  H    0.257598
     9  H    0.216179
 Sum of Mulliken charges =   0.00000

 Dipole moment (field-independent basis, Debye):
    X=             -3.2437    Y=             -9.7338    Z=             -0.0702  Tot=             10.2603
 N-N= 1.046129265495D+02 E-N=-1.716219091732D+02  KE=-2.310346693045D+01
 Orbital energies and kinetic energies (alpha):
                                 1                 2
   1         O                -3.968881         -3.280689
   2         O                -1.227278         -1.201331
   3         O                -0.925157         -0.971897
   4         O                -0.914750         -0.922492
   5         O                -0.904845         -0.882927
   6         O                -0.809063         -0.799659
   7         O                -0.705807         -0.686772

 Normal termination of Gaussian 09 at Fri Dec 11 13:41:25 2015.
