 Gaussian 09, Revision D.01,
 Gaussian 09:  ES64L-G09RevD.01 24-Apr-2013

 ------------------------------------------------------------
 #P AM1(Input,print) CIS(Singlets,NStates=15) pop(full) force
 ------------------------------------------------------------

 -----------------
 AM1-Reparam Input
 -----------------
 Symbolic Z-matrix:
 Charge =  0 Multiplicity = 1

                         Standard orientation:
 ---------------------------------------------------------------------
 Center     Atomic      Atomic             Coordinates (Angstroms)
 Number     Number       Type             X           Y           Z
 ---------------------------------------------------------------------
      1          6           0       -0.854886    0.855175    0.007371
      2          6           0       -1.039381   -0.523795   -0.018260
      3          8           0        0.161980   -1.110345    0.011342
      4          6           0        1.149741   -0.200510   -0.033841
      5          6           0        0.565601    1.020617    0.019370
      6          1           0        1.073919    1.971679   -0.025861
      7          1           0        2.154652   -0.508292    0.067459
      8          1           0       -1.846721   -1.133546    0.036402
      9          1           0       -1.604135    1.643992   -0.016579
 ---------------------------------------------------------------------

 SCF Done:  E(RAM1) =   2.58515463525     A.U. after   13 cycles

 Excitation energies and oscillator strengths:

 Excited State   1:      Singlet-A      5.1253 eV  241.91 nm  f=0.3663  <S**2>=0.000
      13 -> 14         0.69901
 This state for optimization and/or second-order correction.
 Total Energy, E(CIS) =   2.77350579681
 Copying the excited state density for this state as the 1-particle RhoCI density.

 Excited State   2:      Singlet-A      6.4496 eV  192.24 nm  f=0.0004  <S**2>=0.000
      12 -> 14        -0.16842
      13 -> 15         0.63297
      13 -> 16        -0.12433
      13 -> 17        -0.15203
      13 -> 19        -0.13571

 Excited State   3:      Singlet-A      6.5272 eV  189.95 nm  f=0.0005  <S**2>=0.000
      12 -> 14         0.67242
      13 -> 15         0.14707
      13 -> 16        -0.11550

 Excited State   4:      Singlet-A      6.7062 eV  184.88 nm  f=0.0061  <S**2>=0.000
      13 -> 15         0.15094
      13 -> 16         0.65856
      13 -> 18        -0.10500

 Excited State   5:      Singlet-A      7.3896 eV  167.78 nm  f=0.0040  <S**2>=0.000
      10 -> 14         0.62372
      11 -> 14         0.31032

 Excited State   6:      Singlet-A      7.9064 eV  156.82 nm  f=0.0001  <S**2>=0.000
      13 -> 15         0.13923
      13 -> 17         0.66965
      13 -> 21        -0.12113

 Excited State   7:      Singlet-A      8.3645 eV  148.23 nm  f=0.1268  <S**2>=0.000
      10 -> 14        -0.31067
      11 -> 14         0.62739

 Excited State   8:      Singlet-A      9.3864 eV  132.09 nm  f=0.0098  <S**2>=0.000
       9 -> 15         0.12317
      10 -> 16         0.23663
      10 -> 18        -0.16557
      11 -> 16         0.10487
      12 -> 15         0.40360
      12 -> 16        -0.17089
      12 -> 17        -0.37017

 Excited State   9:      Singlet-A      9.4766 eV  130.83 nm  f=0.0046  <S**2>=0.000
       7 -> 16        -0.12803
      10 -> 15        -0.10893
      11 -> 15         0.36177
      13 -> 18         0.56828

 Excited State  10:      Singlet-A      9.6808 eV  128.07 nm  f=0.0497  <S**2>=0.000
       7 -> 15        -0.12197
      11 -> 16         0.39430
      12 -> 15        -0.22592
      13 -> 19         0.48550

 Excited State  11:      Singlet-A      9.7898 eV  126.65 nm  f=0.1712  <S**2>=0.000
      10 -> 15        -0.17740
      10 -> 16        -0.22804
      12 -> 15         0.43581
      12 -> 16         0.29293
      12 -> 17         0.10470
      12 -> 19        -0.10155
      13 -> 19         0.24895

 Excited State  12:      Singlet-A     10.0400 eV  123.49 nm  f=0.1154  <S**2>=0.000
      10 -> 15        -0.28609
      10 -> 16         0.33896
      10 -> 19         0.10517
      11 -> 15        -0.13045
      11 -> 16         0.14447
      12 -> 15        -0.16091
      12 -> 16         0.40155
      12 -> 17        -0.13827

 Excited State  13:      Singlet-A     10.3558 eV  119.72 nm  f=0.0004  <S**2>=0.000
       9 -> 14         0.57076
      10 -> 16        -0.14198
      11 -> 16         0.27175
      13 -> 19        -0.20122

 Excited State  14:      Singlet-A     10.4604 eV  118.53 nm  f=0.0040  <S**2>=0.000
      10 -> 15        -0.24455
      11 -> 15         0.48266
      13 -> 16        -0.13531
      13 -> 18        -0.37047
      13 -> 20         0.11682

 Excited State  15:      Singlet-A     10.5102 eV  117.97 nm  f=0.0012  <S**2>=0.000
       9 -> 14        -0.37893
      10 -> 16        -0.16411
      11 -> 16         0.38257
      13 -> 15        -0.13588
      13 -> 19        -0.32842

 The electronic state is 1-A.
 Alpha  occ. eigenvalues --   -1.85948  -1.12483  -0.89522  -0.80219  -0.75712
 Alpha  occ. eigenvalues --   -0.67478  -0.64101  -0.57943  -0.55529  -0.46229
 Alpha  occ. eigenvalues --   -0.45760  -0.43784  -0.31572
 Alpha virt. eigenvalues --    0.07281   0.16548   0.16938   0.23829   0.27237
 Alpha virt. eigenvalues --    0.28830   0.34132   0.38285   0.49619   0.56501
 Alpha virt. eigenvalues --    0.61824

 Mulliken charges:
               1
     1  C   -0.176030
     2  C   -2.012194
     3  O    3.437839
     4  C   -2.010503
     5  C   -0.190524
     6  H    0.204206
     7  H    0.284256
     8  H    0.265627
     9  H    0.197322
 Sum of Mulliken charges =   0.00000

 Dipole moment (field-independent basis, Debye):
    X=              1.6674    Y=            -10.0541    Z=              0.7557  Tot=             10.2194
 N-N= 1.043217494897D+02 E-N=-1.699624854693D+02  KE=-1.438509252410D+01
 Orbital energies and kinetic energies (alpha):
                                 1                 2
   1         O                -1.859477         -1.271279
   2         O                -1.124826         -0.952235
   3         O                -0.895225         -0.777894
   4         O                -0.802193         -0.552712
   5         O                -0.757118         -0.640081
   6         O                -0.674784         -0.548605
   7         O                -0.641013         -0.497288

 Normal termination of Gaussian 09 at Tue Dec 15 17:07:43 2015.
