 Gaussian 09, Revision D.01,
 Gaussian 09:  ES64L-G09RevD.01 24-Apr-2013

 -------------------------------------------------------
 #P B3LYP/3-21G CIS(Singlets,NStates=15) pop(full) force
 -------------------------------------------------------

 --------
 FuranDFT
 --------
 Symbolic Z-matrix:
 Charge =  0 Multiplicity = 1

                         Standard orientation:
 ---------------------------------------------------------------------
 Center     Atomic      Atomic             Coordinates (Angstroms)
 Number     Number       Type             X           Y           Z
 ---------------------------------------------------------------------
      1          6           0       -0.589631    1.054575   -0.016792
      2          6           0       -1.111765   -0.243624    0.022295
      3          8           0       -0.166484   -1.104616   -0.019738
      4          6           0        1.022811   -0.500155    0.018573
      5          6           0        0.862725    0.830863    0.001271
      6          1           0        1.536019    1.614345    0.031805
      7          1           0        1.917824   -1.073725   -0.032990
      8          1           0       -2.131600   -0.546810    0.034210
      9          1           0       -1.095214    1.993169   -0.027213
 ---------------------------------------------------------------------

 SCF Done:  E(RB3LYP) =  -228.733486165     A.U. after   15 cycles

 Excitation energies and oscillator strengths:

 Excited State   1:      Singlet-A      7.1892 eV  172.46 nm  f=0.0187  <S**2>=0.000
      17 -> 19        -0.45633
      18 -> 19        -0.21936
      18 -> 20         0.48366
 This state for optimization and/or second-order correction.
 Total Energy, E(CIS) =  -228.469286748
 Copying the excited state density for this state as the 1-particle RhoCI density.

 Excited State   2:      Singlet-A      7.5863 eV  163.43 nm  f=0.2204  <S**2>=0.000
      17 -> 19        -0.19294
      18 -> 19         0.64666
      18 -> 20         0.12561

 Excited State   3:      Singlet-A      8.8772 eV  139.67 nm  f=0.0127  <S**2>=0.000
      16 -> 19         0.68688

 Excited State   4:      Singlet-A      9.1002 eV  136.24 nm  f=0.0148  <S**2>=0.000
      17 -> 20         0.11293
      18 -> 21         0.64054
      18 -> 22        -0.22537

 Excited State   5:      Singlet-A      9.2621 eV  133.86 nm  f=0.2035  <S**2>=0.000
      16 -> 19        -0.10811
      17 -> 19         0.20307
      17 -> 20         0.56505
      18 -> 20         0.23932
      18 -> 21        -0.17183

 Excited State   6:      Singlet-A      9.3802 eV  132.18 nm  f=0.0040  <S**2>=0.000
      18 -> 21         0.21736
      18 -> 22         0.65255

 Excited State   7:      Singlet-A      9.8101 eV  126.38 nm  f=0.4789  <S**2>=0.000
      16 -> 20        -0.14019
      17 -> 19         0.39119
      17 -> 20        -0.32419
      18 -> 20         0.36903

 Excited State   8:      Singlet-A      9.9167 eV  125.03 nm  f=0.0045  <S**2>=0.000
      15 -> 19         0.19787
      16 -> 20         0.14375
      17 -> 21        -0.20537
      18 -> 23         0.60906

 Excited State   9:      Singlet-A     10.0687 eV  123.14 nm  f=0.0080  <S**2>=0.000
      14 -> 19         0.12599
      15 -> 19         0.50816
      16 -> 20        -0.43292
      17 -> 21         0.13051

 Excited State  10:      Singlet-A     10.1083 eV  122.66 nm  f=0.0224  <S**2>=0.000
      14 -> 19        -0.11902
      15 -> 19         0.43084
      16 -> 20         0.46314
      18 -> 23        -0.20493

 Excited State  11:      Singlet-A     10.2757 eV  120.66 nm  f=0.0111  <S**2>=0.000
      17 -> 21         0.57101
      17 -> 22        -0.29986
      18 -> 23         0.24518

 Excited State  12:      Singlet-A     10.5300 eV  117.74 nm  f=0.0037  <S**2>=0.000
      17 -> 21         0.30349
      17 -> 22         0.62205

 Excited State  13:      Singlet-A     10.6572 eV  116.34 nm  f=0.0003  <S**2>=0.000
      18 -> 24         0.68677

 Excited State  14:      Singlet-A     10.8860 eV  113.89 nm  f=0.0021  <S**2>=0.000
      14 -> 19         0.64874
      15 -> 20        -0.20500
      16 -> 20         0.13866

 Excited State  15:      Singlet-A     11.0465 eV  112.24 nm  f=0.0039  <S**2>=0.000
      15 -> 20         0.19457
      18 -> 25         0.65465

 The electronic state is 1-A.
 Alpha  occ. eigenvalues --  -19.12229 -10.17627 -10.17127 -10.12129 -10.11864
 Alpha  occ. eigenvalues --   -1.16853  -0.79870  -0.76328  -0.61339  -0.57157
 Alpha  occ. eigenvalues --   -0.55107  -0.47190  -0.46420  -0.42285  -0.39387
 Alpha  occ. eigenvalues --   -0.35351  -0.27307  -0.23019
 Alpha virt. eigenvalues --    0.03191   0.07477   0.14787   0.15815   0.18220
 Alpha virt. eigenvalues --    0.20000   0.22416   0.24560   0.36722   0.40897
 Alpha virt. eigenvalues --    0.48308   0.69285   0.69768   0.71665   0.74307

 Mulliken charges:
               1
     1  C   -0.267244
     2  C    0.133387
     3  O   -0.513229
     4  C    0.105241
     5  C   -0.265283
     6  H    0.189134
     7  H    0.217635
     8  H    0.218551
     9  H    0.181809
 Sum of Mulliken charges =   0.00000

 Dipole moment (field-independent basis, Debye):
    X=              0.0887    Y=              0.5036    Z=              0.0166  Tot=              0.5116
 Quadrupole moment (field-independent basis, Debye-Ang):
   XX=            -23.9736   YY=            -27.7939   ZZ=            -31.6843
   XY=             -0.4235   XZ=             -0.0964   YZ=              0.0184

 Normal termination of Gaussian 09 at Tue Dec 15 16:26:29 2015.
