 Gaussian 09, Revision D.01,
 Gaussian 09:  ES64L-G09RevD.01 24-Apr-2013

 ------------------------------------------------------------
 #P AM1(Input,print) CIS(Singlets,NStates=15) pop(full) force
 ------------------------------------------------------------

 -----------------
 AM1-Reparam Input
 -----------------
 Symbolic Z-matrix:
 Charge =  0 Multiplicity = 1

                         Standard orientation:
 ---------------------------------------------------------------------
 Center     Atomic      Atomic             Coordinates (Angstroms)
 Number     Number       Type             X           Y           Z
 ---------------------------------------------------------------------
      1          6           0       -0.876845    0.810863    0.003037
      2          6           0       -1.038661   -0.488756    0.018427
      3          8           0        0.198093   -1.086035   -0.031322
      4          6           0        1.112108   -0.203469    0.036920
      5          6           0        0.596026    1.014068   -0.009220
      6          1           0        1.077561    1.972741   -0.017671
      7          1           0        2.108694   -0.511949   -0.013008
      8          1           0       -1.906568   -1.134547    0.030369
      9          1           0       -1.620199    1.565802   -0.044097
 ---------------------------------------------------------------------

 SCF Done:  E(RAM1) =   2.16126151877     A.U. after   13 cycles

 Excitation energies and oscillator strengths:

 Excited State   1:      Singlet-A      5.1795 eV  239.38 nm  f=0.3631  <S**2>=0.000
      13 -> 14         0.69729
 This state for optimization and/or second-order correction.
 Total Energy, E(CIS) =   2.35160391847
 Copying the excited state density for this state as the 1-particle RhoCI density.

 Excited State   2:      Singlet-A      6.0415 eV  205.22 nm  f=0.0020  <S**2>=0.000
      13 -> 15         0.67797
      13 -> 17         0.11309
      13 -> 19        -0.10032

 Excited State   3:      Singlet-A      6.5419 eV  189.52 nm  f=0.0015  <S**2>=0.000
      13 -> 16         0.66203
      13 -> 17         0.11308
      13 -> 18         0.14549

 Excited State   4:      Singlet-A      6.8451 eV  181.13 nm  f=0.0000  <S**2>=0.000
      12 -> 14         0.70080

 Excited State   5:      Singlet-A      7.6622 eV  161.81 nm  f=0.0002  <S**2>=0.000
      13 -> 16        -0.14886
      13 -> 18         0.61344
      13 -> 20        -0.13046
      13 -> 21         0.24936

 Excited State   6:      Singlet-A      8.1352 eV  152.41 nm  f=0.0107  <S**2>=0.000
      10 -> 14        -0.25942
      11 -> 14         0.51843
      13 -> 17        -0.38211

 Excited State   7:      Singlet-A      8.3281 eV  148.87 nm  f=0.0024  <S**2>=0.000
      10 -> 14        -0.17670
      11 -> 14         0.35331
      13 -> 17         0.55636
      13 -> 19        -0.10537

 Excited State   8:      Singlet-A      8.9486 eV  138.55 nm  f=0.0001  <S**2>=0.000
      13 -> 17         0.10264
      13 -> 18        -0.13257
      13 -> 19         0.66061

 Excited State   9:      Singlet-A      9.0507 eV  136.99 nm  f=0.0843  <S**2>=0.000
      10 -> 14         0.58610
      11 -> 14         0.28778
      12 -> 16         0.13413
      13 -> 22        -0.11911

 Excited State  10:      Singlet-A      9.3927 eV  132.00 nm  f=0.0222  <S**2>=0.000
      12 -> 15         0.11516
      13 -> 18         0.24659
      13 -> 20         0.47579
      13 -> 21        -0.41374

 Excited State  11:      Singlet-A      9.4557 eV  131.12 nm  f=0.1042  <S**2>=0.000
       8 -> 15         0.10407
      11 -> 17        -0.10523
      12 -> 15         0.53467
      12 -> 16        -0.25331
      12 -> 18        -0.24591
      13 -> 21         0.11013

 Excited State  12:      Singlet-A      9.7799 eV  126.77 nm  f=0.0834  <S**2>=0.000
      13 -> 20         0.46367
      13 -> 21         0.49327

 Excited State  13:      Singlet-A      9.8919 eV  125.34 nm  f=0.0396  <S**2>=0.000
       9 -> 15         0.10313
      10 -> 14        -0.15405
      10 -> 15        -0.11006
      11 -> 15         0.19956
      11 -> 17         0.13068
      12 -> 15         0.34349
      12 -> 16         0.41634
      12 -> 18         0.22371

 Excited State  14:      Singlet-A     10.1929 eV  121.64 nm  f=0.1400  <S**2>=0.000
       9 -> 15        -0.10007
      11 -> 15        -0.20778
      11 -> 16        -0.25252
      11 -> 17        -0.18844
      12 -> 16         0.40587
      12 -> 18        -0.33194
      12 -> 21        -0.11505

 Excited State  15:      Singlet-A     10.3684 eV  119.58 nm  f=0.0033  <S**2>=0.000
       7 -> 15        -0.13780
      10 -> 15         0.56295
      10 -> 16         0.11208
      11 -> 15         0.32060
      13 -> 15        -0.11188

 The electronic state is 1-A.
 Alpha  occ. eigenvalues --   -1.97094  -1.19724  -0.96436  -0.82527  -0.78591
 Alpha  occ. eigenvalues --   -0.70404  -0.68076  -0.57071  -0.53699  -0.46533
 Alpha  occ. eigenvalues --   -0.45879  -0.41551  -0.28724
 Alpha virt. eigenvalues --    0.10368   0.16445   0.18407   0.25931   0.26688
 Alpha virt. eigenvalues --    0.29026   0.30546   0.31509   0.34071   0.41680
 Alpha virt. eigenvalues --    0.46840

 Mulliken charges:
               1
     1  C   -0.094400
     2  C   -1.863779
     3  O    3.214590
     4  C   -1.892984
     5  C   -0.248703
     6  H    0.170651
     7  H    0.287097
     8  H    0.270719
     9  H    0.156808
 Sum of Mulliken charges =   0.00000

 Dipole moment (field-independent basis, Debye):
    X=              1.8545    Y=             -9.9436    Z=             -0.8733  Tot=             10.1526
 N-N= 1.051104439000D+02 E-N=-1.707572110739D+02  KE=-1.541496417047D+01
 Orbital energies and kinetic energies (alpha):
                                 1                 2
   1         O                -1.970940         -1.412701
   2         O                -1.197243         -1.038433
   3         O                -0.964363         -0.892243
   4         O                -0.825267         -0.575961
   5         O                -0.785914         -0.700344
   6         O                -0.704038         -0.565635
   7         O                -0.680762         -0.534003

 Normal termination of Gaussian 09 at Tue Dec 15 17:08:45 2015.
