 Gaussian 09, Revision D.01,
 Gaussian 09:  ES64L-G09RevD.01 24-Apr-2013

 ------------------------------------------------------------
 #P AM1(Input,print) CIS(Singlets,NStates=15) pop(full) force
 ------------------------------------------------------------

 -----------------
 AM1-Reparam Input
 -----------------
 Symbolic Z-matrix:
 Charge =  0 Multiplicity = 1

                         Standard orientation:
 ---------------------------------------------------------------------
 Center     Atomic      Atomic             Coordinates (Angstroms)
 Number     Number       Type             X           Y           Z
 ---------------------------------------------------------------------
      1          6           0       -0.357273    1.107183    0.008426
      2          6           0       -1.134583   -0.015534   -0.019840
      3          8           0       -0.369875   -1.079863    0.012951
      4          6           0        0.918742   -0.623146   -0.030174
      5          6           0        0.961139    0.656778    0.000726
      6          1           0        1.851394    1.255369    0.024804
      7          1           0        1.690044   -1.408432    0.072972
      8          1           0       -2.200424   -0.150930    0.036690
      9          1           0       -0.710163    2.191213    0.007102
 ---------------------------------------------------------------------

 SCF Done:  E(RAM1) =   2.15397415692     A.U. after   13 cycles

 Excitation energies and oscillator strengths:

 Excited State   1:      Singlet-A      5.6076 eV  221.10 nm  f=0.3334  <S**2>=0.000
      13 -> 14         0.69402
 This state for optimization and/or second-order correction.
 Total Energy, E(CIS) =   2.36004975312
 Copying the excited state density for this state as the 1-particle RhoCI density.

 Excited State   2:      Singlet-A      6.4376 eV  192.59 nm  f=0.0021  <S**2>=0.000
      13 -> 15         0.66681
      13 -> 16         0.10567
      13 -> 17        -0.14557

 Excited State   3:      Singlet-A      6.5063 eV  190.56 nm  f=0.0006  <S**2>=0.000
      13 -> 15        -0.11272
      13 -> 16         0.66396
      13 -> 19         0.13279

 Excited State   4:      Singlet-A      7.3047 eV  169.73 nm  f=0.0002  <S**2>=0.000
      12 -> 14         0.69927

 Excited State   5:      Singlet-A      8.0464 eV  154.09 nm  f=0.0085  <S**2>=0.000
      11 -> 14         0.63041
      13 -> 17        -0.28370

 Excited State   6:      Singlet-A      8.1721 eV  151.72 nm  f=0.0001  <S**2>=0.000
      11 -> 14        -0.21067
      13 -> 17        -0.25175
      13 -> 18         0.51243
      13 -> 20        -0.19227
      13 -> 21        -0.19922
      13 -> 22         0.18741

 Excited State   7:      Singlet-A      8.3568 eV  148.36 nm  f=0.0039  <S**2>=0.000
      10 -> 16        -0.11561
      11 -> 14         0.22394
      13 -> 17         0.56459
      13 -> 18         0.27321

 Excited State   8:      Singlet-A      9.1418 eV  135.62 nm  f=0.0057  <S**2>=0.000
      10 -> 14         0.21081
      13 -> 18         0.23051
      13 -> 19         0.54906
      13 -> 20         0.23524

 Excited State   9:      Singlet-A      9.1563 eV  135.41 nm  f=0.0398  <S**2>=0.000
      10 -> 14         0.56350
      12 -> 15         0.22923
      13 -> 19        -0.19393
      13 -> 22         0.10806

 Excited State  10:      Singlet-A      9.5677 eV  129.59 nm  f=0.0356  <S**2>=0.000
      10 -> 14         0.11806
      12 -> 15        -0.10331
      12 -> 16         0.22233
      12 -> 18        -0.10371
      13 -> 18         0.23900
      13 -> 19        -0.29927
      13 -> 20         0.32130
      13 -> 21         0.28264
      13 -> 22        -0.20748

 Excited State  11:      Singlet-A      9.5854 eV  129.35 nm  f=0.0543  <S**2>=0.000
       8 -> 15         0.13647
      10 -> 14         0.20796
      11 -> 17         0.15234
      12 -> 15        -0.22842
      12 -> 16         0.41785
      12 -> 18        -0.18094
      13 -> 18        -0.12681
      13 -> 19         0.15663
      13 -> 20        -0.19552
      13 -> 22         0.15806

 Excited State  12:      Singlet-A      9.8792 eV  125.50 nm  f=0.1251  <S**2>=0.000
      10 -> 14        -0.13672
      11 -> 15        -0.31648
      11 -> 17         0.18105
      12 -> 15         0.49721
      12 -> 16         0.11438
      12 -> 18        -0.20516

 Excited State  13:      Singlet-A      9.9767 eV  124.27 nm  f=0.1546  <S**2>=0.000
       9 -> 16        -0.12922
      10 -> 14        -0.10662
      11 -> 15         0.26372
      11 -> 16         0.29812
      11 -> 17        -0.22210
      12 -> 15         0.15933
      12 -> 16         0.39321
      12 -> 17        -0.14259
      12 -> 18         0.15195

 Excited State  14:      Singlet-A     10.0343 eV  123.56 nm  f=0.0658  <S**2>=0.000
      10 -> 16        -0.25750
      13 -> 18        -0.11206
      13 -> 20         0.44275
      13 -> 21        -0.30100
      13 -> 22         0.32441

 Excited State  15:      Singlet-A     10.2217 eV  121.29 nm  f=0.0080  <S**2>=0.000
       7 -> 16         0.10395
      10 -> 15         0.41060
      10 -> 16         0.44768
      13 -> 16         0.14020
      13 -> 19        -0.11042
      13 -> 20         0.15678
      13 -> 21        -0.14689
      13 -> 22         0.14087

 The electronic state is 1-A.
 Alpha  occ. eigenvalues --   -1.95711  -1.21801  -0.94284  -0.81143  -0.78713
 Alpha  occ. eigenvalues --   -0.69578  -0.67441  -0.54990  -0.53624  -0.44878
 Alpha  occ. eigenvalues --   -0.43628  -0.41261  -0.29115
 Alpha virt. eigenvalues --    0.12663   0.17574   0.17686   0.25590   0.27206
 Alpha virt. eigenvalues --    0.30108   0.31269   0.33357   0.33487   0.41687
 Alpha virt. eigenvalues --    0.45840

 Mulliken charges:
               1
     1  C   -0.201061
     2  C   -1.904211
     3  O    3.205086
     4  C   -1.859442
     5  C   -0.100199
     6  H    0.153107
     7  H    0.265348
     8  H    0.278014
     9  H    0.163359
 Sum of Mulliken charges =   0.00000

 Dipole moment (field-independent basis, Debye):
    X=             -3.1813    Y=            -10.1213    Z=              0.7936  Tot=             10.6392
 N-N= 1.050191722837D+02 E-N=-1.708022209529D+02  KE=-1.540483259011D+01
 Orbital energies and kinetic energies (alpha):
                                 1                 2
   1         O                -1.957107         -1.397719
   2         O                -1.218012         -1.066213
   3         O                -0.942845         -0.888848
   4         O                -0.811433         -0.561743
   5         O                -0.787127         -0.688327
   6         O                -0.695776         -0.578088
   7         O                -0.674408         -0.547642

 Normal termination of Gaussian 09 at Tue Dec 15 17:09:29 2015.
