 Gaussian 09, Revision D.01,
 Gaussian 09:  ES64L-G09RevD.01 24-Apr-2013

 ------------------------------------------------------------
 #P AM1(Input,print) CIS(Singlets,NStates=15) pop(full) force
 ------------------------------------------------------------

 -----------------
 AM1-Reparam Input
 -----------------
 Symbolic Z-matrix:
 Charge =  0 Multiplicity = 1

                         Standard orientation:
 ---------------------------------------------------------------------
 Center     Atomic      Atomic             Coordinates (Angstroms)
 Number     Number       Type             X           Y           Z
 ---------------------------------------------------------------------
      1          6           0        0.657691    0.968838    0.044262
      2          6           0        1.142680   -0.235774   -0.032656
      3          8           0        0.098969   -1.115651    0.020825
      4          6           0       -1.072876   -0.403624   -0.016764
      5          6           0       -0.822255    0.845673   -0.004951
      6          1           0       -1.530414    1.715047   -0.027783
      7          1           0       -1.984058   -1.063644    0.006417
      8          1           0        2.122164   -0.697798   -0.032013
      9          1           0        1.169120    1.920926   -0.052563
 ---------------------------------------------------------------------

 SCF Done:  E(RAM1) =   1.85842677608     A.U. after   14 cycles

 Excitation energies and oscillator strengths:

 Excited State   1:      Singlet-A      5.0400 eV  246.00 nm  f=0.3682  <S**2>=0.000
      13 -> 14         0.69548
 This state for optimization and/or second-order correction.
 Total Energy, E(CIS) =   2.04364192640
 Copying the excited state density for this state as the 1-particle RhoCI density.

 Excited State   2:      Singlet-A      6.0564 eV  204.72 nm  f=0.0005  <S**2>=0.000
      13 -> 15         0.66334
      13 -> 16        -0.11193
      13 -> 17         0.13142
      13 -> 19        -0.11517

 Excited State   3:      Singlet-A      6.3087 eV  196.53 nm  f=0.0042  <S**2>=0.000
      13 -> 15         0.12238
      13 -> 16         0.66659
      13 -> 18        -0.12886

 Excited State   4:      Singlet-A      7.0216 eV  176.58 nm  f=0.0007  <S**2>=0.000
      12 -> 14         0.70201

 Excited State   5:      Singlet-A      7.4367 eV  166.72 nm  f=0.0002  <S**2>=0.000
      13 -> 15        -0.12876
      13 -> 17         0.64421
      13 -> 18        -0.13972
      13 -> 21        -0.18459

 Excited State   6:      Singlet-A      8.1444 eV  152.23 nm  f=0.0101  <S**2>=0.000
      11 -> 14         0.65380
      13 -> 18        -0.24252

 Excited State   7:      Singlet-A      8.4133 eV  147.37 nm  f=0.0042  <S**2>=0.000
      11 -> 14         0.25767
      13 -> 16         0.10577
      13 -> 17         0.13052
      13 -> 18         0.62281

 Excited State   8:      Singlet-A      9.0268 eV  137.35 nm  f=0.0004  <S**2>=0.000
      13 -> 19         0.68593

 Excited State   9:      Singlet-A      9.1847 eV  134.99 nm  f=0.0496  <S**2>=0.000
       8 -> 15         0.10551
      10 -> 14         0.58385
      11 -> 17        -0.11193
      12 -> 15        -0.27877
      12 -> 17        -0.12974
      13 -> 22         0.10740

 Excited State  10:      Singlet-A      9.3212 eV  133.01 nm  f=0.0600  <S**2>=0.000
       8 -> 16        -0.10432
      10 -> 14         0.26925
      11 -> 18         0.17408
      12 -> 15         0.39842
      12 -> 16        -0.25223
      12 -> 17         0.33358

 Excited State  11:      Singlet-A      9.8930 eV  125.33 nm  f=0.1326  <S**2>=0.000
      10 -> 14         0.12040
      11 -> 15         0.29058
      11 -> 16         0.14321
      11 -> 18        -0.18082
      12 -> 15         0.42814
      12 -> 16         0.15553
      12 -> 17        -0.29665

 Excited State  12:      Singlet-A      9.9881 eV  124.13 nm  f=0.0207  <S**2>=0.000
      13 -> 17         0.17354
      13 -> 20        -0.36143
      13 -> 21         0.56950

 Excited State  13:      Singlet-A     10.0239 eV  123.69 nm  f=0.0972  <S**2>=0.000
      10 -> 14         0.10249
      11 -> 16        -0.25830
      12 -> 16         0.50730
      12 -> 17         0.11950
      12 -> 18        -0.11780
      13 -> 20         0.28028

 Excited State  14:      Singlet-A     10.0779 eV  123.03 nm  f=0.0966  <S**2>=0.000
      11 -> 16         0.15229
      12 -> 16        -0.19930
      12 -> 17        -0.14221
      13 -> 20         0.51427
      13 -> 21         0.33448

 Excited State  15:      Singlet-A     10.7825 eV  114.99 nm  f=0.1007  <S**2>=0.000
       8 -> 15        -0.13505
       9 -> 15        -0.13522
       9 -> 16        -0.11017
      10 -> 14         0.14797
      10 -> 15         0.33927
      10 -> 16         0.26298
      11 -> 15        -0.28167
      11 -> 19         0.19328
      12 -> 16         0.12013
      12 -> 18         0.17242
      13 -> 22        -0.12937

 The electronic state is 1-A.
 Alpha  occ. eigenvalues --   -2.00737  -1.27444  -1.02568  -0.90148  -0.84795
 Alpha  occ. eigenvalues --   -0.76269  -0.75560  -0.64561  -0.61582  -0.53560
 Alpha  occ. eigenvalues --   -0.51615  -0.48058  -0.34636
 Alpha virt. eigenvalues --    0.04112   0.10248   0.11499   0.19603   0.19902
 Alpha virt. eigenvalues --    0.23111   0.25835   0.27291   0.28335   0.36350
 Alpha virt. eigenvalues --    0.41713

 Mulliken charges:
               1
     1  C   -0.196001
     2  C   -1.855864
     3  O    3.174052
     4  C   -1.851544
     5  C   -0.158522
     6  H    0.161861
     7  H    0.285259
     8  H    0.279146
     9  H    0.161613
 Sum of Mulliken charges =   0.00000

 Dipole moment (field-independent basis, Debye):
    X=              0.6122    Y=            -10.9310    Z=              0.5355  Tot=             10.9612
 N-N= 1.059497292460D+02 E-N=-1.710931639676D+02  KE=-1.565877131369D+01
 Orbital energies and kinetic energies (alpha):
                                 1                 2
   1         O                -2.007367         -1.386819
   2         O                -1.274444         -1.036339
   3         O                -1.025682         -0.890359
   4         O                -0.901481         -0.588210
   5         O                -0.847950         -0.706286
   6         O                -0.762689         -0.584071
   7         O                -0.755603         -0.553102

 Normal termination of Gaussian 09 at Tue Dec 15 17:08:56 2015.
