 Gaussian 09, Revision D.01,
 Gaussian 09:  ES64L-G09RevD.01 24-Apr-2013

 ------------------------------------------------------------
 #P AM1(Input,print) CIS(Singlets,NStates=15) pop(full) force
 ------------------------------------------------------------

 -----------------
 AM1-Reparam Input
 -----------------
 Symbolic Z-matrix:
 Charge =  0 Multiplicity = 1

                         Standard orientation:
 ---------------------------------------------------------------------
 Center     Atomic      Atomic             Coordinates (Angstroms)
 Number     Number       Type             X           Y           Z
 ---------------------------------------------------------------------
      1          6           0       -1.032729    0.572104    0.000414
      2          6           0       -0.867807   -0.779098    0.021517
      3          8           0        0.523989   -1.052383   -0.018254
      4          6           0        1.173568    0.160036    0.029286
      5          6           0        0.178627    1.165936   -0.031989
      6          1           0        0.403013    2.173500    0.036660
      7          1           0        2.222840    0.172623    0.001934
      8          1           0       -1.443409   -1.672987   -0.025621
      9          1           0       -2.084308    1.032058    0.017688
 ---------------------------------------------------------------------

 SCF Done:  E(RAM1) =   2.53433107890     A.U. after   14 cycles

 Excitation energies and oscillator strengths:

 Excited State   1:      Singlet-A      5.6986 eV  217.57 nm  f=0.3023  <S**2>=0.000
      13 -> 14         0.68838
 This state for optimization and/or second-order correction.
 Total Energy, E(CIS) =   2.74374935731
 Copying the excited state density for this state as the 1-particle RhoCI density.

 Excited State   2:      Singlet-A      6.7732 eV  183.05 nm  f=0.0055  <S**2>=0.000
      10 -> 16         0.11415
      13 -> 15         0.65556
      13 -> 17        -0.20040

 Excited State   3:      Singlet-A      7.0711 eV  175.34 nm  f=0.0002  <S**2>=0.000
      10 -> 15         0.15278
      13 -> 16         0.65393
      13 -> 19         0.18095

 Excited State   4:      Singlet-A      7.3315 eV  169.11 nm  f=0.0009  <S**2>=0.000
       9 -> 14        -0.12762
      11 -> 14        -0.15134
      12 -> 14         0.67501

 Excited State   5:      Singlet-A      7.6695 eV  161.66 nm  f=0.0046  <S**2>=0.000
      10 -> 14         0.10366
      11 -> 14         0.67409
      12 -> 14         0.15452

 Excited State   6:      Singlet-A      8.4151 eV  147.33 nm  f=0.0008  <S**2>=0.000
      10 -> 15        -0.10374
      13 -> 17         0.40159
      13 -> 18         0.46810
      13 -> 20         0.11471
      13 -> 21        -0.27754

 Excited State   7:      Singlet-A      8.4962 eV  145.93 nm  f=0.0105  <S**2>=0.000
      10 -> 16         0.17760
      13 -> 15         0.13820
      13 -> 17         0.50774
      13 -> 18        -0.35302
      13 -> 19        -0.11636
      13 -> 21         0.17246

 Excited State   8:      Singlet-A      8.8595 eV  139.94 nm  f=0.0731  <S**2>=0.000
      10 -> 14         0.67216

 Excited State   9:      Singlet-A      9.2162 eV  134.53 nm  f=0.0033  <S**2>=0.000
      10 -> 15        -0.19717
      13 -> 16        -0.11431
      13 -> 18        -0.17303
      13 -> 19         0.61051
      13 -> 21        -0.11988

 Excited State  10:      Singlet-A      9.4315 eV  131.46 nm  f=0.1822  <S**2>=0.000
       9 -> 16         0.14302
       9 -> 19         0.10003
      10 -> 14        -0.12868
      11 -> 15         0.39435
      11 -> 17        -0.26521
      11 -> 18         0.14072
      12 -> 15         0.16393
      12 -> 16        -0.10475
      12 -> 17        -0.19640
      12 -> 18        -0.23800
      13 -> 14         0.12830

 Excited State  11:      Singlet-A      9.8013 eV  126.50 nm  f=0.0116  <S**2>=0.000
      10 -> 15         0.14072
      13 -> 18         0.32017
      13 -> 19         0.18704
      13 -> 20        -0.27336
      13 -> 21         0.47658

 Excited State  12:      Singlet-A      9.9070 eV  125.15 nm  f=0.0128  <S**2>=0.000
       9 -> 15         0.10574
      11 -> 15        -0.19810
      11 -> 16         0.30006
      11 -> 19         0.15048
      12 -> 15         0.48534
      12 -> 16         0.20403
      12 -> 17        -0.17991

 Excited State  13:      Singlet-A      9.9414 eV  124.71 nm  f=0.1366  <S**2>=0.000
       8 -> 15        -0.11412
      11 -> 15         0.26089
      11 -> 16        -0.21922
      11 -> 19        -0.11372
      12 -> 16         0.52977

 Excited State  14:      Singlet-A     10.0985 eV  122.77 nm  f=0.0152  <S**2>=0.000
      10 -> 15         0.56481
      10 -> 16        -0.13981
      12 -> 16         0.12862
      13 -> 16        -0.16319
      13 -> 21        -0.22960

 Excited State  15:      Singlet-A     10.2152 eV  121.37 nm  f=0.0937  <S**2>=0.000
      10 -> 15         0.11314
      10 -> 16         0.19093
      13 -> 19         0.12600
      13 -> 20         0.58911
      13 -> 21         0.25141

 The electronic state is 1-A.
 Alpha  occ. eigenvalues --   -1.71774  -1.16669  -0.94260  -0.80026  -0.77033
 Alpha  occ. eigenvalues --   -0.67394  -0.63423  -0.55249  -0.50869  -0.43090
 Alpha  occ. eigenvalues --   -0.42556  -0.41400  -0.30199
 Alpha virt. eigenvalues --    0.12382   0.18667   0.19182   0.24450   0.27425
 Alpha virt. eigenvalues --    0.28753   0.31305   0.33022   0.37413   0.46615
 Alpha virt. eigenvalues --    0.51162

 Mulliken charges:
               1
     1  C   -0.019769
     2  C   -1.909099
     3  O    3.237347
     4  C   -1.956355
     5  C   -0.088513
     6  H    0.123493
     7  H    0.259053
     8  H    0.233375
     9  H    0.120470
 Sum of Mulliken charges =   0.00000

 Dipole moment (field-independent basis, Debye):
    X=              4.6472    Y=             -9.6875    Z=             -0.6845  Tot=             10.7663
 N-N= 1.033518191483D+02 E-N=-1.679431859395D+02  KE=-1.501297496600D+01
 Orbital energies and kinetic energies (alpha):
                                 1                 2
   1         O                -1.717744         -1.201866
   2         O                -1.166690         -1.021022
   3         O                -0.942595         -0.862048
   4         O                -0.800264         -0.618435
   5         O                -0.770328         -0.676498
   6         O                -0.673938         -0.588541
   7         O                -0.634229         -0.522960

 Normal termination of Gaussian 09 at Tue Dec 15 17:06:24 2015.
