 Gaussian 09, Revision D.01,
 Gaussian 09:  ES64L-G09RevD.01 24-Apr-2013

 -------------------------------------------------------
 #P B3LYP/3-21G CIS(Singlets,NStates=15) pop(full) force
 -------------------------------------------------------

 --------
 FuranDFT
 --------
 Symbolic Z-matrix:
 Charge =  0 Multiplicity = 1

                         Standard orientation:
 ---------------------------------------------------------------------
 Center     Atomic      Atomic             Coordinates (Angstroms)
 Number     Number       Type             X           Y           Z
 ---------------------------------------------------------------------
      1          6           0       -0.695082    0.999306   -0.007815
      2          6           0       -1.097835   -0.365665    0.016671
      3          8           0       -0.007775   -1.141947    0.000639
      4          6           0        1.078678   -0.372664   -0.009648
      5          6           0        0.747365    0.946265   -0.004641
      6          1           0        1.357938    1.753186    0.037363
      7          1           0        1.990748   -0.858447    0.020310
      8          1           0       -2.098460   -0.798087   -0.038623
      9          1           0       -1.386778    1.795466    0.008438
 ---------------------------------------------------------------------

 SCF Done:  E(RB3LYP) =  -228.738727506     A.U. after   14 cycles

 Excitation energies and oscillator strengths:

 Excited State   1:      Singlet-A      7.0477 eV  175.92 nm  f=0.0002  <S**2>=0.000
      17 -> 19         0.49934
      18 -> 20         0.49346
 This state for optimization and/or second-order correction.
 Total Energy, E(CIS) =  -228.479728720
 Copying the excited state density for this state as the 1-particle RhoCI density.

 Excited State   2:      Singlet-A      7.2490 eV  171.04 nm  f=0.2386  <S**2>=0.000
      18 -> 19         0.68205

 Excited State   3:      Singlet-A      8.6594 eV  143.18 nm  f=0.0040  <S**2>=0.000
      16 -> 19         0.70091

 Excited State   4:      Singlet-A      8.9619 eV  138.35 nm  f=0.0018  <S**2>=0.000
      18 -> 21         0.66438
      18 -> 22         0.21552

 Excited State   5:      Singlet-A      9.1954 eV  134.83 nm  f=0.0564  <S**2>=0.000
      17 -> 19        -0.15429
      17 -> 20        -0.14370
      18 -> 20         0.15920
      18 -> 21        -0.18032
      18 -> 22         0.61512

 Excited State   6:      Singlet-A      9.2970 eV  133.36 nm  f=0.2647  <S**2>=0.000
      17 -> 19         0.28188
      17 -> 20         0.47528
      18 -> 20        -0.28687
      18 -> 21        -0.11016
      18 -> 22         0.24121

 Excited State   7:      Singlet-A      9.6734 eV  128.17 nm  f=0.4285  <S**2>=0.000
      17 -> 19        -0.32597
      17 -> 20         0.46405
      18 -> 20         0.33518

 Excited State   8:      Singlet-A      9.9395 eV  124.74 nm  f=0.0008  <S**2>=0.000
      15 -> 19         0.15154
      17 -> 21         0.18700
      18 -> 23         0.63773
      18 -> 26        -0.11020

 Excited State   9:      Singlet-A     10.0282 eV  123.64 nm  f=0.0090  <S**2>=0.000
      14 -> 19         0.25785
      15 -> 19        -0.40657
      16 -> 20         0.49477

 Excited State  10:      Singlet-A     10.2192 eV  121.32 nm  f=0.0047  <S**2>=0.000
      14 -> 19        -0.19687
      15 -> 19        -0.39049
      16 -> 20        -0.29710
      17 -> 21         0.41823
      17 -> 22         0.13700
      18 -> 24         0.14094

 Excited State  11:      Singlet-A     10.2645 eV  120.79 nm  f=0.0002  <S**2>=0.000
      14 -> 19         0.13716
      15 -> 19         0.37573
      16 -> 20         0.16006
      17 -> 21         0.44905
      17 -> 22         0.17437
      18 -> 23        -0.26921

 Excited State  12:      Singlet-A     10.5139 eV  117.92 nm  f=0.0008  <S**2>=0.000
      14 -> 19         0.13752
      17 -> 21        -0.27398
      17 -> 22         0.53315
      18 -> 24         0.32897

 Excited State  13:      Singlet-A     10.5535 eV  117.48 nm  f=0.0005  <S**2>=0.000
      14 -> 19         0.55301
      16 -> 20        -0.32051
      18 -> 24        -0.26718

 Excited State  14:      Singlet-A     10.5703 eV  117.30 nm  f=0.0008  <S**2>=0.000
      14 -> 19         0.19761
      16 -> 20        -0.11567
      17 -> 22        -0.38772
      18 -> 24         0.53003

 Excited State  15:      Singlet-A     11.0827 eV  111.87 nm  f=0.0008  <S**2>=0.000
      18 -> 25         0.69336

 The electronic state is 1-A.
 Alpha  occ. eigenvalues --  -19.12057 -10.17948 -10.17078 -10.12639 -10.11942
 Alpha  occ. eigenvalues --   -1.14648  -0.79775  -0.75474  -0.61016  -0.57221
 Alpha  occ. eigenvalues --   -0.54861  -0.46216  -0.45653  -0.41781  -0.40701
 Alpha  occ. eigenvalues --   -0.35615  -0.27490  -0.22723
 Alpha virt. eigenvalues --    0.02149   0.07371   0.14410   0.15783   0.18537
 Alpha virt. eigenvalues --    0.19994   0.22836   0.23188   0.34310   0.40852
 Alpha virt. eigenvalues --    0.47278   0.69339   0.70023   0.71241   0.73719

 Mulliken charges:
               1
     1  C   -0.252245
     2  C    0.089622
     3  O   -0.497807
     4  C    0.111592
     5  C   -0.262073
     6  H    0.187416
     7  H    0.220579
     8  H    0.215920
     9  H    0.186998
 Sum of Mulliken charges =   0.00000

 Dipole moment (field-independent basis, Debye):
    X=             -0.0286    Y=              0.5545    Z=              0.0268  Tot=              0.5559
 Quadrupole moment (field-independent basis, Debye-Ang):
   XX=            -23.5368   YY=            -28.1224   ZZ=            -31.7802
   XY=             -0.0748   XZ=              0.2232   YZ=              0.1195

 Normal termination of Gaussian 09 at Tue Dec 15 16:29:44 2015.
