 Gaussian 09, Revision D.01,
 Gaussian 09:  ES64L-G09RevD.01 24-Apr-2013

 ------------------------------------------------------------
 #P AM1(Input,print) CIS(Singlets,NStates=15) pop(full) force
 ------------------------------------------------------------

 -----------------
 AM1-Reparam Input
 -----------------
 Symbolic Z-matrix:
 Charge =  0 Multiplicity = 1

                         Standard orientation:
 ---------------------------------------------------------------------
 Center     Atomic      Atomic             Coordinates (Angstroms)
 Number     Number       Type             X           Y           Z
 ---------------------------------------------------------------------
      1          6           0       -0.876845    0.810863    0.003037
      2          6           0       -1.038661   -0.488756    0.018427
      3          8           0        0.198093   -1.086035   -0.031322
      4          6           0        1.112108   -0.203469    0.036920
      5          6           0        0.596026    1.014068   -0.009220
      6          1           0        1.077561    1.972741   -0.017671
      7          1           0        2.108694   -0.511949   -0.013008
      8          1           0       -1.906568   -1.134547    0.030369
      9          1           0       -1.620199    1.565802   -0.044097
 ---------------------------------------------------------------------

 SCF Done:  E(RAM1) =   2.08516023364     A.U. after   13 cycles

 Excitation energies and oscillator strengths:

 Excited State   1:      Singlet-A      5.0500 eV  245.52 nm  f=0.3559  <S**2>=0.000
      13 -> 14         0.69704
 This state for optimization and/or second-order correction.
 Total Energy, E(CIS) =   2.27074254122
 Copying the excited state density for this state as the 1-particle RhoCI density.

 Excited State   2:      Singlet-A      6.3021 eV  196.74 nm  f=0.0065  <S**2>=0.000
      13 -> 15         0.64090
      13 -> 17         0.22467
      13 -> 18        -0.13949

 Excited State   3:      Singlet-A      6.4415 eV  192.48 nm  f=0.0002  <S**2>=0.000
      12 -> 14         0.69611

 Excited State   4:      Singlet-A      6.7287 eV  184.26 nm  f=0.0078  <S**2>=0.000
      13 -> 15         0.13209
      13 -> 16         0.59255
      13 -> 18         0.34082

 Excited State   5:      Singlet-A      7.5312 eV  164.63 nm  f=0.0006  <S**2>=0.000
      13 -> 15         0.10442
      13 -> 16        -0.28652
      13 -> 17        -0.13922
      13 -> 18         0.46138
      13 -> 19        -0.38087
      13 -> 20        -0.11600

 Excited State   6:      Singlet-A      7.7785 eV  159.39 nm  f=0.0072  <S**2>=0.000
      10 -> 14        -0.22360
      11 -> 14         0.66235

 Excited State   7:      Singlet-A      8.4194 eV  147.26 nm  f=0.0152  <S**2>=0.000
      13 -> 15        -0.19922
      13 -> 17         0.63690
      13 -> 18         0.10552
      13 -> 19        -0.13315

 Excited State   8:      Singlet-A      8.7975 eV  140.93 nm  f=0.1266  <S**2>=0.000
      10 -> 14         0.64710
      11 -> 14         0.21375

 Excited State   9:      Singlet-A      8.8939 eV  139.40 nm  f=0.0039  <S**2>=0.000
      10 -> 16         0.10244
      13 -> 16        -0.18343
      13 -> 18         0.33007
      13 -> 19         0.57358

 Excited State  10:      Singlet-A      9.3112 eV  133.16 nm  f=0.0782  <S**2>=0.000
      11 -> 16         0.10501
      11 -> 17         0.12229
      12 -> 15        -0.33454
      12 -> 16         0.27883
      12 -> 17        -0.15724
      12 -> 18         0.40430
      12 -> 19        -0.15827

 Excited State  11:      Singlet-A      9.4782 eV  130.81 nm  f=0.0119  <S**2>=0.000
      13 -> 18         0.10131
      13 -> 20         0.56181
      13 -> 21        -0.39505

 Excited State  12:      Singlet-A      9.7354 eV  127.35 nm  f=0.0358  <S**2>=0.000
      11 -> 15         0.24218
      11 -> 17         0.13166
      12 -> 15         0.52164
      12 -> 16         0.15299
      12 -> 17         0.16291
      12 -> 18         0.18707
      12 -> 19        -0.14385

 Excited State  13:      Singlet-A      9.7516 eV  127.14 nm  f=0.0618  <S**2>=0.000
      13 -> 20         0.39446
      13 -> 21         0.56187

 Excited State  14:      Singlet-A     10.1870 eV  121.71 nm  f=0.1727  <S**2>=0.000
      11 -> 15        -0.15714
      11 -> 16        -0.24872
      11 -> 18        -0.11945
      12 -> 16         0.53419
      12 -> 19         0.24287

 Excited State  15:      Singlet-A     10.3947 eV  119.28 nm  f=0.0004  <S**2>=0.000
       9 -> 14         0.60319
      10 -> 15        -0.28120
      10 -> 16        -0.10880
      11 -> 15        -0.11908

 The electronic state is 1-A.
 Alpha  occ. eigenvalues --   -1.97165  -1.20578  -0.99071  -0.83946  -0.78633
 Alpha  occ. eigenvalues --   -0.69952  -0.67258  -0.56815  -0.53707  -0.46089
 Alpha  occ. eigenvalues --   -0.45307  -0.41231  -0.29082
 Alpha virt. eigenvalues --    0.09548   0.17772   0.19771   0.25311   0.26103
 Alpha virt. eigenvalues --    0.27909   0.30218   0.30327   0.37854   0.46014
 Alpha virt. eigenvalues --    0.51355

 Mulliken charges:
               1
     1  C   -0.157433
     2  C   -1.987917
     3  O    3.188682
     4  C   -2.013868
     5  C   -0.311870
     6  H    0.267554
     7  H    0.387903
     8  H    0.372599
     9  H    0.254349
 Sum of Mulliken charges =   0.00000

 Dipole moment (field-independent basis, Debye):
    X=              1.7631    Y=             -9.3887    Z=             -0.9112  Tot=              9.5962
 N-N= 1.053621584812D+02 E-N=-1.711960803708D+02  KE=-1.558121401644D+01
 Orbital energies and kinetic energies (alpha):
                                 1                 2
   1         O                -1.971650         -1.436423
   2         O                -1.205779         -1.055791
   3         O                -0.990715         -0.885459
   4         O                -0.839463         -0.604851
   5         O                -0.786332         -0.693162
   6         O                -0.699524         -0.548609
   7         O                -0.672580         -0.526876

 Normal termination of Gaussian 09 at Tue Dec 15 17:07:24 2015.
