 Gaussian 09, Revision D.01,
 Gaussian 09:  ES64L-G09RevD.01 24-Apr-2013

 ------------------------------------------------------------
 #P AM1(Input,print) CIS(Singlets,NStates=15) pop(full) force
 ------------------------------------------------------------

 -----------------
 AM1-Reparam Input
 -----------------
 Symbolic Z-matrix:
 Charge =  0 Multiplicity = 1

                         Standard orientation:
 ---------------------------------------------------------------------
 Center     Atomic      Atomic             Coordinates (Angstroms)
 Number     Number       Type             X           Y           Z
 ---------------------------------------------------------------------
      1          6           0       -0.611481    1.018234   -0.012699
      2          6           0       -1.096582   -0.170793    0.015960
      3          8           0       -0.181562   -1.109748   -0.010608
      4          6           0        1.017743   -0.505011    0.001332
      5          6           0        0.894040    0.834652    0.013340
      6          1           0        1.602161    1.597933   -0.015683
      7          1           0        1.865715   -1.158445   -0.001804
      8          1           0       -2.192187   -0.563814    0.011929
      9          1           0       -1.045513    1.939813   -0.017174
 ---------------------------------------------------------------------

 SCF Done:  E(RAM1) =   2.17062104880     A.U. after   13 cycles

 Excitation energies and oscillator strengths:

 Excited State   1:      Singlet-A      5.0852 eV  243.81 nm  f=0.3709  <S**2>=0.000
      13 -> 14         0.69757
 This state for optimization and/or second-order correction.
 Total Energy, E(CIS) =   2.35749818240
 Copying the excited state density for this state as the 1-particle RhoCI density.

 Excited State   2:      Singlet-A      5.5538 eV  223.24 nm  f=0.0005  <S**2>=0.000
      13 -> 15         0.68496
      13 -> 18        -0.10578

 Excited State   3:      Singlet-A      6.2334 eV  198.90 nm  f=0.0011  <S**2>=0.000
      13 -> 16         0.66581
      13 -> 17        -0.18621

 Excited State   4:      Singlet-A      6.6950 eV  185.19 nm  f=0.0001  <S**2>=0.000
      12 -> 14         0.70240

 Excited State   5:      Singlet-A      7.4755 eV  165.85 nm  f=0.0002  <S**2>=0.000
      13 -> 16         0.13991
      13 -> 17         0.54260
      13 -> 18        -0.33454
      13 -> 21         0.22636

 Excited State   6:      Singlet-A      8.1909 eV  151.37 nm  f=0.0172  <S**2>=0.000
      10 -> 14         0.27911
      13 -> 17         0.31263
      13 -> 18         0.54418

 Excited State   7:      Singlet-A      8.4342 eV  147.00 nm  f=0.0003  <S**2>=0.000
      10 -> 14         0.62795
      11 -> 14         0.12425
      13 -> 17        -0.14238
      13 -> 18        -0.23529

 Excited State   8:      Singlet-A      8.8289 eV  140.43 nm  f=0.0897  <S**2>=0.000
       8 -> 15         0.12990
      11 -> 14        -0.44018
      12 -> 15         0.48322
      12 -> 17         0.11437

 Excited State   9:      Singlet-A      8.8750 eV  139.70 nm  f=0.0009  <S**2>=0.000
      13 -> 19         0.67902

 Excited State  10:      Singlet-A      9.0968 eV  136.29 nm  f=0.2053  <S**2>=0.000
      11 -> 14         0.46669
      12 -> 15         0.39498
      12 -> 16        -0.23279
      12 -> 18        -0.11451
      13 -> 22        -0.10720

 Excited State  11:      Singlet-A      9.4240 eV  131.56 nm  f=0.0045  <S**2>=0.000
      13 -> 17        -0.20322
      13 -> 18         0.12375
      13 -> 19        -0.11200
      13 -> 20        -0.29626
      13 -> 21         0.57790

 Excited State  12:      Singlet-A      9.6494 eV  128.49 nm  f=0.0907  <S**2>=0.000
      13 -> 20         0.59825
      13 -> 21         0.30683

 Excited State  13:      Singlet-A      9.7132 eV  127.64 nm  f=0.0572  <S**2>=0.000
      10 -> 15        -0.16537
      10 -> 18         0.13578
      11 -> 14         0.14240
      12 -> 15         0.23031
      12 -> 16         0.47914
      12 -> 17        -0.27820
      13 -> 20        -0.13211

 Excited State  14:      Singlet-A      9.9738 eV  124.31 nm  f=0.0003  <S**2>=0.000
       7 -> 15        -0.14535
      10 -> 15        -0.11518
      11 -> 15         0.65282
      13 -> 15        -0.10796

 Excited State  15:      Singlet-A     10.2434 eV  121.04 nm  f=0.0661  <S**2>=0.000
       8 -> 16        -0.11110
       9 -> 15         0.10708
      10 -> 15         0.16324
      10 -> 16         0.17337
      10 -> 17        -0.11779
      10 -> 18        -0.15104
      12 -> 16         0.36898
      12 -> 17         0.36629
      12 -> 18        -0.19799
      12 -> 19         0.10720
      12 -> 21         0.12150

 The electronic state is 1-A.
 Alpha  occ. eigenvalues --   -1.96070  -1.19291  -0.94701  -0.82226  -0.77904
 Alpha  occ. eigenvalues --   -0.69940  -0.67473  -0.55264  -0.53449  -0.46480
 Alpha  occ. eigenvalues --   -0.45628  -0.40712  -0.27694
 Alpha virt. eigenvalues --    0.10715   0.14613   0.18050   0.27055   0.27298
 Alpha virt. eigenvalues --    0.30021   0.31409   0.32354   0.33808   0.41918
 Alpha virt. eigenvalues --    0.46393

 Mulliken charges:
               1
     1  C   -0.182360
     2  C   -1.849532
     3  O    3.197657
     4  C   -1.867366
     5  C   -0.159276
     6  H    0.156971
     7  H    0.265988
     8  H    0.280365
     9  H    0.157554
 Sum of Mulliken charges =   0.00000

 Dipole moment (field-independent basis, Debye):
    X=             -2.2126    Y=            -10.5455    Z=             -0.2884  Tot=             10.7790
 N-N= 1.047925008275D+02 E-N=-1.703280200048D+02  KE=-1.537908488570D+01
 Orbital energies and kinetic energies (alpha):
                                 1                 2
   1         O                -1.960696         -1.399805
   2         O                -1.192914         -1.046688
   3         O                -0.947013         -0.886808
   4         O                -0.822265         -0.569268
   5         O                -0.779040         -0.687747
   6         O                -0.699396         -0.583271
   7         O                -0.674732         -0.531321

 Normal termination of Gaussian 09 at Tue Dec 15 17:09:13 2015.
