 Gaussian 09, Revision D.01,
 Gaussian 09:  ES64L-G09RevD.01 24-Apr-2013

 ------------------------------------------------------------
 #P AM1(Input,print) CIS(Singlets,NStates=15) pop(full) force
 ------------------------------------------------------------

 -----------------
 AM1-Reparam Input
 -----------------
 Symbolic Z-matrix:
 Charge =  0 Multiplicity = 1

                         Standard orientation:
 ---------------------------------------------------------------------
 Center     Atomic      Atomic             Coordinates (Angstroms)
 Number     Number       Type             X           Y           Z
 ---------------------------------------------------------------------
      1          6           0       -0.409688    1.107866    0.020502
      2          6           0       -1.136864   -0.016702   -0.004374
      3          8           0       -0.361389   -1.094562    0.000825
      4          6           0        0.901189   -0.638383    0.008814
      5          6           0        1.003535    0.698559   -0.022100
      6          1           0        1.949464    1.271398    0.049859
      7          1           0        1.671334   -1.509186   -0.021189
      8          1           0       -2.193206   -0.109073   -0.007104
      9          1           0       -0.685512    2.195320   -0.045213
 ---------------------------------------------------------------------

 SCF Done:  E(RAM1) =   2.53976564206     A.U. after   13 cycles

 Excitation energies and oscillator strengths:

 Excited State   1:      Singlet-A      5.1994 eV  238.46 nm  f=0.3563  <S**2>=0.000
      13 -> 14         0.69666
 This state for optimization and/or second-order correction.
 Total Energy, E(CIS) =   2.73084171220
 Copying the excited state density for this state as the 1-particle RhoCI density.

 Excited State   2:      Singlet-A      5.8375 eV  212.39 nm  f=0.0008  <S**2>=0.000
      11 -> 15        -0.10395
      13 -> 15         0.67411
      13 -> 17        -0.13353

 Excited State   3:      Singlet-A      6.3623 eV  194.87 nm  f=0.0032  <S**2>=0.000
      13 -> 16         0.66811
      13 -> 18         0.11574
      13 -> 19        -0.12598

 Excited State   4:      Singlet-A      6.5903 eV  188.13 nm  f=0.0003  <S**2>=0.000
      12 -> 14         0.69772

 Excited State   5:      Singlet-A      7.5061 eV  165.18 nm  f=0.0021  <S**2>=0.000
      13 -> 15         0.12562
      13 -> 17         0.51197
      13 -> 18         0.35273
      13 -> 19        -0.11632
      13 -> 21        -0.25385

 Excited State   6:      Singlet-A      7.9265 eV  156.42 nm  f=0.0073  <S**2>=0.000
      10 -> 14         0.55839
      11 -> 14        -0.26343
      13 -> 17         0.14876
      13 -> 18        -0.25845
      13 -> 21         0.11557

 Excited State   7:      Singlet-A      8.1209 eV  152.67 nm  f=0.0023  <S**2>=0.000
      10 -> 14        -0.28981
      11 -> 14         0.13902
      13 -> 16         0.10771
      13 -> 17         0.41126
      13 -> 18        -0.41024
      13 -> 21         0.18018

 Excited State   8:      Singlet-A      8.6078 eV  144.04 nm  f=0.0006  <S**2>=0.000
      13 -> 16         0.10160
      13 -> 18         0.15522
      13 -> 19         0.65991

 Excited State   9:      Singlet-A      8.7271 eV  142.07 nm  f=0.0745  <S**2>=0.000
       8 -> 15         0.12066
      10 -> 14         0.26558
      11 -> 14         0.54986
      12 -> 15        -0.29333

 Excited State  10:      Singlet-A      8.9644 eV  138.31 nm  f=0.1296  <S**2>=0.000
       8 -> 15        -0.13420
      10 -> 14         0.10598
      10 -> 17         0.10689
      11 -> 14         0.25319
      12 -> 15         0.50927
      12 -> 16        -0.22015
      12 -> 17        -0.13684
      12 -> 18        -0.15497

 Excited State  11:      Singlet-A      9.2126 eV  134.58 nm  f=0.0034  <S**2>=0.000
      13 -> 18         0.30771
      13 -> 19        -0.11002
      13 -> 20        -0.13513
      13 -> 21         0.59432

 Excited State  12:      Singlet-A      9.4919 eV  130.62 nm  f=0.0752  <S**2>=0.000
       9 -> 15        -0.11034
      10 -> 15         0.14299
      10 -> 17        -0.11909
      11 -> 15        -0.35379
      12 -> 15         0.19805
      12 -> 16         0.22333
      12 -> 18         0.17719
      13 -> 20         0.37874
      13 -> 21         0.11712

 Excited State  13:      Singlet-A      9.5673 eV  129.59 nm  f=0.0936  <S**2>=0.000
      10 -> 15        -0.15721
      11 -> 14        -0.10536
      12 -> 15        -0.13018
      12 -> 16        -0.39368
      12 -> 18        -0.10878
      13 -> 20         0.48566

 Excited State  14:      Singlet-A      9.6242 eV  128.83 nm  f=0.0136  <S**2>=0.000
       7 -> 15         0.11621
      10 -> 15         0.18743
      11 -> 15         0.53528
      12 -> 16         0.22179
      13 -> 15         0.12827
      13 -> 20         0.24059

 Excited State  15:      Singlet-A      9.7013 eV  127.80 nm  f=0.0891  <S**2>=0.000
       9 -> 15         0.14540
       9 -> 16        -0.13377
      10 -> 15        -0.31645
      10 -> 16        -0.19359
      10 -> 17         0.18517
      12 -> 16         0.36045
      12 -> 17        -0.19146
      12 -> 18        -0.18736
      13 -> 20         0.12836

 The electronic state is 1-A.
 Alpha  occ. eigenvalues --   -1.75371  -1.15053  -0.95277  -0.81107  -0.75259
 Alpha  occ. eigenvalues --   -0.66624  -0.65216  -0.54227  -0.49314  -0.44242
 Alpha  occ. eigenvalues --   -0.44031  -0.39831  -0.28014
 Alpha virt. eigenvalues --    0.11257   0.15408   0.18215   0.25440   0.26997
 Alpha virt. eigenvalues --    0.28938   0.30831   0.32050   0.41218   0.50572
 Alpha virt. eigenvalues --    0.54876

 Mulliken charges:
               1
     1  C   -0.085206
     2  C   -1.929828
     3  O    3.214706
     4  C   -1.904300
     5  C   -0.058312
     6  H    0.116461
     7  H    0.251902
     8  H    0.276568
     9  H    0.118009
 Sum of Mulliken charges =   0.00000

 Dipole moment (field-independent basis, Debye):
    X=             -3.0939    Y=            -10.0814    Z=             -0.0795  Tot=             10.5457
 N-N= 1.038595117971D+02 E-N=-1.689547954098D+02  KE=-1.501337865236D+01
 Orbital energies and kinetic energies (alpha):
                                 1                 2
   1         O                -1.753711         -1.260849
   2         O                -1.150530         -1.006364
   3         O                -0.952766         -0.858681
   4         O                -0.811068         -0.611159
   5         O                -0.752589         -0.686621
   6         O                -0.666239         -0.560072
   7         O                -0.652156         -0.525575

 Normal termination of Gaussian 09 at Tue Dec 15 17:06:24 2015.
