 Gaussian 09, Revision D.01,
 Gaussian 09:  ES64L-G09RevD.01 24-Apr-2013

 ------------------------------------------------------------
 #P AM1(Input,print) CIS(Singlets,NStates=15) pop(full) force
 ------------------------------------------------------------

 -----------------
 AM1-Reparam Input
 -----------------
 Symbolic Z-matrix:
 Charge =  0 Multiplicity = 1

                         Standard orientation:
 ---------------------------------------------------------------------
 Center     Atomic      Atomic             Coordinates (Angstroms)
 Number     Number       Type             X           Y           Z
 ---------------------------------------------------------------------
      1          6           0       -0.885270    0.787392    0.015701
      2          6           0       -1.065905   -0.472591   -0.015346
      3          8           0        0.213108   -1.146504    0.022311
      4          6           0        1.169657   -0.156108   -0.021829
      5          6           0        0.536669    1.068398   -0.009674
      6          1           0        1.077165    1.969415    0.057703
      7          1           0        2.133243   -0.528447   -0.004625
      8          1           0       -1.874166   -1.175156   -0.029939
      9          1           0       -1.572016    1.543671   -0.014736
 ---------------------------------------------------------------------

 SCF Done:  E(RAM1) =  -5.23814206201     A.U. after   13 cycles

 Excitation energies and oscillator strengths:

 Excited State   1:      Singlet-A      6.0766 eV  204.04 nm  f=0.0117  <S**2>=0.000
      13 -> 14         0.16810
      13 -> 15         0.67197
 This state for optimization and/or second-order correction.
 Total Energy, E(CIS) =  -5.01483260161
 Copying the excited state density for this state as the 1-particle RhoCI density.

 Excited State   2:      Singlet-A      6.5251 eV  190.01 nm  f=0.1222  <S**2>=0.000
      13 -> 14         0.47371
      13 -> 15        -0.15784
      13 -> 16         0.46978

 Excited State   3:      Singlet-A      6.6308 eV  186.98 nm  f=0.1458  <S**2>=0.000
      13 -> 14        -0.46581
      13 -> 16         0.49802

 Excited State   4:      Singlet-A      7.4558 eV  166.29 nm  f=0.0005  <S**2>=0.000
      12 -> 14         0.69230

 Excited State   5:      Singlet-A      8.2165 eV  150.90 nm  f=0.0046  <S**2>=0.000
      11 -> 14         0.68079

 Excited State   6:      Singlet-A      8.2562 eV  150.17 nm  f=0.0692  <S**2>=0.000
      10 -> 14         0.18887
      12 -> 15        -0.13566
      13 -> 17         0.65404

 Excited State   7:      Singlet-A      8.6504 eV  143.33 nm  f=0.0012  <S**2>=0.000
      13 -> 19         0.62341
      13 -> 20        -0.10422
      13 -> 21         0.22322
      13 -> 22         0.13590

 Excited State   8:      Singlet-A      8.9361 eV  138.75 nm  f=0.0058  <S**2>=0.000
      10 -> 16        -0.16351
      13 -> 18         0.54763
      13 -> 20         0.36275

 Excited State   9:      Singlet-A      9.1290 eV  135.81 nm  f=0.0484  <S**2>=0.000
      11 -> 15        -0.16796
      11 -> 16         0.17822
      12 -> 15         0.55898
      12 -> 16         0.25939
      13 -> 17         0.11687

 Excited State  10:      Singlet-A      9.2728 eV  133.71 nm  f=0.0153  <S**2>=0.000
      11 -> 15         0.10170
      13 -> 18        -0.35699
      13 -> 19         0.10154
      13 -> 20         0.55908
      13 -> 23         0.10315

 Excited State  11:      Singlet-A      9.3218 eV  133.01 nm  f=0.0632  <S**2>=0.000
      11 -> 15         0.27474
      12 -> 15        -0.15817
      12 -> 16         0.58129
      12 -> 19         0.10056
      12 -> 22         0.12116

 Excited State  12:      Singlet-A      9.7397 eV  127.30 nm  f=0.0232  <S**2>=0.000
      10 -> 14         0.16241
      10 -> 15        -0.24206
      11 -> 15         0.52959
      12 -> 15         0.21018
      12 -> 16        -0.16079

 Excited State  13:      Singlet-A      9.8486 eV  125.89 nm  f=0.0061  <S**2>=0.000
      10 -> 14         0.36265
      10 -> 15         0.52353
      11 -> 15         0.12681

 Excited State  14:      Singlet-A     10.1066 eV  122.68 nm  f=0.0312  <S**2>=0.000
       9 -> 14        -0.35975
       9 -> 15        -0.14637
      10 -> 14         0.36657
      10 -> 15        -0.26445
      11 -> 15        -0.17912
      11 -> 16        -0.16032

 Excited State  15:      Singlet-A     10.3097 eV  120.26 nm  f=0.0038  <S**2>=0.000
       9 -> 14         0.51837
       9 -> 15        -0.13551
      10 -> 14         0.14089
      11 -> 16        -0.31525
      12 -> 18         0.10038

 The electronic state is 1-A.
 Alpha  occ. eigenvalues --   -3.88765  -1.35521  -1.01572  -1.01054  -0.99948
 Alpha  occ. eigenvalues --   -0.90359  -0.81815  -0.65888  -0.60038  -0.58209
 Alpha  occ. eigenvalues --   -0.55337  -0.53025  -0.43266
 Alpha virt. eigenvalues --    0.00542   0.03135   0.04269   0.09561   0.12441
 Alpha virt. eigenvalues --    0.14083   0.14876   0.19019   0.19646   0.22239
 Alpha virt. eigenvalues --    0.23521

 Mulliken charges:
               1
     1  C   -0.409354
     2  C   -1.215864
     3  O    2.664145
     4  C   -1.261172
     5  C   -0.503644
     6  H    0.226757
     7  H    0.139247
     8  H    0.142101
     9  H    0.217784
 Sum of Mulliken charges =   0.00000

 Dipole moment (field-independent basis, Debye):
    X=              1.7346    Y=            -10.5852    Z=              0.4647  Tot=             10.7365
 N-N= 1.021173561813D+02 E-N=-1.652066205189D+02  KE=-2.280845517883D+01
 Orbital energies and kinetic energies (alpha):
                                 1                 2
   1         O                -3.887648         -3.061052
   2         O                -1.355211         -1.192204
   3         O                -1.015722         -0.924051
   4         O                -1.010538         -0.912795
   5         O                -0.999477         -0.909534
   6         O                -0.903594         -0.804749
   7         O                -0.818145         -0.676823

 Normal termination of Gaussian 09 at Fri Dec 11 13:41:34 2015.
