 Gaussian 09, Revision D.01,
 Gaussian 09:  ES64L-G09RevD.01 24-Apr-2013

 ------------------------------------------------------------
 #P AM1(Input,print) CIS(Singlets,NStates=15) pop(full) force
 ------------------------------------------------------------

 -----------------
 AM1-Reparam Input
 -----------------
 Symbolic Z-matrix:
 Charge =  0 Multiplicity = 1

                         Standard orientation:
 ---------------------------------------------------------------------
 Center     Atomic      Atomic             Coordinates (Angstroms)
 Number     Number       Type             X           Y           Z
 ---------------------------------------------------------------------
      1          6           0       -0.695082    0.999306   -0.007815
      2          6           0       -1.097835   -0.365665    0.016671
      3          8           0       -0.007775   -1.141947    0.000639
      4          6           0        1.078678   -0.372664   -0.009648
      5          6           0        0.747365    0.946265   -0.004641
      6          1           0        1.357938    1.753186    0.037363
      7          1           0        1.990748   -0.858447    0.020310
      8          1           0       -2.098460   -0.798087   -0.038623
      9          1           0       -1.386778    1.795466    0.008438
 ---------------------------------------------------------------------

 SCF Done:  E(RAM1) =   2.02059011739     A.U. after   13 cycles

 Excitation energies and oscillator strengths:

 Excited State   1:      Singlet-A      5.4312 eV  228.28 nm  f=0.3544  <S**2>=0.000
      13 -> 14         0.69496
 This state for optimization and/or second-order correction.
 Total Energy, E(CIS) =   2.22018397175
 Copying the excited state density for this state as the 1-particle RhoCI density.

 Excited State   2:      Singlet-A      6.8766 eV  180.30 nm  f=0.0166  <S**2>=0.000
      12 -> 14         0.14889
      13 -> 15         0.64537
      13 -> 17        -0.20549

 Excited State   3:      Singlet-A      6.8945 eV  179.83 nm  f=0.0021  <S**2>=0.000
      12 -> 14         0.67811
      13 -> 15        -0.15130

 Excited State   4:      Singlet-A      7.1084 eV  174.42 nm  f=0.0006  <S**2>=0.000
      13 -> 16         0.60667
      13 -> 18        -0.30824

 Excited State   5:      Singlet-A      7.7493 eV  159.99 nm  f=0.0061  <S**2>=0.000
      10 -> 14         0.68983
      11 -> 14        -0.12528

 Excited State   6:      Singlet-A      8.0702 eV  153.63 nm  f=0.0002  <S**2>=0.000
      11 -> 15         0.11184
      13 -> 16         0.22128
      13 -> 18         0.28705
      13 -> 19         0.58074

 Excited State   7:      Singlet-A      8.6073 eV  144.05 nm  f=0.1309  <S**2>=0.000
      10 -> 14         0.12474
      11 -> 14         0.68683

 Excited State   8:      Singlet-A      9.0422 eV  137.12 nm  f=0.0210  <S**2>=0.000
      11 -> 16         0.19993
      13 -> 15         0.16367
      13 -> 17         0.63037
      13 -> 18         0.11387

 Excited State   9:      Singlet-A      9.2537 eV  133.98 nm  f=0.0007  <S**2>=0.000
      11 -> 15         0.19424
      13 -> 16         0.18763
      13 -> 18         0.50683
      13 -> 19        -0.38131

 Excited State  10:      Singlet-A      9.6430 eV  128.57 nm  f=0.0096  <S**2>=0.000
       8 -> 15        -0.10438
       9 -> 16         0.15150
       9 -> 18        -0.10907
      10 -> 15         0.39373
      10 -> 17        -0.21789
      12 -> 16         0.25787
      12 -> 18        -0.23466
      12 -> 19        -0.28683

 Excited State  11:      Singlet-A      9.9583 eV  124.50 nm  f=0.0048  <S**2>=0.000
      13 -> 18         0.12894
      13 -> 20         0.65187
      13 -> 21        -0.21016

 Excited State  12:      Singlet-A     10.1222 eV  122.49 nm  f=0.0042  <S**2>=0.000
      10 -> 16        -0.24735
      10 -> 18         0.14191
      12 -> 15         0.58678
      12 -> 17        -0.20907

 Excited State  13:      Singlet-A     10.1765 eV  121.83 nm  f=0.0240  <S**2>=0.000
      11 -> 15         0.58153
      11 -> 17        -0.12836
      12 -> 16         0.14117
      13 -> 16        -0.15496
      13 -> 18        -0.13072
      13 -> 20         0.14117
      13 -> 21         0.14511

 Excited State  14:      Singlet-A     10.2487 eV  120.98 nm  f=0.1452  <S**2>=0.000
      10 -> 15         0.26289
      12 -> 16        -0.32221
      12 -> 18         0.16187
      13 -> 20         0.15041
      13 -> 21         0.47979

 Excited State  15:      Singlet-A     10.2661 eV  120.77 nm  f=0.1391  <S**2>=0.000
      10 -> 15        -0.28639
      11 -> 15        -0.19261
      12 -> 16         0.31886
      12 -> 18        -0.17239
      13 -> 20         0.10424
      13 -> 21         0.42058

 The electronic state is 1-A.
 Alpha  occ. eigenvalues --   -1.94865  -1.19503  -0.96288  -0.83330  -0.78719
 Alpha  occ. eigenvalues --   -0.69495  -0.65559  -0.56149  -0.54161  -0.45469
 Alpha  occ. eigenvalues --   -0.44638  -0.43004  -0.30971
 Alpha virt. eigenvalues --    0.09584   0.18484   0.19581   0.25017   0.26291
 Alpha virt. eigenvalues --    0.27717   0.29920   0.30867   0.37400   0.45756
 Alpha virt. eigenvalues --    0.51010

 Mulliken charges:
               1
     1  C   -0.197830
     2  C   -2.054563
     3  O    3.189417
     4  C   -2.017197
     5  C   -0.183001
     6  H    0.252752
     7  H    0.370031
     8  H    0.383883
     9  H    0.256507
 Sum of Mulliken charges =   0.00000

 Dipole moment (field-independent basis, Debye):
    X=             -0.0975    Y=             -9.5033    Z=             -0.0372  Tot=              9.5039
 N-N= 1.045294045844D+02 E-N=-1.698488852773D+02  KE=-1.552570698114D+01
 Orbital energies and kinetic energies (alpha):
                                 1                 2
   1         O                -1.948648         -1.406763
   2         O                -1.195026         -1.061541
   3         O                -0.962880         -0.863821
   4         O                -0.833299         -0.616744
   5         O                -0.787195         -0.676042
   6         O                -0.694954         -0.576734
   7         O                -0.655590         -0.516906

 Normal termination of Gaussian 09 at Tue Dec 15 17:07:28 2015.
