 Gaussian 09, Revision D.01,
 Gaussian 09:  ES64L-G09RevD.01 24-Apr-2013

 ------------------------------------------------------------
 #P AM1(Input,print) CIS(Singlets,NStates=15) pop(full) force
 ------------------------------------------------------------

 -----------------
 AM1-Reparam Input
 -----------------
 Symbolic Z-matrix:
 Charge =  0 Multiplicity = 1

                         Standard orientation:
 ---------------------------------------------------------------------
 Center     Atomic      Atomic             Coordinates (Angstroms)
 Number     Number       Type             X           Y           Z
 ---------------------------------------------------------------------
      1          6           0       -0.600845    1.011082   -0.011114
      2          6           0       -1.134477   -0.269980   -0.037861
      3          8           0       -0.093479   -1.155839    0.034801
      4          6           0        1.096304   -0.450574   -0.034439
      5          6           0        0.759577    0.910126    0.013513
      6          1           0        1.468851    1.740545    0.047492
      7          1           0        1.958711   -0.939815   -0.005863
      8          1           0       -2.157857   -0.646201    0.045303
      9          1           0       -1.245235    1.888258    0.054067
 ---------------------------------------------------------------------

 SCF Done:  E(RAM1) =   2.57913511167     A.U. after   13 cycles

 Excitation energies and oscillator strengths:

 Excited State   1:      Singlet-A      5.4045 eV  229.41 nm  f=0.3365  <S**2>=0.000
      13 -> 14         0.69610
 This state for optimization and/or second-order correction.
 Total Energy, E(CIS) =   2.77774748264
 Copying the excited state density for this state as the 1-particle RhoCI density.

 Excited State   2:      Singlet-A      6.7056 eV  184.90 nm  f=0.0021  <S**2>=0.000
      10 -> 15         0.10820
      13 -> 15         0.65786
      13 -> 16        -0.10015
      13 -> 18         0.10396

 Excited State   3:      Singlet-A      6.9056 eV  179.54 nm  f=0.0045  <S**2>=0.000
      10 -> 14        -0.15898
      12 -> 14        -0.43194
      13 -> 16         0.50127

 Excited State   4:      Singlet-A      6.9434 eV  178.56 nm  f=0.0017  <S**2>=0.000
      11 -> 14         0.25298
      12 -> 14         0.49148
      13 -> 16         0.41232

 Excited State   5:      Singlet-A      7.2388 eV  171.28 nm  f=0.0021  <S**2>=0.000
      10 -> 14        -0.28865
      11 -> 14         0.59617
      12 -> 14        -0.11062
      13 -> 15        -0.11878
      13 -> 16        -0.17533

 Excited State   6:      Singlet-A      8.2690 eV  149.94 nm  f=0.0002  <S**2>=0.000
      13 -> 17         0.67156
      13 -> 21        -0.12746

 Excited State   7:      Singlet-A      8.3861 eV  147.85 nm  f=0.1139  <S**2>=0.000
      10 -> 14         0.61546
      11 -> 14         0.25651
      12 -> 14        -0.21661

 Excited State   8:      Singlet-A      9.3751 eV  132.25 nm  f=0.0914  <S**2>=0.000
       9 -> 15        -0.11509
      10 -> 15        -0.13293
      10 -> 16        -0.14816
      11 -> 15         0.32431
      11 -> 16         0.28344
      11 -> 18         0.18885
      12 -> 15        -0.21091
      12 -> 17         0.29168

 Excited State   9:      Singlet-A      9.4589 eV  131.08 nm  f=0.0091  <S**2>=0.000
       7 -> 15         0.13553
      10 -> 15        -0.37693
      10 -> 16         0.11665
      11 -> 15        -0.10245
      11 -> 16         0.13052
      12 -> 15         0.10509
      13 -> 18         0.51436

 Excited State  10:      Singlet-A      9.8015 eV  126.50 nm  f=0.0250  <S**2>=0.000
       7 -> 16         0.13317
      10 -> 15         0.17461
      10 -> 16         0.37514
      11 -> 15         0.22932
      11 -> 16         0.14058
      12 -> 16        -0.24758
      13 -> 17        -0.11103
      13 -> 19         0.37213

 Excited State  11:      Singlet-A      9.8467 eV  125.91 nm  f=0.0782  <S**2>=0.000
      10 -> 15        -0.10301
      11 -> 15         0.45242
      11 -> 16        -0.21253
      11 -> 19        -0.11282
      12 -> 15         0.40427
      13 -> 19        -0.11205

 Excited State  12:      Singlet-A     10.0169 eV  123.78 nm  f=0.1946  <S**2>=0.000
      10 -> 16         0.33027
      11 -> 16        -0.14587
      12 -> 15        -0.17043
      12 -> 16         0.52413
      12 -> 19         0.14203

 Excited State  13:      Singlet-A     10.3401 eV  119.91 nm  f=0.0000  <S**2>=0.000
      10 -> 15         0.38843
      11 -> 15         0.16752
      12 -> 15        -0.18097
      13 -> 15        -0.17968
      13 -> 18         0.37468
      13 -> 19        -0.26884

 Excited State  14:      Singlet-A     10.5004 eV  118.08 nm  f=0.0170  <S**2>=0.000
       8 -> 15        -0.16612
       8 -> 16         0.12462
       9 -> 15        -0.15999
      10 -> 15        -0.16330
      10 -> 17        -0.20729
      11 -> 16        -0.14228
      11 -> 17         0.28362
      12 -> 15        -0.25667
      12 -> 16        -0.24260
      12 -> 17        -0.21758
      12 -> 20         0.11191

 Excited State  15:      Singlet-A     10.6921 eV  115.96 nm  f=0.0010  <S**2>=0.000
       9 -> 14         0.40219
      10 -> 16        -0.30575
      11 -> 16        -0.12760
      13 -> 16        -0.11519
      13 -> 18         0.20695
      13 -> 19         0.35697

 The electronic state is 1-A.
 Alpha  occ. eigenvalues --   -1.83814  -1.12893  -0.87448  -0.78712  -0.75775
 Alpha  occ. eigenvalues --   -0.67008  -0.62623  -0.56747  -0.55429  -0.44519
 Alpha  occ. eigenvalues --   -0.44167  -0.43898  -0.31871
 Alpha virt. eigenvalues --    0.08795   0.16717   0.18260   0.24768   0.27354
 Alpha virt. eigenvalues --    0.29953   0.34743   0.39635   0.47784   0.55089
 Alpha virt. eigenvalues --    0.59731

 Mulliken charges:
               1
     1  C   -0.182612
     2  C   -2.023797
     3  O    3.446247
     4  C   -2.014832
     5  C   -0.163371
     6  H    0.198349
     7  H    0.258436
     8  H    0.281541
     9  H    0.200040
 Sum of Mulliken charges =   0.00000

 Dipole moment (field-independent basis, Debye):
    X=             -1.3269    Y=            -10.6722    Z=              1.3189  Tot=             10.8350
 N-N= 1.037759126221D+02 E-N=-1.691445860493D+02  KE=-1.435089171037D+01
 Orbital energies and kinetic energies (alpha):
                                 1                 2
   1         O                -1.838142         -1.234011
   2         O                -1.128930         -0.967241
   3         O                -0.874477         -0.791805
   4         O                -0.787125         -0.531641
   5         O                -0.757747         -0.627565
   6         O                -0.670077         -0.563269
   7         O                -0.626228         -0.495129

 Normal termination of Gaussian 09 at Tue Dec 15 17:07:37 2015.
