 Gaussian 09, Revision D.01,
 Gaussian 09:  ES64L-G09RevD.01 24-Apr-2013

 ------------------------------------------------------------
 #P AM1(Input,print) CIS(Singlets,NStates=15) pop(full) force
 ------------------------------------------------------------

 -----------------
 AM1-Reparam Input
 -----------------
 Symbolic Z-matrix:
 Charge =  0 Multiplicity = 1

                         Standard orientation:
 ---------------------------------------------------------------------
 Center     Atomic      Atomic             Coordinates (Angstroms)
 Number     Number       Type             X           Y           Z
 ---------------------------------------------------------------------
      1          6           0        0.225668    1.175268    0.009621
      2          6           0        1.134246    0.127333   -0.014697
      3          8           0        0.512387   -1.068016    0.009717
      4          6           0       -0.839463   -0.714196   -0.009019
      5          6           0       -1.062685    0.545460   -0.011297
      6          1           0       -1.968830    1.034051    0.041291
      7          1           0       -1.511663   -1.649770    0.015622
      8          1           0        2.190800    0.169636    0.015316
      9          1           0        0.443995    2.187015    0.002382
 ---------------------------------------------------------------------

 SCF Done:  E(RAM1) =   1.84494638307     A.U. after   14 cycles

 Excitation energies and oscillator strengths:

 Excited State   1:      Singlet-A      5.4133 eV  229.04 nm  f=0.3510  <S**2>=0.000
      13 -> 14         0.69319
 This state for optimization and/or second-order correction.
 Total Energy, E(CIS) =   2.04388225164
 Copying the excited state density for this state as the 1-particle RhoCI density.

 Excited State   2:      Singlet-A      6.3500 eV  195.25 nm  f=0.0009  <S**2>=0.000
      13 -> 15         0.68056
      13 -> 18         0.11400

 Excited State   3:      Singlet-A      6.5828 eV  188.35 nm  f=0.0047  <S**2>=0.000
      13 -> 16         0.67444
      13 -> 17        -0.15285

 Excited State   4:      Singlet-A      7.4957 eV  165.41 nm  f=0.0002  <S**2>=0.000
      12 -> 14         0.70130

 Excited State   5:      Singlet-A      8.0891 eV  153.27 nm  f=0.0011  <S**2>=0.000
      13 -> 18         0.65118
      13 -> 22         0.20150

 Excited State   6:      Singlet-A      8.4644 eV  146.48 nm  f=0.0083  <S**2>=0.000
      10 -> 14         0.60868
      11 -> 14        -0.32231
      13 -> 17        -0.12340

 Excited State   7:      Singlet-A      8.8748 eV  139.70 nm  f=0.0121  <S**2>=0.000
      10 -> 14         0.11209
      11 -> 16        -0.10292
      13 -> 16         0.10279
      13 -> 17         0.64726
      13 -> 18        -0.10025
      13 -> 19        -0.10398

 Excited State   8:      Singlet-A      9.1126 eV  136.06 nm  f=0.0608  <S**2>=0.000
       8 -> 15         0.12897
      10 -> 14         0.29538
      11 -> 14         0.52906
      12 -> 15        -0.24536

 Excited State   9:      Singlet-A      9.4134 eV  131.71 nm  f=0.0001  <S**2>=0.000
      13 -> 19         0.67476

 Excited State  10:      Singlet-A      9.6392 eV  128.63 nm  f=0.1303  <S**2>=0.000
       8 -> 15        -0.12117
       9 -> 16        -0.11269
      10 -> 14         0.12801
      10 -> 17         0.12077
      11 -> 14         0.27113
      12 -> 15         0.44964
      12 -> 16        -0.22761
      12 -> 18         0.25097

 Excited State  11:      Singlet-A     10.0614 eV  123.23 nm  f=0.1168  <S**2>=0.000
       9 -> 15        -0.10854
      10 -> 15         0.22745
      10 -> 16         0.12495
      10 -> 17        -0.14908
      10 -> 18         0.10440
      11 -> 15        -0.17250
      12 -> 15         0.40998
      12 -> 16         0.23321
      12 -> 17        -0.12009
      12 -> 18        -0.25260

 Excited State  12:      Singlet-A     10.3726 eV  119.53 nm  f=0.1109  <S**2>=0.000
      10 -> 16        -0.34634
      10 -> 17         0.12704
      11 -> 16         0.20630
      12 -> 16         0.48943
      12 -> 17        -0.11373
      12 -> 18         0.13175
      12 -> 19        -0.10554

 Excited State  13:      Singlet-A     10.4016 eV  119.20 nm  f=0.0198  <S**2>=0.000
      10 -> 15        -0.16052
      10 -> 16        -0.12603
      11 -> 15        -0.35556
      11 -> 16        -0.14132
      13 -> 18        -0.17083
      13 -> 20        -0.31171
      13 -> 22         0.38159

 Excited State  14:      Singlet-A     10.4406 eV  118.75 nm  f=0.0202  <S**2>=0.000
      10 -> 16         0.21836
      11 -> 15         0.20640
      11 -> 16         0.43929
      13 -> 20        -0.37708
      13 -> 22         0.18781

 Excited State  15:      Singlet-A     10.5493 eV  117.53 nm  f=0.0080  <S**2>=0.000
      10 -> 15         0.16284
      10 -> 16        -0.11231
      11 -> 15         0.44417
      11 -> 16        -0.28646
      13 -> 17        -0.12360
      13 -> 22         0.35325

 The electronic state is 1-A.
 Alpha  occ. eigenvalues --   -1.98912  -1.28582  -1.00019  -0.89416  -0.85043
 Alpha  occ. eigenvalues --   -0.77025  -0.74345  -0.61831  -0.61115  -0.52042
 Alpha  occ. eigenvalues --   -0.51667  -0.48819  -0.35438
 Alpha virt. eigenvalues --    0.05519   0.10387   0.12207   0.20988   0.21495
 Alpha virt. eigenvalues --    0.23917   0.27218   0.28672   0.28870   0.37424
 Alpha virt. eigenvalues --    0.41403

 Mulliken charges:
               1
     1  C   -0.173784
     2  C   -1.903094
     3  O    3.156973
     4  C   -1.850996
     5  C   -0.071027
     6  H    0.134093
     7  H    0.279590
     8  H    0.286035
     9  H    0.142210
 Sum of Mulliken charges =   0.00000

 Dipole moment (field-independent basis, Debye):
    X=              4.4728    Y=            -10.5894    Z=              0.3991  Tot=             11.5023
 N-N= 1.058217077368D+02 E-N=-1.709820461506D+02  KE=-1.568637030018D+01
 Orbital energies and kinetic energies (alpha):
                                 1                 2
   1         O                -1.989121         -1.367541
   2         O                -1.285820         -1.075051
   3         O                -1.000192         -0.900634
   4         O                -0.894164         -0.577799
   5         O                -0.850427         -0.690747
   6         O                -0.770247         -0.609930
   7         O                -0.743454         -0.549918

 Normal termination of Gaussian 09 at Tue Dec 15 17:08:54 2015.
