 Gaussian 09, Revision D.01,
 Gaussian 09:  ES64L-G09RevD.01 24-Apr-2013

 -------------------------------------------------------
 #P B3LYP/3-21G CIS(Singlets,NStates=15) pop(full) force
 -------------------------------------------------------

 --------
 FuranDFT
 --------
 Symbolic Z-matrix:
 Charge =  0 Multiplicity = 1

                         Standard orientation:
 ---------------------------------------------------------------------
 Center     Atomic      Atomic             Coordinates (Angstroms)
 Number     Number       Type             X           Y           Z
 ---------------------------------------------------------------------
      1          6           0       -0.975310    0.715668   -0.009273
      2          6           0       -0.928919   -0.602198   -0.018064
      3          8           0        0.318882   -1.148367    0.018147
      4          6           0        1.166129   -0.012823   -0.013168
      5          6           0        0.405930    1.103118    0.015270
      6          1           0        0.802026    2.164230   -0.016746
      7          1           0        2.195371   -0.198491   -0.022500
      8          1           0       -1.727105   -1.367089   -0.003242
      9          1           0       -1.828327    1.365698    0.048715
 ---------------------------------------------------------------------

 SCF Done:  E(RB3LYP) =  -228.743796994     A.U. after   14 cycles

 Excitation energies and oscillator strengths:

 Excited State   1:      Singlet-A      7.2483 eV  171.05 nm  f=0.1891  <S**2>=0.000
      17 -> 19         0.15952
      18 -> 19         0.65895
 This state for optimization and/or second-order correction.
 Total Energy, E(CIS) =  -228.477427582
 Copying the excited state density for this state as the 1-particle RhoCI density.

 Excited State   2:      Singlet-A      7.4001 eV  167.54 nm  f=0.0145  <S**2>=0.000
      17 -> 19         0.49774
      18 -> 19        -0.18071
      18 -> 20         0.45559

 Excited State   3:      Singlet-A      8.3620 eV  148.27 nm  f=0.0017  <S**2>=0.000
      18 -> 21         0.69474

 Excited State   4:      Singlet-A      8.9836 eV  138.01 nm  f=0.0058  <S**2>=0.000
      16 -> 19         0.69543

 Excited State   5:      Singlet-A      9.2261 eV  134.38 nm  f=0.0021  <S**2>=0.000
      17 -> 21         0.10963
      18 -> 22         0.67061
      18 -> 23        -0.13569

 Excited State   6:      Singlet-A      9.5320 eV  130.07 nm  f=0.0549  <S**2>=0.000
      17 -> 20         0.47812
      17 -> 21         0.46814
      18 -> 22        -0.11660

 Excited State   7:      Singlet-A      9.6573 eV  128.38 nm  f=0.1316  <S**2>=0.000
      17 -> 19        -0.19376
      17 -> 20        -0.39061
      17 -> 21         0.42623
      18 -> 20         0.21398
      18 -> 23        -0.18279

 Excited State   8:      Singlet-A      9.7503 eV  127.16 nm  f=0.0077  <S**2>=0.000
      15 -> 19         0.66008
      18 -> 23        -0.19167

 Excited State   9:      Singlet-A      9.9318 eV  124.84 nm  f=0.1762  <S**2>=0.000
      15 -> 19         0.14624
      17 -> 19         0.21985
      17 -> 20        -0.21318
      17 -> 21         0.25467
      18 -> 20        -0.26026
      18 -> 23         0.44487

 Excited State  10:      Singlet-A      9.9532 eV  124.57 nm  f=0.2777  <S**2>=0.000
      15 -> 19         0.16210
      17 -> 19        -0.28498
      17 -> 20         0.18152
      18 -> 20         0.33566
      18 -> 23         0.42788

 Excited State  11:      Singlet-A     10.3009 eV  120.36 nm  f=0.0010  <S**2>=0.000
      14 -> 19         0.11701
      17 -> 22         0.10579
      18 -> 24         0.66555
      18 -> 25        -0.11402

 Excited State  12:      Singlet-A     10.4048 eV  119.16 nm  f=0.0038  <S**2>=0.000
      14 -> 19         0.13893
      17 -> 22         0.65494
      18 -> 24        -0.14432

 Excited State  13:      Singlet-A     10.5015 eV  118.06 nm  f=0.0029  <S**2>=0.000
      13 -> 19        -0.10622
      14 -> 19         0.59124
      16 -> 20         0.26521
      17 -> 22        -0.16882
      18 -> 24        -0.10649

 Excited State  14:      Singlet-A     10.7914 eV  114.89 nm  f=0.0161  <S**2>=0.000
      14 -> 19         0.11605
      18 -> 25         0.66683

 Excited State  15:      Singlet-A     10.9053 eV  113.69 nm  f=0.0021  <S**2>=0.000
      13 -> 19         0.53858
      14 -> 19        -0.10265
      16 -> 20         0.43114

 The electronic state is 1-A.
 Alpha  occ. eigenvalues --  -19.11081 -10.17532 -10.17221 -10.13255 -10.12300
 Alpha  occ. eigenvalues --   -1.11388  -0.81443  -0.74498  -0.59663  -0.57271
 Alpha  occ. eigenvalues --   -0.54120  -0.44221  -0.43769  -0.42302  -0.39358
 Alpha  occ. eigenvalues --   -0.36858  -0.28126  -0.23616
 Alpha virt. eigenvalues --    0.01987   0.08426   0.11962   0.14678   0.17547
 Alpha virt. eigenvalues --    0.18096   0.20414   0.23244   0.35810   0.42676
 Alpha virt. eigenvalues --    0.46384   0.67672   0.69846   0.70370   0.75693

 Mulliken charges:
               1
     1  C   -0.246237
     2  C    0.101858
     3  O   -0.469608
     4  C    0.051219
     5  C   -0.243520
     6  H    0.185024
     7  H    0.217973
     8  H    0.209442
     9  H    0.193849
 Sum of Mulliken charges =   0.00000

 Dipole moment (field-independent basis, Debye):
    X=             -0.2145    Y=              0.8767    Z=             -0.0035  Tot=              0.9026
 Quadrupole moment (field-independent basis, Debye-Ang):
   XX=            -23.9496   YY=            -27.8970   ZZ=            -31.7817
   XY=              0.9903   XZ=             -0.1938   YZ=              0.0573

 Normal termination of Gaussian 09 at Fri Dec 11 13:18:55 2015.
