 Gaussian 09, Revision D.01,
 Gaussian 09:  ES64L-G09RevD.01 24-Apr-2013

 -------------------------------------------------------
 #P B3LYP/3-21G CIS(Singlets,NStates=15) pop(full) force
 -------------------------------------------------------

 --------
 FuranDFT
 --------
 Symbolic Z-matrix:
 Charge =  0 Multiplicity = 1

                         Standard orientation:
 ---------------------------------------------------------------------
 Center     Atomic      Atomic             Coordinates (Angstroms)
 Number     Number       Type             X           Y           Z
 ---------------------------------------------------------------------
      1          6           0        0.222048    1.174549   -0.022903
      2          6           0        1.125406    0.115966    0.022755
      3          8           0        0.481424   -1.064922   -0.017949
      4          6           0       -0.810911   -0.774028    0.015656
      5          6           0       -1.055215    0.593731   -0.003601
      6          1           0       -1.979509    1.086894    0.028569
      7          1           0       -1.545866   -1.581484    0.001573
      8          1           0        2.236428    0.095079    0.020905
      9          1           0        0.549588    2.257576    0.021105
 ---------------------------------------------------------------------

 SCF Done:  E(RB3LYP) =  -228.738934235     A.U. after   14 cycles

 Excitation energies and oscillator strengths:

 Excited State   1:      Singlet-A      7.1002 eV  174.62 nm  f=0.2357  <S**2>=0.000
      18 -> 19         0.67873
 This state for optimization and/or second-order correction.
 Total Energy, E(CIS) =  -228.478006447
 Copying the excited state density for this state as the 1-particle RhoCI density.

 Excited State   2:      Singlet-A      7.1372 eV  173.72 nm  f=0.0046  <S**2>=0.000
      17 -> 19         0.48392
      18 -> 20         0.49999

 Excited State   3:      Singlet-A      8.3316 eV  148.81 nm  f=0.0003  <S**2>=0.000
      18 -> 21         0.69453
      18 -> 22         0.10681

 Excited State   4:      Singlet-A      8.8529 eV  140.05 nm  f=0.0091  <S**2>=0.000
      16 -> 19         0.69476

 Excited State   5:      Singlet-A      9.0385 eV  137.17 nm  f=0.0004  <S**2>=0.000
      18 -> 21        -0.10540
      18 -> 22         0.69108

 Excited State   6:      Singlet-A      9.5434 eV  129.92 nm  f=0.1342  <S**2>=0.000
      17 -> 19        -0.22635
      17 -> 21         0.21652
      18 -> 20         0.22296
      18 -> 23         0.54799
      18 -> 24         0.15711

 Excited State   7:      Singlet-A      9.6222 eV  128.85 nm  f=0.4282  <S**2>=0.000
      17 -> 19         0.40053
      18 -> 20        -0.39196
      18 -> 23         0.34812

 Excited State   8:      Singlet-A      9.7680 eV  126.93 nm  f=0.1682  <S**2>=0.000
      15 -> 19        -0.19331
      16 -> 20        -0.10679
      17 -> 20         0.63416

 Excited State   9:      Singlet-A      9.8922 eV  125.34 nm  f=0.0242  <S**2>=0.000
      15 -> 19         0.45237
      16 -> 20         0.11482
      17 -> 20         0.21956
      17 -> 21         0.42138
      18 -> 23        -0.16843

 Excited State  10:      Singlet-A      9.9038 eV  125.19 nm  f=0.0166  <S**2>=0.000
      15 -> 19        -0.45017
      16 -> 20        -0.12291
      17 -> 21         0.47883
      18 -> 23        -0.12948

 Excited State  11:      Singlet-A     10.1331 eV  122.36 nm  f=0.0084  <S**2>=0.000
      14 -> 19         0.11473
      17 -> 21        -0.16072
      18 -> 24         0.66419

 Excited State  12:      Singlet-A     10.2662 eV  120.77 nm  f=0.0032  <S**2>=0.000
      14 -> 19         0.66117
      15 -> 19        -0.12737
      16 -> 20         0.12894
      18 -> 24        -0.10758

 Excited State  13:      Singlet-A     10.5818 eV  117.17 nm  f=0.0017  <S**2>=0.000
      17 -> 22         0.68920

 Excited State  14:      Singlet-A     10.6211 eV  116.73 nm  f=0.0029  <S**2>=0.000
      14 -> 19        -0.15964
      15 -> 19        -0.16410
      16 -> 20         0.64894

 Excited State  15:      Singlet-A     10.9827 eV  112.89 nm  f=0.0039  <S**2>=0.000
      18 -> 25         0.67540
      18 -> 26         0.14107

 The electronic state is 1-A.
 Alpha  occ. eigenvalues --  -19.12784 -10.17828 -10.17788 -10.13102 -10.12318
 Alpha  occ. eigenvalues --   -1.15367  -0.80885  -0.74791  -0.60492  -0.56643
 Alpha  occ. eigenvalues --   -0.54432  -0.46224  -0.44746  -0.41422  -0.40146
 Alpha  occ. eigenvalues --   -0.36508  -0.28305  -0.22465
 Alpha virt. eigenvalues --    0.01877   0.07831   0.12586   0.14867   0.17325
 Alpha virt. eigenvalues --    0.18725   0.22829   0.23884   0.33623   0.41471
 Alpha virt. eigenvalues --    0.47223   0.69671   0.69983   0.71520   0.74069

 Mulliken charges:
               1
     1  C   -0.235274
     2  C    0.076054
     3  O   -0.486979
     4  C    0.108279
     5  C   -0.261271
     6  H    0.190498
     7  H    0.213204
     8  H    0.210842
     9  H    0.184647
 Sum of Mulliken charges =   0.00000

 Dipole moment (field-independent basis, Debye):
    X=             -0.2667    Y=              0.5984    Z=              0.0757  Tot=              0.6595
 Quadrupole moment (field-independent basis, Debye-Ang):
   XX=            -24.5307   YY=            -27.4564   ZZ=            -31.9222
   XY=              1.5930   XZ=              0.0006   YZ=              0.0996

 Normal termination of Gaussian 09 at Tue Dec 15 16:27:21 2015.
