 Gaussian 09, Revision D.01,
 Gaussian 09:  ES64L-G09RevD.01 24-Apr-2013

 ------------------------------------------------------------
 #P AM1(Input,print) CIS(Singlets,NStates=15) pop(full) force
 ------------------------------------------------------------

 -----------------
 AM1-Reparam Input
 -----------------
 Symbolic Z-matrix:
 Charge =  0 Multiplicity = 1

                         Standard orientation:
 ---------------------------------------------------------------------
 Center     Atomic      Atomic             Coordinates (Angstroms)
 Number     Number       Type             X           Y           Z
 ---------------------------------------------------------------------
      1          6           0        0.784739    0.890012    0.024979
      2          6           0        1.094651   -0.427110   -0.003319
      3          8           0       -0.098608   -1.146301   -0.008261
      4          6           0       -1.154740   -0.277523    0.017410
      5          6           0       -0.611548    1.025134   -0.026362
      6          1           0       -1.258019    1.925486   -0.014861
      7          1           0       -2.069470   -0.704131    0.026416
      8          1           0        1.965159   -1.006822   -0.021285
      9          1           0        1.472580    1.692791   -0.000433
 ---------------------------------------------------------------------

 SCF Done:  E(RAM1) =   1.11490669755     A.U. after   14 cycles

 Excitation energies and oscillator strengths:

 Excited State   1:      Singlet-A      5.6366 eV  219.96 nm  f=0.1812  <S**2>=0.000
      12 -> 15        -0.15865
      13 -> 14         0.67431
 This state for optimization and/or second-order correction.
 Total Energy, E(CIS) =   1.32204855686
 Copying the excited state density for this state as the 1-particle RhoCI density.

 Excited State   2:      Singlet-A      6.5594 eV  189.02 nm  f=0.0036  <S**2>=0.000
      13 -> 16         0.68056
      13 -> 20        -0.11620

 Excited State   3:      Singlet-A      6.8899 eV  179.95 nm  f=0.0093  <S**2>=0.000
      12 -> 14         0.38629
      13 -> 15         0.57064

 Excited State   4:      Singlet-A      7.2725 eV  170.48 nm  f=0.0001  <S**2>=0.000
      12 -> 16         0.11389
      13 -> 17         0.65279
      13 -> 18        -0.13170
      13 -> 21         0.15587

 Excited State   5:      Singlet-A      7.4851 eV  165.64 nm  f=0.0040  <S**2>=0.000
       9 -> 14         0.18109
      10 -> 14        -0.12052
      11 -> 14         0.65739

 Excited State   6:      Singlet-A      7.7291 eV  160.41 nm  f=0.0022  <S**2>=0.000
      10 -> 14         0.65818
      11 -> 14         0.10589
      11 -> 15        -0.19093

 Excited State   7:      Singlet-A      7.9530 eV  155.90 nm  f=0.2370  <S**2>=0.000
      11 -> 14        -0.12097
      11 -> 16        -0.10248
      12 -> 14         0.56585
      13 -> 15        -0.35229

 Excited State   8:      Singlet-A      8.2962 eV  149.45 nm  f=0.0016  <S**2>=0.000
      11 -> 15         0.13224
      12 -> 16         0.45767
      13 -> 18         0.46152
      13 -> 24        -0.12347

 Excited State   9:      Singlet-A      8.3161 eV  149.09 nm  f=0.0190  <S**2>=0.000
       9 -> 15        -0.20660
      10 -> 14         0.19662
      11 -> 15         0.61390

 Excited State  10:      Singlet-A      8.4809 eV  146.19 nm  f=0.0020  <S**2>=0.000
      12 -> 16        -0.15799
      13 -> 18         0.28643
      13 -> 19         0.58664
      13 -> 22         0.11364

 Excited State  11:      Singlet-A      8.5443 eV  145.11 nm  f=0.0271  <S**2>=0.000
      12 -> 15        -0.23978
      12 -> 16         0.39575
      13 -> 17        -0.15457
      13 -> 18        -0.33895
      13 -> 19         0.30924
      13 -> 24         0.11560

 Excited State  12:      Singlet-A      8.6275 eV  143.71 nm  f=0.2429  <S**2>=0.000
      12 -> 15         0.61064
      12 -> 16         0.22895
      13 -> 14         0.13680
      13 -> 18        -0.10714

 Excited State  13:      Singlet-A      9.1637 eV  135.30 nm  f=0.0044  <S**2>=0.000
       7 -> 16        -0.10262
      11 -> 16         0.18244
      12 -> 17         0.56700
      13 -> 20         0.28461

 Excited State  14:      Singlet-A      9.1908 eV  134.90 nm  f=0.0444  <S**2>=0.000
       9 -> 16        -0.20541
      10 -> 16         0.14752
      10 -> 17        -0.17360
      11 -> 16         0.52872
      11 -> 19         0.13947
      12 -> 17        -0.20690

 Excited State  15:      Singlet-A      9.4835 eV  130.74 nm  f=0.0948  <S**2>=0.000
       9 -> 14        -0.10913
       9 -> 17         0.20806
      10 -> 16         0.46138
      10 -> 19        -0.17950
      10 -> 20        -0.13890
      11 -> 16        -0.14191
      11 -> 18        -0.28075

 The electronic state is 1-A.
 Alpha  occ. eigenvalues --   -1.81658  -1.18739  -0.99391  -0.87143  -0.81718
 Alpha  occ. eigenvalues --   -0.74074  -0.70858  -0.62053  -0.56936  -0.51682
 Alpha  occ. eigenvalues --   -0.50231  -0.47187  -0.39198
 Alpha virt. eigenvalues --    0.03270   0.08488   0.10006   0.12111   0.18033
 Alpha virt. eigenvalues --    0.18612   0.19347   0.21574   0.25978   0.26594
 Alpha virt. eigenvalues --    0.27082

 Mulliken charges:
               1
     1  C   -0.105988
     2  C   -1.248433
     3  O    2.148170
     4  C   -1.244652
     5  C   -0.149647
     6  H    0.120801
     7  H    0.179439
     8  H    0.188294
     9  H    0.112016
 Sum of Mulliken charges =   0.00000

 Dipole moment (field-independent basis, Debye):
    X=             -0.5129    Y=             -6.9607    Z=             -0.1427  Tot=              6.9810
 N-N= 1.041173736547D+02 E-N=-1.706235417918D+02  KE=-1.496402760442D+01
 Orbital energies and kinetic energies (alpha):
                                 1                 2
   1         O                -1.816580         -1.224891
   2         O                -1.187387         -0.963959
   3         O                -0.993905         -0.810397
   4         O                -0.871429         -0.641670
   5         O                -0.817184         -0.676866
   6         O                -0.740737         -0.601678
   7         O                -0.708579         -0.507034

 Normal termination of Gaussian 09 at Tue Dec 15 17:05:38 2015.
