 Gaussian 09, Revision D.01,
 Gaussian 09:  ES64L-G09RevD.01 24-Apr-2013

 ------------------------------------------------------------
 #P AM1(Input,print) CIS(Singlets,NStates=15) pop(full) force
 ------------------------------------------------------------

 -----------------
 AM1-Reparam Input
 -----------------
 Symbolic Z-matrix:
 Charge =  0 Multiplicity = 1

                         Standard orientation:
 ---------------------------------------------------------------------
 Center     Atomic      Atomic             Coordinates (Angstroms)
 Number     Number       Type             X           Y           Z
 ---------------------------------------------------------------------
      1          6           0       -0.539353    1.061019   -0.012649
      2          6           0       -1.170045   -0.182549    0.028961
      3          8           0       -0.201308   -1.090727   -0.017120
      4          6           0        1.014732   -0.522020   -0.001889
      5          6           0        0.911592    0.780923   -0.009582
      6          1           0        1.622497    1.557458    0.076031
      7          1           0        1.845513   -1.197540    0.044122
      8          1           0       -2.155868   -0.461706    0.015911
      9          1           0       -1.003236    2.003364   -0.028147
 ---------------------------------------------------------------------

 SCF Done:  E(RAM1) =  -6.29811991372     A.U. after   13 cycles

 Excitation energies and oscillator strengths:

 Excited State   1:      Singlet-A      6.0312 eV  205.57 nm  f=0.4455  <S**2>=0.000
      13 -> 14         0.69832
 This state for optimization and/or second-order correction.
 Total Energy, E(CIS) =  -6.07647861426
 Copying the excited state density for this state as the 1-particle RhoCI density.

 Excited State   2:      Singlet-A      7.3839 eV  167.91 nm  f=0.0019  <S**2>=0.000
      12 -> 14         0.70116

 Excited State   3:      Singlet-A      8.6011 eV  144.15 nm  f=0.0102  <S**2>=0.000
      11 -> 14         0.70147

 Excited State   4:      Singlet-A      9.1104 eV  136.09 nm  f=0.0002  <S**2>=0.000
      13 -> 15         0.58867
      13 -> 16        -0.26369
      13 -> 18        -0.13972
      13 -> 19         0.19652
      13 -> 20        -0.10105

 Excited State   5:      Singlet-A      9.6064 eV  129.06 nm  f=0.0054  <S**2>=0.000
      13 -> 15         0.31331
      13 -> 16         0.58028
      13 -> 17        -0.15494
      13 -> 19        -0.15577

 Excited State   6:      Singlet-A     10.5108 eV  117.96 nm  f=0.1611  <S**2>=0.000
      10 -> 14         0.69256

 Excited State   7:      Singlet-A     10.9980 eV  112.73 nm  f=0.0068  <S**2>=0.000
      13 -> 15         0.17464
      13 -> 16        -0.17533
      13 -> 18         0.43550
      13 -> 19        -0.33950
      13 -> 20         0.24828
      13 -> 22        -0.22890

 Excited State   8:      Singlet-A     11.4058 eV  108.70 nm  f=0.0019  <S**2>=0.000
      13 -> 16         0.15990
      13 -> 17         0.65134
      13 -> 18         0.17876

 Excited State   9:      Singlet-A     11.7648 eV  105.39 nm  f=0.0002  <S**2>=0.000
       9 -> 14        -0.37228
      13 -> 17        -0.15554
      13 -> 18         0.40818
      13 -> 19         0.32517
      13 -> 20        -0.22518

 Excited State  10:      Singlet-A     12.0576 eV  102.83 nm  f=0.0067  <S**2>=0.000
       7 -> 14        -0.12101
       9 -> 14         0.55870
      13 -> 18         0.24440
      13 -> 19         0.28487

 Excited State  11:      Singlet-A     12.1930 eV  101.68 nm  f=0.3235  <S**2>=0.000
       8 -> 15        -0.10662
       9 -> 15        -0.11962
      11 -> 17        -0.11266
      12 -> 15         0.50128
      12 -> 16        -0.24340
      12 -> 17         0.12625
      12 -> 18        -0.17959
      12 -> 19         0.19901
      12 -> 20        -0.11221
      12 -> 22         0.11232

 Excited State  12:      Singlet-A     12.3260 eV  100.59 nm  f=0.0812  <S**2>=0.000
       8 -> 14         0.31385
      13 -> 19         0.29027
      13 -> 20         0.52116

 Excited State  13:      Singlet-A     12.7780 eV   97.03 nm  f=0.0629  <S**2>=0.000
       8 -> 14         0.59164
      13 -> 19        -0.17281
      13 -> 20        -0.23477
      13 -> 22         0.19461

 Excited State  14:      Singlet-A     12.9747 eV   95.56 nm  f=0.0502  <S**2>=0.000
       8 -> 14        -0.13116
      12 -> 15         0.14384
      12 -> 16         0.10729
      13 -> 18         0.13348
      13 -> 20         0.16894
      13 -> 22         0.59480

 Excited State  15:      Singlet-A     13.0060 eV   95.33 nm  f=0.1375  <S**2>=0.000
       8 -> 15        -0.14742
       9 -> 15        -0.11552
      11 -> 18         0.17013
      12 -> 15         0.31788
      12 -> 16         0.35677
      12 -> 18         0.20648
      12 -> 19        -0.22431
      12 -> 22        -0.10630
      13 -> 22        -0.20148

 The electronic state is 1-A.
 Alpha  occ. eigenvalues --   -3.80290  -1.10961  -0.88869  -0.83299  -0.77380
 Alpha  occ. eigenvalues --   -0.75593  -0.69731  -0.60754  -0.58210  -0.51060
 Alpha  occ. eigenvalues --   -0.48355  -0.45111  -0.31803
 Alpha virt. eigenvalues --    0.11346   0.25281   0.27826   0.35198   0.36619
 Alpha virt. eigenvalues --    0.37715   0.38275   0.41896   0.43359   0.53043
 Alpha virt. eigenvalues --    0.60466

 Mulliken charges:
               1
     1  C   -0.288854
     2  C   -1.874866
     3  O    3.217152
     4  C   -1.821488
     5  C   -0.181712
     6  H    0.204329
     7  H    0.264566
     8  H    0.270226
     9  H    0.210646
 Sum of Mulliken charges =   0.00000

 Dipole moment (field-independent basis, Debye):
    X=             -1.1926    Y=            -10.0874    Z=             -0.2952  Tot=             10.1619
 N-N= 1.027061381929D+02 E-N=-1.716754922959D+02  KE=-2.270470040179D+01
 Orbital energies and kinetic energies (alpha):
                                 1                 2
   1         O                -3.802905         -2.966436
   2         O                -1.109614         -1.069388
   3         O                -0.888692         -0.737141
   4         O                -0.832986         -0.816320
   5         O                -0.773802         -0.915513
   6         O                -0.755926         -0.761230
   7         O                -0.697312         -0.758652

 Normal termination of Gaussian 09 at Fri Dec 11 13:41:41 2015.
