 Gaussian 09, Revision D.01,
 Gaussian 09:  ES64L-G09RevD.01 24-Apr-2013

 ------------------------------------------------------------
 #P AM1(Input,print) CIS(Singlets,NStates=15) pop(full) force
 ------------------------------------------------------------

 -----------------
 AM1-Reparam Input
 -----------------
 Symbolic Z-matrix:
 Charge =  0 Multiplicity = 1

                         Standard orientation:
 ---------------------------------------------------------------------
 Center     Atomic      Atomic             Coordinates (Angstroms)
 Number     Number       Type             X           Y           Z
 ---------------------------------------------------------------------
      1          6           0        0.910887    0.802540   -0.001698
      2          6           0        0.997376   -0.549908    0.016192
      3          8           0       -0.229411   -1.131440    0.005287
      4          6           0       -1.140191   -0.141281   -0.031029
      5          6           0       -0.524155    1.083897    0.002240
      6          1           0       -0.998771    2.070282    0.039637
      7          1           0       -2.167242   -0.445418    0.063473
      8          1           0        1.798177   -1.214087   -0.038172
      9          1           0        1.739618    1.469259   -0.021473
 ---------------------------------------------------------------------

 SCF Done:  E(RAM1) =   1.69350604591     A.U. after   14 cycles

 Excitation energies and oscillator strengths:

 Excited State   1:      Singlet-A      5.2792 eV  234.86 nm  f=0.3448  <S**2>=0.000
      13 -> 14         0.69470
 This state for optimization and/or second-order correction.
 Total Energy, E(CIS) =   1.88751154886
 Copying the excited state density for this state as the 1-particle RhoCI density.

 Excited State   2:      Singlet-A      6.3360 eV  195.68 nm  f=0.0072  <S**2>=0.000
      13 -> 15         0.62527
      13 -> 16         0.17648
      13 -> 17         0.23964

 Excited State   3:      Singlet-A      6.4771 eV  191.42 nm  f=0.0004  <S**2>=0.000
      13 -> 15        -0.17539
      13 -> 16         0.61133
      13 -> 19        -0.25964

 Excited State   4:      Singlet-A      7.0227 eV  176.55 nm  f=0.0001  <S**2>=0.000
      12 -> 14         0.66820
      13 -> 18        -0.10828
      13 -> 19         0.11315
      13 -> 21         0.11014

 Excited State   5:      Singlet-A      7.3922 eV  167.72 nm  f=0.0001  <S**2>=0.000
      12 -> 14        -0.20453
      13 -> 16         0.16168
      13 -> 18        -0.21103
      13 -> 19         0.42013
      13 -> 20        -0.14371
      13 -> 21         0.41339

 Excited State   6:      Singlet-A      7.7028 eV  160.96 nm  f=0.0225  <S**2>=0.000
      10 -> 14         0.10890
      13 -> 15        -0.20443
      13 -> 17         0.64231

 Excited State   7:      Singlet-A      8.1833 eV  151.51 nm  f=0.0021  <S**2>=0.000
      10 -> 14         0.67863
      13 -> 17        -0.10886

 Excited State   8:      Singlet-A      8.2972 eV  149.43 nm  f=0.0011  <S**2>=0.000
      10 -> 14         0.10018
      13 -> 16         0.15378
      13 -> 18         0.53907
      13 -> 19         0.35747
      13 -> 20         0.10715
      13 -> 21        -0.12887

 Excited State   9:      Singlet-A      8.5288 eV  145.37 nm  f=0.0039  <S**2>=0.000
      13 -> 18         0.36875
      13 -> 19        -0.30204
      13 -> 20        -0.20346
      13 -> 21         0.47060

 Excited State  10:      Singlet-A      8.6362 eV  143.56 nm  f=0.1029  <S**2>=0.000
      11 -> 14         0.68306

 Excited State  11:      Singlet-A      8.9342 eV  138.77 nm  f=0.0839  <S**2>=0.000
      10 -> 14        -0.10178
      13 -> 20         0.63685
      13 -> 21         0.26095

 Excited State  12:      Singlet-A      9.4758 eV  130.84 nm  f=0.0524  <S**2>=0.000
       8 -> 15        -0.16148
       9 -> 19        -0.11385
      10 -> 15         0.16388
      10 -> 17         0.25724
      12 -> 15        -0.17578
      12 -> 16         0.39436
      12 -> 19        -0.23294
      12 -> 21        -0.26034

 Excited State  13:      Singlet-A      9.7385 eV  127.31 nm  f=0.0004  <S**2>=0.000
      11 -> 15         0.63147
      11 -> 16         0.13524
      11 -> 17         0.15060
      13 -> 16        -0.12579

 Excited State  14:      Singlet-A      9.9246 eV  124.93 nm  f=0.0998  <S**2>=0.000
       8 -> 16        -0.14667
      10 -> 21         0.12349
      11 -> 14        -0.13434
      12 -> 15         0.57157
      12 -> 16         0.18762
      12 -> 20        -0.14872

 Excited State  15:      Singlet-A     10.0856 eV  122.93 nm  f=0.0048  <S**2>=0.000
       7 -> 15        -0.11956
      11 -> 15        -0.14018
      11 -> 16         0.62840
      13 -> 15        -0.11757

 The electronic state is 1-A.
 Alpha  occ. eigenvalues --   -1.91725  -1.21025  -0.99958  -0.82586  -0.80430
 Alpha  occ. eigenvalues --   -0.68936  -0.63358  -0.54304  -0.51920  -0.44413
 Alpha  occ. eigenvalues --   -0.42534  -0.40884  -0.27684
 Alpha virt. eigenvalues --    0.12110   0.18159   0.19016   0.24998   0.26909
 Alpha virt. eigenvalues --    0.28131   0.28713   0.29207   0.37077   0.45957
 Alpha virt. eigenvalues --    0.50718

 Mulliken charges:
               1
     1  C   -0.119008
     2  C   -1.934536
     3  O    3.178588
     4  C   -1.938937
     5  C   -0.138151
     6  H    0.178278
     7  H    0.300912
     8  H    0.294618
     9  H    0.178235
 Sum of Mulliken charges =   0.00000

 Dipole moment (field-independent basis, Debye):
    X=             -2.0145    Y=            -10.0635    Z=              0.2617  Tot=             10.2665
 N-N= 1.039140456048D+02 E-N=-1.693070223581D+02  KE=-1.573893137373D+01
 Orbital energies and kinetic energies (alpha):
                                 1                 2
   1         O                -1.917254         -1.386494
   2         O                -1.210251         -1.090739
   3         O                -0.999576         -0.911971
   4         O                -0.825857         -0.640643
   5         O                -0.804295         -0.705914
   6         O                -0.689358         -0.579072
   7         O                -0.633581         -0.508986

 Normal termination of Gaussian 09 at Tue Dec 15 17:07:04 2015.
