 Gaussian 09, Revision D.01,
 Gaussian 09:  ES64L-G09RevD.01 24-Apr-2013

 ------------------------------------------------------------
 #P AM1(Input,print) CIS(Singlets,NStates=15) pop(full) force
 ------------------------------------------------------------

 -----------------
 AM1-Reparam Input
 -----------------
 Symbolic Z-matrix:
 Charge =  0 Multiplicity = 1

                         Standard orientation:
 ---------------------------------------------------------------------
 Center     Atomic      Atomic             Coordinates (Angstroms)
 Number     Number       Type             X           Y           Z
 ---------------------------------------------------------------------
      1          6           0        0.961004    0.714901    0.003316
      2          6           0        0.937369   -0.618462   -0.000946
      3          8           0       -0.343133   -1.143220   -0.015483
      4          6           0       -1.091747   -0.002208    0.030209
      5          6           0       -0.447050    1.116828   -0.006390
      6          1           0       -0.799831    2.085926   -0.007749
      7          1           0       -2.187945   -0.289368   -0.041894
      8          1           0        1.755621   -1.305255    0.050051
      9          1           0        1.819766    1.388099   -0.033679
 ---------------------------------------------------------------------

 SCF Done:  E(RAM1) =   2.11040364920     A.U. after   13 cycles

 Excitation energies and oscillator strengths:

 Excited State   1:      Singlet-A      5.1644 eV  240.08 nm  f=0.3490  <S**2>=0.000
      13 -> 14         0.69690
 This state for optimization and/or second-order correction.
 Total Energy, E(CIS) =   2.30019103716
 Copying the excited state density for this state as the 1-particle RhoCI density.

 Excited State   2:      Singlet-A      6.0530 eV  204.83 nm  f=0.0005  <S**2>=0.000
      13 -> 15         0.66463
      13 -> 17         0.16422
      13 -> 18        -0.10889

 Excited State   3:      Singlet-A      6.5683 eV  188.76 nm  f=0.0003  <S**2>=0.000
      12 -> 14         0.68232
      13 -> 16         0.13991

 Excited State   4:      Singlet-A      6.6172 eV  187.37 nm  f=0.0046  <S**2>=0.000
      12 -> 14        -0.16332
      13 -> 16         0.62490
      13 -> 18         0.24592

 Excited State   5:      Singlet-A      7.6046 eV  163.04 nm  f=0.0042  <S**2>=0.000
      13 -> 15        -0.13999
      13 -> 16         0.15250
      13 -> 17         0.41070
      13 -> 18        -0.37715
      13 -> 19        -0.23640
      13 -> 20        -0.23830
      13 -> 21        -0.13719

 Excited State   6:      Singlet-A      7.8992 eV  156.96 nm  f=0.0082  <S**2>=0.000
      10 -> 14        -0.44803
      11 -> 14         0.52972

 Excited State   7:      Singlet-A      8.2776 eV  149.78 nm  f=0.0216  <S**2>=0.000
      13 -> 16        -0.13367
      13 -> 17         0.53540
      13 -> 18         0.28862
      13 -> 19         0.23219
      13 -> 20         0.15922

 Excited State   8:      Singlet-A      8.7350 eV  141.94 nm  f=0.0009  <S**2>=0.000
      13 -> 16         0.14189
      13 -> 18        -0.38985
      13 -> 19         0.53153
      13 -> 20         0.16018

 Excited State   9:      Singlet-A      8.7629 eV  141.49 nm  f=0.0836  <S**2>=0.000
      10 -> 14         0.49774
      11 -> 14         0.41799
      12 -> 15         0.19589
      13 -> 22         0.10089

 Excited State  10:      Singlet-A      9.1231 eV  135.90 nm  f=0.1782  <S**2>=0.000
       9 -> 15         0.13701
      10 -> 14        -0.13716
      11 -> 14        -0.12207
      12 -> 15         0.49033
      12 -> 16        -0.23232
      12 -> 17         0.16836
      12 -> 18        -0.22517

 Excited State  11:      Singlet-A      9.3850 eV  132.11 nm  f=0.0163  <S**2>=0.000
      13 -> 18        -0.16763
      13 -> 19        -0.31980
      13 -> 20         0.55292
      13 -> 21         0.22601

 Excited State  12:      Singlet-A      9.7442 eV  127.24 nm  f=0.0590  <S**2>=0.000
       9 -> 15         0.10401
      10 -> 15         0.10470
      11 -> 15        -0.13523
      11 -> 17        -0.11161
      12 -> 15         0.34068
      12 -> 16         0.28019
      12 -> 18         0.23567
      12 -> 19         0.17851
      13 -> 20         0.11110
      13 -> 21        -0.29854

 Excited State  13:      Singlet-A      9.7614 eV  127.01 nm  f=0.0525  <S**2>=0.000
      12 -> 15         0.14997
      12 -> 16         0.17475
      12 -> 18         0.13233
      13 -> 20        -0.23888
      13 -> 21         0.56621

 Excited State  14:      Singlet-A     10.0237 eV  123.69 nm  f=0.0021  <S**2>=0.000
       7 -> 15        -0.14344
      10 -> 15         0.47252
      11 -> 15         0.45695
      13 -> 15        -0.12617

 Excited State  15:      Singlet-A     10.1269 eV  122.43 nm  f=0.0981  <S**2>=0.000
      10 -> 16        -0.12124
      10 -> 18        -0.10553
      11 -> 16         0.22702
      11 -> 18         0.12789
      12 -> 16         0.46074
      12 -> 17         0.27237
      12 -> 19        -0.22662
      12 -> 20        -0.13934

 The electronic state is 1-A.
 Alpha  occ. eigenvalues --   -1.93594  -1.20626  -0.95128  -0.81892  -0.78347
 Alpha  occ. eigenvalues --   -0.68743  -0.64682  -0.53133  -0.51914  -0.43398
 Alpha  occ. eigenvalues --   -0.43165  -0.39061  -0.26898
 Alpha virt. eigenvalues --    0.12379   0.17561   0.20813   0.27648   0.28416
 Alpha virt. eigenvalues --    0.30917   0.31955   0.33125   0.34830   0.44705
 Alpha virt. eigenvalues --    0.47373

 Mulliken charges:
               1
     1  C   -0.214746
     2  C   -1.981040
     3  O    3.157620
     4  C   -1.940329
     5  C   -0.223184
     6  H    0.243759
     7  H    0.347769
     8  H    0.364985
     9  H    0.245166
 Sum of Mulliken charges =   0.00000

 Dipole moment (field-independent basis, Debye):
    X=             -3.4967    Y=            -10.8575    Z=             -0.4784  Tot=             11.4167
 N-N= 1.045299240390D+02 E-N=-1.701239325961D+02  KE=-1.550348488108D+01
 Orbital energies and kinetic energies (alpha):
                                 1                 2
   1         O                -1.935944         -1.377771
   2         O                -1.206264         -1.087731
   3         O                -0.951283         -0.887967
   4         O                -0.818924         -0.593196
   5         O                -0.783466         -0.662008
   6         O                -0.687427         -0.569742
   7         O                -0.646815         -0.526505

 Normal termination of Gaussian 09 at Tue Dec 15 17:07:19 2015.
