 Gaussian 09, Revision D.01,
 Gaussian 09:  ES64L-G09RevD.01 24-Apr-2013

 -------------------------------------------------------
 #P B3LYP/3-21G CIS(Singlets,NStates=15) pop(full) force
 -------------------------------------------------------

 --------
 FuranDFT
 --------
 Symbolic Z-matrix:
 Charge =  0 Multiplicity = 1

                         Standard orientation:
 ---------------------------------------------------------------------
 Center     Atomic      Atomic             Coordinates (Angstroms)
 Number     Number       Type             X           Y           Z
 ---------------------------------------------------------------------
      1          6           0        0.863239    0.784245   -0.020767
      2          6           0        1.033205   -0.481976    0.015390
      3          8           0       -0.225510   -1.153029    0.003608
      4          6           0       -1.105698   -0.133167   -0.010492
      5          6           0       -0.522442    1.046167   -0.000348
      6          1           0       -1.117619    1.976527    0.081247
      7          1           0       -2.183631   -0.462451   -0.015577
      8          1           0        1.851522   -1.191054    0.001046
      9          1           0        1.643985    1.609587    0.001716
 ---------------------------------------------------------------------

 SCF Done:  E(RB3LYP) =  -228.732227532     A.U. after   14 cycles

 Excitation energies and oscillator strengths:

 Excited State   1:      Singlet-A      7.4476 eV  166.47 nm  f=0.1652  <S**2>=0.000
      17 -> 19         0.16339
      18 -> 19         0.64005
      18 -> 20        -0.17393
 This state for optimization and/or second-order correction.
 Total Energy, E(CIS) =  -228.458531789
 Copying the excited state density for this state as the 1-particle RhoCI density.

 Excited State   2:      Singlet-A      7.8364 eV  158.22 nm  f=0.0337  <S**2>=0.000
      17 -> 19         0.49691
      18 -> 19        -0.23107
      18 -> 20        -0.42655

 Excited State   3:      Singlet-A      8.1882 eV  151.42 nm  f=0.0043  <S**2>=0.000
      17 -> 19        -0.10326
      18 -> 21         0.68604

 Excited State   4:      Singlet-A      9.0678 eV  136.73 nm  f=0.0012  <S**2>=0.000
      16 -> 19        -0.11928
      18 -> 22         0.67273
      18 -> 23        -0.10889

 Excited State   5:      Singlet-A      9.1026 eV  136.21 nm  f=0.0038  <S**2>=0.000
      16 -> 19         0.68092
      17 -> 21         0.13069

 Excited State   6:      Singlet-A      9.4057 eV  131.82 nm  f=0.0059  <S**2>=0.000
      16 -> 19        -0.12165
      17 -> 20        -0.22444
      17 -> 21         0.62810
      18 -> 22        -0.12387

 Excited State   7:      Singlet-A      9.8913 eV  125.35 nm  f=0.0514  <S**2>=0.000
      15 -> 19        -0.21647
      17 -> 19         0.12449
      17 -> 20         0.11334
      17 -> 21         0.14348
      18 -> 20         0.15855
      18 -> 23         0.57405
      18 -> 24        -0.12752

 Excited State   8:      Singlet-A      9.9445 eV  124.68 nm  f=0.1877  <S**2>=0.000
      15 -> 19         0.13860
      17 -> 19         0.19429
      17 -> 20         0.47017
      17 -> 21         0.19356
      18 -> 20         0.27382
      18 -> 23        -0.24645

 Excited State   9:      Singlet-A     10.1082 eV  122.66 nm  f=0.0318  <S**2>=0.000
      15 -> 19         0.56027
      17 -> 20        -0.22421
      18 -> 23         0.12671
      18 -> 24        -0.28268

 Excited State  10:      Singlet-A     10.2282 eV  121.22 nm  f=0.1486  <S**2>=0.000
      15 -> 19         0.31919
      17 -> 19        -0.21234
      17 -> 20         0.29987
      18 -> 20        -0.22990
      18 -> 23         0.24822
      18 -> 24         0.29418

 Excited State  11:      Singlet-A     10.3413 eV  119.89 nm  f=0.0896  <S**2>=0.000
      17 -> 19         0.16316
      17 -> 20        -0.14705
      17 -> 22         0.55480
      18 -> 20         0.18470
      18 -> 24         0.27066

 Excited State  12:      Singlet-A     10.3716 eV  119.54 nm  f=0.0765  <S**2>=0.000
      17 -> 19         0.15034
      17 -> 20        -0.12280
      17 -> 22        -0.39755
      18 -> 20         0.16402
      18 -> 24         0.48092

 Excited State  13:      Singlet-A     10.7326 eV  115.52 nm  f=0.0107  <S**2>=0.000
      13 -> 19        -0.15695
      14 -> 19         0.62775
      16 -> 20         0.22293

 Excited State  14:      Singlet-A     10.8952 eV  113.80 nm  f=0.0017  <S**2>=0.000
      13 -> 19         0.65869
      14 -> 19         0.15612
      18 -> 25         0.12534

 Excited State  15:      Singlet-A     11.0209 eV  112.50 nm  f=0.0075  <S**2>=0.000
      13 -> 19        -0.11197
      18 -> 25         0.67232

 The electronic state is 1-A.
 Alpha  occ. eigenvalues --  -19.10449 -10.17275 -10.16929 -10.12725 -10.11928
 Alpha  occ. eigenvalues --   -1.11744  -0.82543  -0.74923  -0.59877  -0.56781
 Alpha  occ. eigenvalues --   -0.53897  -0.44575  -0.42944  -0.41941  -0.39793
 Alpha  occ. eigenvalues --   -0.36545  -0.28601  -0.23962
 Alpha virt. eigenvalues --    0.02771   0.09590   0.10942   0.13946   0.16818
 Alpha virt. eigenvalues --    0.17935   0.21217   0.23790   0.37032   0.44441
 Alpha virt. eigenvalues --    0.48492   0.67095   0.69535   0.71142   0.76245

 Mulliken charges:
               1
     1  C   -0.244075
     2  C    0.056244
     3  O   -0.474802
     4  C    0.114127
     5  C   -0.254668
     6  H    0.188518
     7  H    0.208544
     8  H    0.215891
     9  H    0.190221
 Sum of Mulliken charges =   0.00000

 Dipole moment (field-independent basis, Debye):
    X=              0.1564    Y=              0.8482    Z=              0.0652  Tot=              0.8650
 Quadrupole moment (field-independent basis, Debye-Ang):
   XX=            -23.7970   YY=            -28.1107   ZZ=            -31.6257
   XY=             -0.7967   XZ=             -0.0651   YZ=              0.2205

 Normal termination of Gaussian 09 at Tue Dec 15 16:24:49 2015.
