 Gaussian 09, Revision D.01,
 Gaussian 09:  ES64L-G09RevD.01 24-Apr-2013

 ------------------------------------------------------------
 #P AM1(Input,print) CIS(Singlets,NStates=15) pop(full) force
 ------------------------------------------------------------

 -----------------
 AM1-Reparam Input
 -----------------
 Symbolic Z-matrix:
 Charge =  0 Multiplicity = 1

                         Standard orientation:
 ---------------------------------------------------------------------
 Center     Atomic      Atomic             Coordinates (Angstroms)
 Number     Number       Type             X           Y           Z
 ---------------------------------------------------------------------
      1          6           0       -0.611481    1.018234   -0.012699
      2          6           0       -1.096582   -0.170793    0.015960
      3          8           0       -0.181562   -1.109748   -0.010608
      4          6           0        1.017743   -0.505011    0.001332
      5          6           0        0.894040    0.834652    0.013340
      6          1           0        1.602161    1.597933   -0.015683
      7          1           0        1.865715   -1.158445   -0.001804
      8          1           0       -2.192187   -0.563814    0.011929
      9          1           0       -1.045513    1.939813   -0.017174
 ---------------------------------------------------------------------

 SCF Done:  E(RAM1) =   2.58281817035     A.U. after   13 cycles

 Excitation energies and oscillator strengths:

 Excited State   1:      Singlet-A      4.9444 eV  250.76 nm  f=0.3636  <S**2>=0.000
      13 -> 14         0.69760
 This state for optimization and/or second-order correction.
 Total Energy, E(CIS) =   2.76452098233
 Copying the excited state density for this state as the 1-particle RhoCI density.

 Excited State   2:      Singlet-A      5.4456 eV  227.68 nm  f=0.0005  <S**2>=0.000
      13 -> 15         0.68092
      13 -> 18        -0.11094

 Excited State   3:      Singlet-A      6.1232 eV  202.48 nm  f=0.0016  <S**2>=0.000
      13 -> 16         0.65410
      13 -> 17        -0.21254

 Excited State   4:      Singlet-A      6.3098 eV  196.49 nm  f=0.0001  <S**2>=0.000
      12 -> 14         0.69808

 Excited State   5:      Singlet-A      7.2306 eV  171.47 nm  f=0.0004  <S**2>=0.000
      13 -> 16         0.15845
      13 -> 17         0.57294
      13 -> 18        -0.26565
      13 -> 19         0.11213
      13 -> 20        -0.11376
      13 -> 21         0.18375

 Excited State   6:      Singlet-A      7.9386 eV  156.18 nm  f=0.0179  <S**2>=0.000
      10 -> 14         0.29376
      13 -> 16         0.10817
      13 -> 17         0.22092
      13 -> 18         0.57150

 Excited State   7:      Singlet-A      8.1578 eV  151.98 nm  f=0.0002  <S**2>=0.000
      10 -> 14         0.62310
      11 -> 14         0.11798
      13 -> 17        -0.10005
      13 -> 18        -0.26844

 Excited State   8:      Singlet-A      8.5279 eV  145.39 nm  f=0.1203  <S**2>=0.000
       8 -> 15         0.13272
      11 -> 14        -0.29272
      12 -> 15         0.58498
      12 -> 17         0.13608

 Excited State   9:      Singlet-A      8.5632 eV  144.79 nm  f=0.0011  <S**2>=0.000
      13 -> 16        -0.10209
      13 -> 17        -0.12809
      13 -> 19         0.67066

 Excited State  10:      Singlet-A      8.8337 eV  140.35 nm  f=0.1664  <S**2>=0.000
      10 -> 14        -0.10686
      11 -> 14         0.58659
      12 -> 15         0.23990
      12 -> 16        -0.22042

 Excited State  11:      Singlet-A      9.3127 eV  133.13 nm  f=0.0256  <S**2>=0.000
       9 -> 15         0.10727
      10 -> 15         0.12369
      10 -> 18        -0.10197
      11 -> 14        -0.10519
      12 -> 15        -0.14671
      12 -> 16        -0.28638
      12 -> 17         0.20178
      13 -> 17        -0.14332
      13 -> 20        -0.34241
      13 -> 21         0.37416

 Excited State  12:      Singlet-A      9.3177 eV  133.06 nm  f=0.0315  <S**2>=0.000
       9 -> 15        -0.13153
      10 -> 15        -0.13281
      10 -> 18         0.11598
      11 -> 14         0.10626
      12 -> 15         0.16812
      12 -> 16         0.35127
      12 -> 17        -0.24355
      13 -> 17        -0.12609
      13 -> 20        -0.24435
      13 -> 21         0.34358

 Excited State  13:      Singlet-A      9.6042 eV  129.09 nm  f=0.0953  <S**2>=0.000
       9 -> 14         0.10113
      13 -> 20         0.52778
      13 -> 21         0.42638

 Excited State  14:      Singlet-A      9.6448 eV  128.55 nm  f=0.0013  <S**2>=0.000
       9 -> 14         0.67667
      13 -> 21        -0.11781

 Excited State  15:      Singlet-A      9.7062 eV  127.74 nm  f=0.0002  <S**2>=0.000
       7 -> 15        -0.15047
      10 -> 15        -0.11896
      11 -> 15         0.64476
      13 -> 15        -0.10604
      13 -> 20        -0.12517

 The electronic state is 1-A.
 Alpha  occ. eigenvalues --   -1.76661  -1.15771  -0.96861  -0.82439  -0.75708
 Alpha  occ. eigenvalues --   -0.67610  -0.65987  -0.55171  -0.49246  -0.45757
 Alpha  occ. eigenvalues --   -0.44927  -0.39583  -0.27376
 Alpha virt. eigenvalues --    0.10463   0.14393   0.17930   0.26561   0.26757
 Alpha virt. eigenvalues --    0.29428   0.31535   0.32352   0.41419   0.50515
 Alpha virt. eigenvalues --    0.55256

 Mulliken charges:
               1
     1  C   -0.102176
     2  C   -1.894972
     3  O    3.216203
     4  C   -1.910186
     5  C   -0.077344
     6  H    0.117551
     7  H    0.258295
     8  H    0.273119
     9  H    0.119510
 Sum of Mulliken charges =   0.00000

 Dipole moment (field-independent basis, Debye):
    X=             -2.1788    Y=            -10.3485    Z=             -0.2863  Tot=             10.5792
 N-N= 1.044044563989D+02 E-N=-1.696961143934D+02  KE=-1.508517778913D+01
 Orbital energies and kinetic energies (alpha):
                                 1                 2
   1         O                -1.766612         -1.274976
   2         O                -1.157706         -1.010920
   3         O                -0.968613         -0.869870
   4         O                -0.824389         -0.620846
   5         O                -0.757082         -0.688290
   6         O                -0.676103         -0.568694
   7         O                -0.659875         -0.527007

 Normal termination of Gaussian 09 at Tue Dec 15 17:06:12 2015.
