 Gaussian 09, Revision D.01,
 Gaussian 09:  ES64L-G09RevD.01 24-Apr-2013

 ------------------------------------------------------------
 #P AM1(Input,print) CIS(Singlets,NStates=15) pop(full) force
 ------------------------------------------------------------

 -----------------
 AM1-Reparam Input
 -----------------
 Symbolic Z-matrix:
 Charge =  0 Multiplicity = 1

                         Standard orientation:
 ---------------------------------------------------------------------
 Center     Atomic      Atomic             Coordinates (Angstroms)
 Number     Number       Type             X           Y           Z
 ---------------------------------------------------------------------
      1          6           0        0.891225    0.800723    0.015921
      2          6           0        1.016608   -0.509661    0.031629
      3          8           0       -0.214954   -1.150807   -0.014098
      4          6           0       -1.141199   -0.136255   -0.007561
      5          6           0       -0.532356    1.050949   -0.024795
      6          1           0       -1.111574    2.035757    0.060398
      7          1           0       -2.156911   -0.506916    0.075583
      8          1           0        1.919511   -1.151118   -0.050373
      9          1           0        1.662937    1.594196   -0.063994
 ---------------------------------------------------------------------

 SCF Done:  E(RAM1) =   1.81049855648     A.U. after   14 cycles

 Excitation energies and oscillator strengths:

 Excited State   1:      Singlet-A      5.3030 eV  233.80 nm  f=0.3411  <S**2>=0.000
      13 -> 14         0.69175
 This state for optimization and/or second-order correction.
 Total Energy, E(CIS) =   2.00537978021
 Copying the excited state density for this state as the 1-particle RhoCI density.

 Excited State   2:      Singlet-A      6.4742 eV  191.51 nm  f=0.0015  <S**2>=0.000
      13 -> 15         0.67095
      13 -> 18         0.11641
      13 -> 19        -0.13240

 Excited State   3:      Singlet-A      6.5390 eV  189.61 nm  f=0.0092  <S**2>=0.000
      13 -> 16         0.67533
      13 -> 17        -0.14555

 Excited State   4:      Singlet-A      7.4111 eV  167.30 nm  f=0.0005  <S**2>=0.000
      12 -> 14         0.69871

 Excited State   5:      Singlet-A      7.9785 eV  155.40 nm  f=0.0003  <S**2>=0.000
      13 -> 15        -0.10749
      13 -> 17         0.12954
      13 -> 18         0.63167
      13 -> 21        -0.24065

 Excited State   6:      Singlet-A      8.1555 eV  152.02 nm  f=0.0101  <S**2>=0.000
      11 -> 14         0.68362
      13 -> 17        -0.13994

 Excited State   7:      Singlet-A      8.5767 eV  144.56 nm  f=0.0086  <S**2>=0.000
      10 -> 15        -0.11798
      11 -> 14         0.14946
      13 -> 16         0.11980
      13 -> 17         0.65137
      13 -> 18        -0.11856

 Excited State   8:      Singlet-A      9.1588 eV  135.37 nm  f=0.0708  <S**2>=0.000
      10 -> 14         0.66351
      12 -> 16         0.10593
      13 -> 22         0.10811

 Excited State   9:      Singlet-A      9.2458 eV  134.10 nm  f=0.0005  <S**2>=0.000
      13 -> 15         0.10384
      13 -> 18         0.11458
      13 -> 19         0.67512

 Excited State  10:      Singlet-A      9.6283 eV  128.77 nm  f=0.0027  <S**2>=0.000
       8 -> 16         0.11756
      11 -> 15        -0.11091
      11 -> 16        -0.14908
      11 -> 17         0.23838
      12 -> 15         0.41212
      12 -> 16        -0.15098
      12 -> 17         0.10228
      12 -> 18         0.34036

 Excited State  11:      Singlet-A     10.0301 eV  123.61 nm  f=0.2270  <S**2>=0.000
      11 -> 15         0.24817
      11 -> 16         0.23893
      11 -> 17        -0.14329
      12 -> 15         0.48477
      12 -> 16         0.20569
      12 -> 17        -0.15114
      12 -> 18        -0.11256

 Excited State  12:      Singlet-A     10.1095 eV  122.64 nm  f=0.0104  <S**2>=0.000
      13 -> 18         0.21854
      13 -> 20        -0.30775
      13 -> 21         0.57813

 Excited State  13:      Singlet-A     10.2425 eV  121.05 nm  f=0.1300  <S**2>=0.000
      11 -> 15         0.18061
      11 -> 16        -0.29162
      11 -> 17         0.11057
      12 -> 16         0.48503
      12 -> 18         0.14994
      13 -> 20        -0.19330
      13 -> 21        -0.15823

 Excited State  14:      Singlet-A     10.2639 eV  120.80 nm  f=0.1145  <S**2>=0.000
      10 -> 15        -0.14164
      11 -> 16        -0.12938
      12 -> 16         0.16974
      13 -> 20         0.57428
      13 -> 21         0.25818

 Excited State  15:      Singlet-A     10.5708 eV  117.29 nm  f=0.0127  <S**2>=0.000
       7 -> 15         0.11258
      10 -> 15         0.34810
      10 -> 16         0.53084
      12 -> 16         0.10147
      13 -> 15         0.11930

 The electronic state is 1-A.
 Alpha  occ. eigenvalues --   -1.98721  -1.26839  -1.00005  -0.88884  -0.84249
 Alpha  occ. eigenvalues --   -0.75819  -0.74149  -0.62600  -0.61111  -0.51892
 Alpha  occ. eigenvalues --   -0.50614  -0.48362  -0.35095
 Alpha virt. eigenvalues --    0.05266   0.11575   0.11862   0.19943   0.20845
 Alpha virt. eigenvalues --    0.23614   0.26096   0.27809   0.28116   0.36632
 Alpha virt. eigenvalues --    0.41091

 Mulliken charges:
               1
     1  C   -0.122187
     2  C   -1.880319
     3  O    3.165285
     4  C   -1.861256
     5  C   -0.170115
     6  H    0.161153
     7  H    0.267890
     8  H    0.289234
     9  H    0.150314
 Sum of Mulliken charges =   0.00000

 Dipole moment (field-independent basis, Debye):
    X=             -1.8870    Y=            -11.0744    Z=             -0.3377  Tot=             11.2391
 N-N= 1.053237940723D+02 E-N=-1.702534536688D+02  KE=-1.560635571449D+01
 Orbital energies and kinetic energies (alpha):
                                 1                 2
   1         O                -1.987212         -1.362418
   2         O                -1.268392         -1.048270
   3         O                -1.000049         -0.887453
   4         O                -0.888836         -0.580274
   5         O                -0.842488         -0.697478
   6         O                -0.758188         -0.587928
   7         O                -0.741490         -0.547520

 Normal termination of Gaussian 09 at Tue Dec 15 17:09:09 2015.
