 Gaussian 09, Revision D.01,
 Gaussian 09:  ES64L-G09RevD.01 24-Apr-2013

 ------------------------------------------------------------
 #P AM1(Input,print) CIS(Singlets,NStates=15) pop(full) force
 ------------------------------------------------------------

 -----------------
 AM1-Reparam Input
 -----------------
 Symbolic Z-matrix:
 Charge =  0 Multiplicity = 1

                         Standard orientation:
 ---------------------------------------------------------------------
 Center     Atomic      Atomic             Coordinates (Angstroms)
 Number     Number       Type             X           Y           Z
 ---------------------------------------------------------------------
      1          6           0        0.788970    0.885096   -0.003663
      2          6           0        1.102359   -0.368707    0.027840
      3          8           0       -0.079589   -1.151040   -0.021614
      4          6           0       -1.150744   -0.252078    0.029135
      5          6           0       -0.671583    0.959252   -0.022512
      6          1           0       -1.227418    1.853659    0.035861
      7          1           0       -2.037413   -0.689635   -0.014642
      8          1           0        2.007510   -1.003691   -0.013128
      9          1           0        1.480020    1.706611   -0.019980
 ---------------------------------------------------------------------

 SCF Done:  E(RAM1) =   1.79493914382     A.U. after   14 cycles

 Excitation energies and oscillator strengths:

 Excited State   1:      Singlet-A      5.0304 eV  246.47 nm  f=0.3394  <S**2>=0.000
      13 -> 14         0.69498
 This state for optimization and/or second-order correction.
 Total Energy, E(CIS) =   1.97980138451
 Copying the excited state density for this state as the 1-particle RhoCI density.

 Excited State   2:      Singlet-A      5.8203 eV  213.02 nm  f=0.0003  <S**2>=0.000
      11 -> 15        -0.10514
      13 -> 15         0.66377
      13 -> 17         0.12762
      13 -> 18        -0.11806

 Excited State   3:      Singlet-A      6.1639 eV  201.14 nm  f=0.0030  <S**2>=0.000
      13 -> 16         0.64707
      13 -> 17         0.15551
      13 -> 18         0.12251
      13 -> 19        -0.12954

 Excited State   4:      Singlet-A      6.8152 eV  181.92 nm  f=0.0005  <S**2>=0.000
      12 -> 14         0.61783
      13 -> 17        -0.10499
      13 -> 19        -0.28465

 Excited State   5:      Singlet-A      7.0093 eV  176.88 nm  f=0.0030  <S**2>=0.000
      12 -> 14         0.32774
      13 -> 15        -0.12507
      13 -> 17         0.25841
      13 -> 18        -0.23527
      13 -> 19         0.48497

 Excited State   6:      Singlet-A      7.3988 eV  167.57 nm  f=0.0196  <S**2>=0.000
      13 -> 16        -0.17456
      13 -> 17         0.60605
      13 -> 19        -0.26288

 Excited State   7:      Singlet-A      8.0942 eV  153.18 nm  f=0.0001  <S**2>=0.000
      10 -> 14         0.15253
      13 -> 16         0.12771
      13 -> 18        -0.38947
      13 -> 19        -0.11612
      13 -> 20         0.50335
      13 -> 21         0.15177

 Excited State   8:      Singlet-A      8.1007 eV  153.05 nm  f=0.0008  <S**2>=0.000
      10 -> 14         0.62760
      11 -> 14         0.23271
      13 -> 20        -0.16063

 Excited State   9:      Singlet-A      8.3578 eV  148.35 nm  f=0.0004  <S**2>=0.000
      13 -> 18         0.49468
      13 -> 19         0.26449
      13 -> 20         0.39669
      13 -> 21         0.14422

 Excited State  10:      Singlet-A      8.7493 eV  141.71 nm  f=0.0472  <S**2>=0.000
       8 -> 15         0.10197
      10 -> 14        -0.23943
      11 -> 14         0.52824
      12 -> 15        -0.23676
      13 -> 21         0.19809
      13 -> 22        -0.15400

 Excited State  11:      Singlet-A      8.7761 eV  141.27 nm  f=0.0836  <S**2>=0.000
      11 -> 14        -0.20723
      13 -> 20        -0.17438
      13 -> 21         0.63183

 Excited State  12:      Singlet-A      9.1201 eV  135.95 nm  f=0.1051  <S**2>=0.000
       8 -> 15        -0.12359
      10 -> 17        -0.17888
      11 -> 14         0.17232
      12 -> 15         0.40563
      12 -> 16        -0.27693
      12 -> 18        -0.24130
      12 -> 19         0.25325

 Excited State  13:      Singlet-A      9.6923 eV  127.92 nm  f=0.1247  <S**2>=0.000
       8 -> 15        -0.12267
      10 -> 15         0.18833
      10 -> 17         0.17493
      11 -> 14         0.16976
      12 -> 15         0.42618
      12 -> 16         0.21381
      12 -> 18         0.19378
      12 -> 19        -0.23237
      13 -> 22        -0.10350

 Excited State  14:      Singlet-A      9.9090 eV  125.12 nm  f=0.1355  <S**2>=0.000
      10 -> 16        -0.17674
      10 -> 17        -0.13184
      11 -> 14         0.15069
      12 -> 16         0.45670
      12 -> 17         0.18759
      12 -> 19         0.14627
      12 -> 20        -0.14822
      13 -> 22         0.29030

 Excited State  15:      Singlet-A      9.9327 eV  124.82 nm  f=0.0848  <S**2>=0.000
      10 -> 16         0.15806
      10 -> 17         0.10395
      11 -> 14         0.12794
      12 -> 16        -0.21509
      13 -> 22         0.59066

 The electronic state is 1-A.
 Alpha  occ. eigenvalues --   -1.90804  -1.22855  -1.01581  -0.82257  -0.81317
 Alpha  occ. eigenvalues --   -0.69030  -0.63001  -0.54429  -0.52013  -0.43088
 Alpha  occ. eigenvalues --   -0.42888  -0.39173  -0.25634
 Alpha virt. eigenvalues --    0.13048   0.17877   0.20157   0.26036   0.28796
 Alpha virt. eigenvalues --    0.29125   0.29593   0.30276   0.33165   0.42382
 Alpha virt. eigenvalues --    0.46724

 Mulliken charges:
               1
     1  C   -0.140672
     2  C   -1.877200
     3  O    3.181161
     4  C   -1.890041
     5  C   -0.190575
     6  H    0.180853
     7  H    0.282630
     8  H    0.277527
     9  H    0.176317
 Sum of Mulliken charges =   0.00000

 Dipole moment (field-independent basis, Debye):
    X=             -0.4660    Y=            -11.2928    Z=             -0.7802  Tot=             11.3293
 N-N= 1.040619029021D+02 E-N=-1.694207608688D+02  KE=-1.575177191631D+01
 Orbital energies and kinetic energies (alpha):
                                 1                 2
   1         O                -1.908040         -1.351884
   2         O                -1.228546         -1.100480
   3         O                -1.015811         -0.943389
   4         O                -0.822569         -0.655602
   5         O                -0.813168         -0.690865
   6         O                -0.690300         -0.576539
   7         O                -0.630007         -0.515479

 Normal termination of Gaussian 09 at Tue Dec 15 17:06:58 2015.
