 Gaussian 09, Revision D.01,
 Gaussian 09:  ES64L-G09RevD.01 24-Apr-2013

 ------------------------------------------------------------
 #P AM1(Input,print) CIS(Singlets,NStates=15) pop(full) force
 ------------------------------------------------------------

 -----------------
 AM1-Reparam Input
 -----------------
 Symbolic Z-matrix:
 Charge =  0 Multiplicity = 1

                         Standard orientation:
 ---------------------------------------------------------------------
 Center     Atomic      Atomic             Coordinates (Angstroms)
 Number     Number       Type             X           Y           Z
 ---------------------------------------------------------------------
      1          6           0       -0.947164    0.716686   -0.010814
      2          6           0       -1.014519   -0.569908    0.008926
      3          8           0        0.305405   -1.133132   -0.007615
      4          6           0        1.159974   -0.111578   -0.002272
      5          6           0        0.462598    1.147134    0.014043
      6          1           0        0.936790    2.101913   -0.021668
      7          1           0        2.235390   -0.305277    0.012470
      8          1           0       -1.786927   -1.281373    0.020675
      9          1           0       -1.793824    1.455788   -0.009853
 ---------------------------------------------------------------------

 SCF Done:  E(RAM1) =   1.12946216880     A.U. after   14 cycles

 Excitation energies and oscillator strengths:

 Excited State   1:      Singlet-A      5.3259 eV  232.79 nm  f=0.2219  <S**2>=0.000
      12 -> 15        -0.13368
      13 -> 14         0.68317
 This state for optimization and/or second-order correction.
 Total Energy, E(CIS) =   1.32518566983
 Copying the excited state density for this state as the 1-particle RhoCI density.

 Excited State   2:      Singlet-A      6.0201 eV  205.95 nm  f=0.0021  <S**2>=0.000
      13 -> 16         0.67121
      13 -> 18        -0.10682
      13 -> 19         0.13106

 Excited State   3:      Singlet-A      6.6243 eV  187.17 nm  f=0.0408  <S**2>=0.000
      12 -> 14         0.27736
      13 -> 15         0.62616

 Excited State   4:      Singlet-A      6.8702 eV  180.47 nm  f=0.0010  <S**2>=0.000
      13 -> 17         0.65652
      13 -> 18         0.13862
      13 -> 21         0.16045

 Excited State   5:      Singlet-A      7.1162 eV  174.23 nm  f=0.0017  <S**2>=0.000
       9 -> 14        -0.12934
      11 -> 14         0.67702
      12 -> 14         0.11075

 Excited State   6:      Singlet-A      7.9400 eV  156.15 nm  f=0.1799  <S**2>=0.000
      11 -> 14        -0.11994
      11 -> 16         0.13682
      12 -> 14         0.60671
      13 -> 15        -0.24277

 Excited State   7:      Singlet-A      7.9735 eV  155.50 nm  f=0.0008  <S**2>=0.000
      10 -> 14        -0.31265
      11 -> 15        -0.11733
      13 -> 17        -0.13930
      13 -> 18         0.48589
      13 -> 19         0.24437
      13 -> 20        -0.10008
      13 -> 24         0.13150

 Excited State   8:      Singlet-A      8.0306 eV  154.39 nm  f=0.0021  <S**2>=0.000
       9 -> 15         0.10763
      10 -> 14         0.52116
      11 -> 15         0.21823
      13 -> 18         0.26251
      13 -> 20        -0.21754

 Excited State   9:      Singlet-A      8.2755 eV  149.82 nm  f=0.0009  <S**2>=0.000
      10 -> 14         0.12328
      13 -> 19         0.34107
      13 -> 20         0.56658
      13 -> 21         0.10293

 Excited State  10:      Singlet-A      8.4561 eV  146.62 nm  f=0.0182  <S**2>=0.000
       6 -> 15         0.10627
       9 -> 15         0.20644
      10 -> 14        -0.28900
      10 -> 15        -0.17806
      11 -> 15         0.53950
      12 -> 15         0.12011

 Excited State  11:      Singlet-A      8.5303 eV  145.35 nm  f=0.0010  <S**2>=0.000
      12 -> 15        -0.11241
      12 -> 16         0.64978
      13 -> 19         0.14091

 Excited State  12:      Singlet-A      8.7660 eV  141.44 nm  f=0.1769  <S**2>=0.000
       9 -> 16        -0.13485
       9 -> 17         0.10406
      11 -> 15        -0.12864
      11 -> 18        -0.12958
      12 -> 15         0.59145
      12 -> 16         0.11902
      13 -> 14         0.12330

 Excited State  13:      Singlet-A      9.0085 eV  137.63 nm  f=0.0027  <S**2>=0.000
      12 -> 17        -0.26936
      13 -> 16        -0.13584
      13 -> 18        -0.31426
      13 -> 19         0.44433
      13 -> 20        -0.27007

 Excited State  14:      Singlet-A      9.2483 eV  134.06 nm  f=0.0638  <S**2>=0.000
       9 -> 14         0.11983
       9 -> 16         0.21389
      10 -> 16        -0.36688
      11 -> 16         0.42444
      11 -> 17         0.12195
      11 -> 19         0.11135
      13 -> 21         0.14712

 Excited State  15:      Singlet-A      9.2574 eV  133.93 nm  f=0.0081  <S**2>=0.000
       9 -> 14         0.29105
      10 -> 16         0.11504
      11 -> 16        -0.13377
      12 -> 17        -0.25223
      13 -> 21         0.50431

 The electronic state is 1-A.
 Alpha  occ. eigenvalues --   -1.80665  -1.17405  -0.97935  -0.86732  -0.79978
 Alpha  occ. eigenvalues --   -0.73434  -0.70344  -0.60885  -0.55502  -0.52248
 Alpha  occ. eigenvalues --   -0.48931  -0.47691  -0.36997
 Alpha virt. eigenvalues --    0.03469   0.08955   0.09410   0.12472   0.17824
 Alpha virt. eigenvalues --    0.19164   0.20091   0.21798   0.26470   0.26686
 Alpha virt. eigenvalues --    0.27587

 Mulliken charges:
               1
     1  C   -0.071882
     2  C   -1.217873
     3  O    2.120450
     4  C   -1.249048
     5  C   -0.194421
     6  H    0.106462
     7  H    0.210992
     8  H    0.182250
     9  H    0.113071
 Sum of Mulliken charges =   0.00000

 Dipole moment (field-independent basis, Debye):
    X=              1.9325    Y=             -7.1241    Z=             -0.0975  Tot=              7.3822
 N-N= 1.036286564655D+02 E-N=-1.699305831961D+02  KE=-1.489289663913D+01
 Orbital energies and kinetic energies (alpha):
                                 1                 2
   1         O                -1.806653         -1.215718
   2         O                -1.174045         -0.958278
   3         O                -0.979348         -0.815115
   4         O                -0.867319         -0.621197
   5         O                -0.799783         -0.678176
   6         O                -0.734337         -0.582635
   7         O                -0.703443         -0.502783

 Normal termination of Gaussian 09 at Tue Dec 15 17:05:32 2015.
