 Gaussian 09, Revision D.01,
 Gaussian 09:  ES64L-G09RevD.01 24-Apr-2013

 ------------------------------------------------------------
 #P AM1(Input,print) CIS(Singlets,NStates=15) pop(full) force
 ------------------------------------------------------------

 -----------------
 AM1-Reparam Input
 -----------------
 Symbolic Z-matrix:
 Charge =  0 Multiplicity = 1

                         Standard orientation:
 ---------------------------------------------------------------------
 Center     Atomic      Atomic             Coordinates (Angstroms)
 Number     Number       Type             X           Y           Z
 ---------------------------------------------------------------------
      1          6           0        1.010083    0.697276   -0.032860
      2          6           0        0.930391   -0.687172    0.030939
      3          8           0       -0.399434   -1.105088   -0.013396
      4          6           0       -1.135891   -0.028866    0.008723
      5          6           0       -0.380748    1.193153    0.008364
      6          1           0       -0.733018    2.149220   -0.013539
      7          1           0       -2.233786   -0.150229    0.002140
      8          1           0        1.729140   -1.456914   -0.030691
      9          1           0        1.890128    1.252281    0.058256
 ---------------------------------------------------------------------

 SCF Done:  E(RAM1) =   2.78171966157     A.U. after   14 cycles

 Excitation energies and oscillator strengths:

 Excited State   1:      Singlet-A      5.2576 eV  235.82 nm  f=0.3595  <S**2>=0.000
      13 -> 14         0.69648
 This state for optimization and/or second-order correction.
 Total Energy, E(CIS) =   2.97493217084
 Copying the excited state density for this state as the 1-particle RhoCI density.

 Excited State   2:      Singlet-A      6.3485 eV  195.30 nm  f=0.0045  <S**2>=0.000
      11 -> 15         0.10703
      13 -> 15         0.64010
      13 -> 17         0.25268

 Excited State   3:      Singlet-A      6.7389 eV  183.98 nm  f=0.0007  <S**2>=0.000
       9 -> 14         0.13500
      12 -> 14         0.68188

 Excited State   4:      Singlet-A      6.8305 eV  181.52 nm  f=0.0024  <S**2>=0.000
      11 -> 16        -0.12071
      12 -> 14         0.10483
      13 -> 16         0.62418
      13 -> 18         0.26404

 Excited State   5:      Singlet-A      7.7519 eV  159.94 nm  f=0.0056  <S**2>=0.000
      10 -> 14         0.26249
      11 -> 15        -0.11862
      13 -> 15        -0.18653
      13 -> 16         0.10915
      13 -> 17         0.34986
      13 -> 18        -0.27206
      13 -> 19        -0.24733
      13 -> 20        -0.31834

 Excited State   6:      Singlet-A      7.8455 eV  158.03 nm  f=0.0046  <S**2>=0.000
      10 -> 14         0.62783
      11 -> 14         0.11566
      13 -> 16        -0.10467
      13 -> 18         0.18167
      13 -> 19         0.10298
      13 -> 20         0.14238

 Excited State   7:      Singlet-A      8.0515 eV  153.99 nm  f=0.0176  <S**2>=0.000
      10 -> 14        -0.11399
      11 -> 16         0.12845
      13 -> 15        -0.14789
      13 -> 16        -0.13445
      13 -> 17         0.53745
      13 -> 18         0.21555
      13 -> 19         0.19224
      13 -> 20         0.19264

 Excited State   8:      Singlet-A      8.3149 eV  149.11 nm  f=0.1209  <S**2>=0.000
      10 -> 14        -0.12262
      11 -> 14         0.68086

 Excited State   9:      Singlet-A      8.6375 eV  143.54 nm  f=0.0008  <S**2>=0.000
      13 -> 16        -0.13900
      13 -> 18         0.47793
      13 -> 19        -0.40708
      13 -> 20        -0.22472

 Excited State  10:      Singlet-A      9.2125 eV  134.58 nm  f=0.0007  <S**2>=0.000
      13 -> 18        -0.13853
      13 -> 19        -0.41029
      13 -> 20         0.51525
      13 -> 21         0.18101

 Excited State  11:      Singlet-A      9.4506 eV  131.19 nm  f=0.0612  <S**2>=0.000
       8 -> 15         0.12590
       9 -> 18        -0.10719
      10 -> 16        -0.13443
      10 -> 17        -0.15960
      10 -> 18        -0.10460
      12 -> 15         0.36056
      12 -> 16        -0.19535
      12 -> 17         0.14465
      12 -> 18        -0.15716
      12 -> 19        -0.14736
      13 -> 19        -0.10410
      13 -> 21        -0.31368

 Excited State  12:      Singlet-A      9.5163 eV  130.29 nm  f=0.0347  <S**2>=0.000
       7 -> 15        -0.10914
       9 -> 14        -0.12319
      11 -> 15         0.50316
      11 -> 17         0.11335
      12 -> 15        -0.16505
      13 -> 15        -0.11050
      13 -> 21        -0.31510

 Excited State  13:      Singlet-A      9.5782 eV  129.44 nm  f=0.0529  <S**2>=0.000
       9 -> 14        -0.11515
      11 -> 15         0.35006
      12 -> 15         0.18824
      13 -> 19         0.17110
      13 -> 21         0.47414

 Excited State  14:      Singlet-A      9.6045 eV  129.09 nm  f=0.0005  <S**2>=0.000
       9 -> 14         0.66163
      11 -> 15         0.16052
      12 -> 14        -0.13112

 Excited State  15:      Singlet-A      9.7927 eV  126.61 nm  f=0.0376  <S**2>=0.000
       9 -> 15        -0.18386
      10 -> 15         0.34141
      10 -> 17         0.21156
      12 -> 15         0.41467
      12 -> 16         0.24239
      12 -> 17         0.13530
      12 -> 19         0.14147

 The electronic state is 1-A.
 Alpha  occ. eigenvalues --   -1.70842  -1.09441  -0.90264  -0.79254  -0.73740
 Alpha  occ. eigenvalues --   -0.66522  -0.62339  -0.53398  -0.48817  -0.44820
 Alpha  occ. eigenvalues --   -0.42436  -0.40857  -0.28851
 Alpha virt. eigenvalues --    0.10498   0.17053   0.19369   0.24334   0.26703
 Alpha virt. eigenvalues --    0.28852   0.29632   0.30160   0.38523   0.47406
 Alpha virt. eigenvalues --    0.51468

 Mulliken charges:
               1
     1  C   -0.064600
     2  C   -1.951423
     3  O    3.207910
     4  C   -1.991250
     5  C   -0.168356
     6  H    0.177926
     7  H    0.316894
     8  H    0.301462
     9  H    0.171439
 Sum of Mulliken charges =   0.00000

 Dipole moment (field-independent basis, Debye):
    X=             -3.5841    Y=             -9.5745    Z=             -0.5532  Tot=             10.2383
 N-N= 1.032001272515D+02 E-N=-1.678996863472D+02  KE=-1.470547091543D+01
 Orbital energies and kinetic energies (alpha):
                                 1                 2
   1         O                -1.708420         -1.200966
   2         O                -1.094411         -0.982580
   3         O                -0.902640         -0.826417
   4         O                -0.792538         -0.606054
   5         O                -0.737402         -0.669788
   6         O                -0.665224         -0.574489
   7         O                -0.623394         -0.506822

 Normal termination of Gaussian 09 at Tue Dec 15 17:05:53 2015.
