 Gaussian 09, Revision D.01,
 Gaussian 09:  ES64L-G09RevD.01 24-Apr-2013

 ------------------------------------------------------------
 #P AM1(Input,print) CIS(Singlets,NStates=15) pop(full) force
 ------------------------------------------------------------

 -----------------
 AM1-Reparam Input
 -----------------
 Symbolic Z-matrix:
 Charge =  0 Multiplicity = 1

                         Standard orientation:
 ---------------------------------------------------------------------
 Center     Atomic      Atomic             Coordinates (Angstroms)
 Number     Number       Type             X           Y           Z
 ---------------------------------------------------------------------
      1          6           0       -0.948388    0.813173   -0.020257
      2          6           0       -0.985423   -0.618480   -0.014085
      3          8           0        0.261296   -1.072863    0.015507
      4          6           0        1.185691   -0.120481   -0.012115
      5          6           0        0.485941    1.046557    0.028516
      6          1           0        0.912059    2.022266   -0.028832
      7          1           0        2.133718   -0.338212   -0.046274
      8          1           0       -1.858493   -1.254421    0.018396
      9          1           0       -1.704583    1.428654    0.040298
 ---------------------------------------------------------------------

 SCF Done:  E(RAM1) =   1.69024706676     A.U. after   13 cycles

 Excitation energies and oscillator strengths:

 Excited State   1:      Singlet-A      5.3524 eV  231.64 nm  f=0.3550  <S**2>=0.000
      13 -> 14         0.69400
 This state for optimization and/or second-order correction.
 Total Energy, E(CIS) =   1.88694277336
 Copying the excited state density for this state as the 1-particle RhoCI density.

 Excited State   2:      Singlet-A      6.4559 eV  192.05 nm  f=0.0155  <S**2>=0.000
      13 -> 15         0.64143
      13 -> 17         0.25715

 Excited State   3:      Singlet-A      6.7878 eV  182.66 nm  f=0.0009  <S**2>=0.000
      12 -> 14         0.67546
      13 -> 18         0.10238
      13 -> 19         0.12107

 Excited State   4:      Singlet-A      7.0342 eV  176.26 nm  f=0.0023  <S**2>=0.000
      12 -> 14         0.12921
      13 -> 16         0.56981
      13 -> 19        -0.36249

 Excited State   5:      Singlet-A      7.3086 eV  169.64 nm  f=0.0003  <S**2>=0.000
      11 -> 15         0.11586
      12 -> 14        -0.11331
      13 -> 15        -0.14865
      13 -> 16         0.27571
      13 -> 17         0.22640
      13 -> 18         0.47146
      13 -> 19         0.28645
      13 -> 20        -0.10681

 Excited State   6:      Singlet-A      8.2302 eV  150.65 nm  f=0.0093  <S**2>=0.000
      10 -> 14         0.61787
      13 -> 17         0.24440
      13 -> 18        -0.12733
      13 -> 21        -0.10065

 Excited State   7:      Singlet-A      8.3251 eV  148.93 nm  f=0.0052  <S**2>=0.000
      10 -> 14        -0.31412
      11 -> 16        -0.12343
      13 -> 15        -0.15890
      13 -> 17         0.51541
      13 -> 18        -0.25775

 Excited State   8:      Singlet-A      8.4476 eV  146.77 nm  f=0.1257  <S**2>=0.000
      11 -> 14         0.69143

 Excited State   9:      Singlet-A      8.7661 eV  141.44 nm  f=0.0023  <S**2>=0.000
      11 -> 15         0.16748
      13 -> 16         0.20290
      13 -> 18        -0.32347
      13 -> 19         0.42683
      13 -> 20         0.33651

 Excited State  10:      Singlet-A      8.9620 eV  138.34 nm  f=0.0153  <S**2>=0.000
      13 -> 18         0.26029
      13 -> 19        -0.20333
      13 -> 20         0.55850
      13 -> 21        -0.22455

 Excited State  11:      Singlet-A      9.3432 eV  132.70 nm  f=0.0289  <S**2>=0.000
       9 -> 16        -0.10802
      10 -> 15        -0.16456
      10 -> 16        -0.12101
      10 -> 17        -0.10055
      10 -> 19         0.10770
      12 -> 15         0.31771
      12 -> 17         0.25042
      12 -> 18         0.15448
      12 -> 19         0.17384
      13 -> 20         0.10102
      13 -> 21         0.36915

 Excited State  12:      Singlet-A      9.4453 eV  131.27 nm  f=0.0624  <S**2>=0.000
      10 -> 15         0.10613
      12 -> 15        -0.23996
      12 -> 17        -0.16507
      12 -> 18        -0.10203
      12 -> 19        -0.10016
      13 -> 20         0.19017
      13 -> 21         0.53356

 Excited State  13:      Singlet-A      9.7267 eV  127.47 nm  f=0.0018  <S**2>=0.000
      11 -> 15         0.57235
      11 -> 17         0.13959
      12 -> 15         0.17317
      13 -> 16        -0.16018
      13 -> 19        -0.10385

 Excited State  14:      Singlet-A      9.8376 eV  126.03 nm  f=0.0420  <S**2>=0.000
      11 -> 15        -0.22616
      12 -> 15         0.36034
      12 -> 16         0.29751
      12 -> 18        -0.16714
      12 -> 19        -0.29230
      12 -> 20         0.22620

 Excited State  15:      Singlet-A      9.9860 eV  124.16 nm  f=0.0464  <S**2>=0.000
       8 -> 15        -0.14863
       9 -> 15        -0.18504
      10 -> 15         0.13907
      10 -> 18        -0.10779
      12 -> 16         0.47350
      12 -> 17         0.11968
      12 -> 18         0.34055

 The electronic state is 1-A.
 Alpha  occ. eigenvalues --   -1.92914  -1.21569  -1.02037  -0.83744  -0.81098
 Alpha  occ. eigenvalues --   -0.70216  -0.64481  -0.57684  -0.52244  -0.46989
 Alpha  occ. eigenvalues --   -0.43745  -0.42182  -0.30240
 Alpha virt. eigenvalues --    0.09827   0.17630   0.19734   0.23268   0.25192
 Alpha virt. eigenvalues --    0.26469   0.26810   0.28601   0.38826   0.46527
 Alpha virt. eigenvalues --    0.53324

 Mulliken charges:
               1
     1  C   -0.121230
     2  C   -2.018164
     3  O    3.208600
     4  C   -1.959270
     5  C   -0.133942
     6  H    0.188178
     7  H    0.313386
     8  H    0.330857
     9  H    0.191583
 Sum of Mulliken charges =   0.00000

 Dipole moment (field-independent basis, Debye):
    X=              1.8771    Y=             -8.5493    Z=              0.3870  Tot=              8.7615
 N-N= 1.043775036808D+02 E-N=-1.697947213733D+02  KE=-1.579694442553D+01
 Orbital energies and kinetic energies (alpha):
                                 1                 2
   1         O                -1.929135         -1.411564
   2         O                -1.215690         -1.082432
   3         O                -1.020373         -0.919009
   4         O                -0.837437         -0.642742
   5         O                -0.810981         -0.722023
   6         O                -0.702162         -0.584784
   7         O                -0.644807         -0.507472

 Normal termination of Gaussian 09 at Tue Dec 15 17:06:59 2015.
