 Gaussian 09, Revision D.01,
 Gaussian 09:  ES64L-G09RevD.01 24-Apr-2013

 ------------------------------------------------------------
 #P AM1(Input,print) CIS(Singlets,NStates=15) pop(full) force
 ------------------------------------------------------------

 -----------------
 AM1-Reparam Input
 -----------------
 Symbolic Z-matrix:
 Charge =  0 Multiplicity = 1

                         Standard orientation:
 ---------------------------------------------------------------------
 Center     Atomic      Atomic             Coordinates (Angstroms)
 Number     Number       Type             X           Y           Z
 ---------------------------------------------------------------------
      1          6           0        0.863239    0.784245   -0.020767
      2          6           0        1.033205   -0.481976    0.015390
      3          8           0       -0.225510   -1.153029    0.003608
      4          6           0       -1.105698   -0.133167   -0.010492
      5          6           0       -0.522442    1.046167   -0.000348
      6          1           0       -1.117619    1.976527    0.081247
      7          1           0       -2.183631   -0.462451   -0.015577
      8          1           0        1.851522   -1.191054    0.001046
      9          1           0        1.643985    1.609587    0.001716
 ---------------------------------------------------------------------

 SCF Done:  E(RAM1) =   2.90083737188     A.U. after   14 cycles

 Excitation energies and oscillator strengths:

 Excited State   1:      Singlet-A      5.2194 eV  237.55 nm  f=0.3197  <S**2>=0.000
      13 -> 14         0.69435
 This state for optimization and/or second-order correction.
 Total Energy, E(CIS) =   3.09264657594
 Copying the excited state density for this state as the 1-particle RhoCI density.

 Excited State   2:      Singlet-A      5.7421 eV  215.92 nm  f=0.0005  <S**2>=0.000
      10 -> 15         0.11070
      13 -> 15         0.67161
      13 -> 17        -0.14132
      13 -> 19        -0.10536

 Excited State   3:      Singlet-A      6.3289 eV  195.90 nm  f=0.0006  <S**2>=0.000
      10 -> 16        -0.12298
      13 -> 16         0.66633
      13 -> 19         0.12050

 Excited State   4:      Singlet-A      6.7684 eV  183.18 nm  f=0.0006  <S**2>=0.000
      12 -> 14         0.69704

 Excited State   5:      Singlet-A      7.3434 eV  168.84 nm  f=0.0136  <S**2>=0.000
      11 -> 14        -0.13698
      13 -> 15         0.15169
      13 -> 17         0.64018
      13 -> 19         0.12176
      13 -> 21         0.13421

 Excited State   6:      Singlet-A      7.7175 eV  160.65 nm  f=0.0059  <S**2>=0.000
      11 -> 14        -0.15583
      13 -> 16         0.12468
      13 -> 17         0.13352
      13 -> 18         0.47312
      13 -> 19        -0.23543
      13 -> 21        -0.38118

 Excited State   7:      Singlet-A      7.7955 eV  159.05 nm  f=0.0031  <S**2>=0.000
      11 -> 14         0.66202
      13 -> 17         0.16088
      13 -> 18         0.10327

 Excited State   8:      Singlet-A      8.2880 eV  149.59 nm  f=0.0001  <S**2>=0.000
      13 -> 18         0.30229
      13 -> 19         0.60610

 Excited State   9:      Singlet-A      8.7737 eV  141.31 nm  f=0.0166  <S**2>=0.000
       8 -> 16         0.10869
      10 -> 14         0.58530
      12 -> 16        -0.24583
      12 -> 17        -0.11890
      12 -> 18         0.11537

 Excited State  10:      Singlet-A      8.8442 eV  140.19 nm  f=0.0030  <S**2>=0.000
      12 -> 15         0.10316
      13 -> 18         0.38934
      13 -> 19        -0.15100
      13 -> 20        -0.15274
      13 -> 21         0.51897

 Excited State  11:      Singlet-A      8.9226 eV  138.96 nm  f=0.0687  <S**2>=0.000
       8 -> 15         0.15223
      11 -> 15         0.14848
      11 -> 17         0.11567
      12 -> 15         0.54327
      12 -> 16        -0.21253
      12 -> 18         0.11869
      12 -> 19        -0.10916
      13 -> 21        -0.10081

 Excited State  12:      Singlet-A      9.1946 eV  134.85 nm  f=0.0973  <S**2>=0.000
      13 -> 20         0.66427
      13 -> 21         0.16536

 Excited State  13:      Singlet-A      9.3853 eV  132.10 nm  f=0.0939  <S**2>=0.000
       9 -> 15        -0.16805
      10 -> 14         0.23872
      10 -> 15         0.10610
      11 -> 15         0.43558
      11 -> 17        -0.24603
      12 -> 15         0.16220
      12 -> 16         0.21336
      12 -> 18        -0.18967

 Excited State  14:      Singlet-A      9.5403 eV  129.96 nm  f=0.1619  <S**2>=0.000
       9 -> 15         0.10169
      10 -> 14         0.16032
      11 -> 15        -0.15226
      11 -> 16        -0.14726
      11 -> 17         0.19748
      11 -> 18         0.10860
      12 -> 15         0.13402
      12 -> 16         0.53129
      12 -> 18         0.11623

 Excited State  15:      Singlet-A      9.6851 eV  128.01 nm  f=0.0179  <S**2>=0.000
       7 -> 15        -0.14216
      10 -> 15         0.64411
      13 -> 15        -0.12683

 The electronic state is 1-A.
 Alpha  occ. eigenvalues --   -1.71465  -1.13185  -0.92165  -0.78441  -0.74738
 Alpha  occ. eigenvalues --   -0.65447  -0.63746  -0.51993  -0.49347  -0.42547
 Alpha  occ. eigenvalues --   -0.41120  -0.38059  -0.26225
 Alpha virt. eigenvalues --    0.13745   0.17028   0.19630   0.25721   0.28529
 Alpha virt. eigenvalues --    0.29552   0.31457   0.32887   0.35532   0.45198
 Alpha virt. eigenvalues --    0.48022

 Mulliken charges:
               1
     1  C   -0.086835
     2  C   -1.879540
     3  O    3.194189
     4  C   -1.924029
     5  C   -0.214843
     6  H    0.178137
     7  H    0.295480
     8  H    0.271311
     9  H    0.166132
 Sum of Mulliken charges =   0.00000

 Dipole moment (field-independent basis, Debye):
    X=             -2.5028    Y=            -11.2609    Z=              0.0532  Tot=             11.5358
 N-N= 1.042010701436D+02 E-N=-1.696528440411D+02  KE=-1.477808361579D+01
 Orbital energies and kinetic energies (alpha):
                                 1                 2
   1         O                -1.714645         -1.204756
   2         O                -1.131851         -0.997947
   3         O                -0.921652         -0.862138
   4         O                -0.784407         -0.584559
   5         O                -0.747378         -0.670854
   6         O                -0.654467         -0.553920
   7         O                -0.637456         -0.532423

 Normal termination of Gaussian 09 at Tue Dec 15 17:06:02 2015.
