 Gaussian 09, Revision D.01,
 Gaussian 09:  ES64L-G09RevD.01 24-Apr-2013

 ------------------------------------------------------------
 #P AM1(Input,print) CIS(Singlets,NStates=15) pop(full) force
 ------------------------------------------------------------

 -----------------
 AM1-Reparam Input
 -----------------
 Symbolic Z-matrix:
 Charge =  0 Multiplicity = 1

                         Standard orientation:
 ---------------------------------------------------------------------
 Center     Atomic      Atomic             Coordinates (Angstroms)
 Number     Number       Type             X           Y           Z
 ---------------------------------------------------------------------
      1          6           0        0.701226    0.967271    0.040553
      2          6           0        1.125392   -0.316932   -0.018002
      3          8           0        0.007052   -1.142557   -0.010788
      4          6           0       -1.064523   -0.340344    0.037152
      5          6           0       -0.742517    0.901630   -0.041313
      6          1           0       -1.448645    1.775495   -0.029997
      7          1           0       -2.014939   -0.928212    0.013211
      8          1           0        2.024224   -0.811181   -0.003780
      9          1           0        1.265480    1.834602   -0.003475
 ---------------------------------------------------------------------

 SCF Done:  E(RAM1) =   1.12364869493     A.U. after   14 cycles

 Excitation energies and oscillator strengths:

 Excited State   1:      Singlet-A      5.3947 eV  229.83 nm  f=0.2091  <S**2>=0.000
      12 -> 16         0.12476
      13 -> 14         0.68156
 This state for optimization and/or second-order correction.
 Total Energy, E(CIS) =   1.32190091926
 Copying the excited state density for this state as the 1-particle RhoCI density.

 Excited State   2:      Singlet-A      6.2705 eV  197.73 nm  f=0.0020  <S**2>=0.000
      13 -> 15         0.62703
      13 -> 16         0.20637
      13 -> 17         0.14597
      13 -> 19         0.15771

 Excited State   3:      Singlet-A      6.7220 eV  184.45 nm  f=0.0032  <S**2>=0.000
      13 -> 15        -0.17217
      13 -> 16         0.11066
      13 -> 17         0.63326
      13 -> 18        -0.10375
      13 -> 20         0.10759
      13 -> 21         0.10970

 Excited State   4:      Singlet-A      6.7617 eV  183.36 nm  f=0.0247  <S**2>=0.000
      12 -> 14        -0.33227
      13 -> 15        -0.14177
      13 -> 16         0.56523
      13 -> 17        -0.17223

 Excited State   5:      Singlet-A      7.1824 eV  172.62 nm  f=0.0059  <S**2>=0.000
       9 -> 14        -0.14159
      11 -> 14         0.64912
      12 -> 14         0.20174

 Excited State   6:      Singlet-A      7.8973 eV  157.00 nm  f=0.0090  <S**2>=0.000
      10 -> 14         0.62994
      11 -> 16        -0.19609
      12 -> 14         0.12203
      13 -> 18         0.10955
      13 -> 20         0.10467

 Excited State   7:      Singlet-A      7.9413 eV  156.13 nm  f=0.0108  <S**2>=0.000
      12 -> 14        -0.13515
      13 -> 16        -0.11271
      13 -> 18         0.62744
      13 -> 23         0.11290
      13 -> 24        -0.12878

 Excited State   8:      Singlet-A      8.0603 eV  153.82 nm  f=0.2229  <S**2>=0.000
      10 -> 14        -0.15292
      11 -> 14        -0.22110
      12 -> 14         0.53147
      13 -> 15        -0.13329
      13 -> 16         0.26064
      13 -> 18         0.12929

 Excited State   9:      Singlet-A      8.3121 eV  149.16 nm  f=0.0004  <S**2>=0.000
      13 -> 17        -0.12181
      13 -> 19         0.15926
      13 -> 20         0.64083
      13 -> 24         0.10129

 Excited State  10:      Singlet-A      8.4875 eV  146.08 nm  f=0.0217  <S**2>=0.000
       9 -> 16         0.19949
      10 -> 14         0.22938
      11 -> 15        -0.25282
      11 -> 16         0.51440
      12 -> 15        -0.10301
      12 -> 16         0.17829

 Excited State  11:      Singlet-A      8.7032 eV  142.46 nm  f=0.0136  <S**2>=0.000
      12 -> 15         0.59235
      13 -> 18         0.11694
      13 -> 19        -0.22204

 Excited State  12:      Singlet-A      8.8389 eV  140.27 nm  f=0.1485  <S**2>=0.000
       9 -> 15         0.15256
      11 -> 16        -0.18003
      11 -> 18        -0.13448
      12 -> 16         0.55492
      12 -> 17         0.13041
      13 -> 14        -0.12161
      13 -> 19        -0.12627

 Excited State  13:      Singlet-A      8.8830 eV  139.57 nm  f=0.0029  <S**2>=0.000
      12 -> 15         0.12615
      12 -> 17         0.43396
      13 -> 15        -0.10510
      13 -> 19         0.47026
      13 -> 20        -0.15124

 Excited State  14:      Singlet-A      9.1999 eV  134.77 nm  f=0.0229  <S**2>=0.000
      11 -> 15         0.37526
      11 -> 16         0.14128
      12 -> 15         0.16959
      12 -> 16         0.19718
      12 -> 17        -0.30792
      13 -> 19         0.15731
      13 -> 21        -0.25581

 Excited State  15:      Singlet-A      9.2647 eV  133.82 nm  f=0.0234  <S**2>=0.000
       9 -> 15         0.10688
      10 -> 15         0.11575
      11 -> 15         0.39077
      11 -> 16         0.20630
      11 -> 19         0.10336
      12 -> 17         0.28754
      13 -> 19        -0.14141
      13 -> 21         0.29814

 The electronic state is 1-A.
 Alpha  occ. eigenvalues --   -1.83276  -1.20169  -1.00306  -0.87935  -0.80970
 Alpha  occ. eigenvalues --   -0.74053  -0.72291  -0.60789  -0.56009  -0.51994
 Alpha  occ. eigenvalues --   -0.49202  -0.47641  -0.37516
 Alpha virt. eigenvalues --    0.03581   0.09259   0.09465   0.11897   0.18029
 Alpha virt. eigenvalues --    0.18947   0.19828   0.22141   0.27041   0.27511
 Alpha virt. eigenvalues --    0.27721

 Mulliken charges:
               1
     1  C   -0.114830
     2  C   -1.221699
     3  O    2.114223
     4  C   -1.209025
     5  C   -0.179837
     6  H    0.123331
     7  H    0.205275
     8  H    0.179919
     9  H    0.102643
 Sum of Mulliken charges =   0.00000

 Dipole moment (field-independent basis, Debye):
    X=             -0.5784    Y=             -7.3642    Z=             -0.1832  Tot=              7.3891
 N-N= 1.047713910354D+02 E-N=-1.718391116360D+02  KE=-1.501337766485D+01
 Orbital energies and kinetic energies (alpha):
                                 1                 2
   1         O                -1.832756         -1.252376
   2         O                -1.201686         -0.971330
   3         O                -1.003056         -0.828493
   4         O                -0.879354         -0.630505
   5         O                -0.809703         -0.677115
   6         O                -0.740532         -0.590323
   7         O                -0.722909         -0.519726

 Normal termination of Gaussian 09 at Tue Dec 15 17:05:31 2015.
