 Gaussian 09, Revision D.01,
 Gaussian 09:  ES64L-G09RevD.01 24-Apr-2013

 ------------------------------------------------------------
 #P AM1(Input,print) CIS(Singlets,NStates=15) pop(full) force
 ------------------------------------------------------------

 -----------------
 AM1-Reparam Input
 -----------------
 Symbolic Z-matrix:
 Charge =  0 Multiplicity = 1

                         Standard orientation:
 ---------------------------------------------------------------------
 Center     Atomic      Atomic             Coordinates (Angstroms)
 Number     Number       Type             X           Y           Z
 ---------------------------------------------------------------------
      1          6           0        0.961004    0.714901    0.003316
      2          6           0        0.937369   -0.618462   -0.000946
      3          8           0       -0.343133   -1.143220   -0.015483
      4          6           0       -1.091747   -0.002208    0.030209
      5          6           0       -0.447050    1.116828   -0.006390
      6          1           0       -0.799831    2.085926   -0.007749
      7          1           0       -2.187945   -0.289368   -0.041894
      8          1           0        1.755621   -1.305255    0.050051
      9          1           0        1.819766    1.388099   -0.033679
 ---------------------------------------------------------------------

 SCF Done:  E(RAM1) =   1.44044026545     A.U. after   13 cycles

 Excitation energies and oscillator strengths:

 Excited State   1:      Singlet-A      5.4216 eV  228.68 nm  f=0.0033  <S**2>=0.000
      11 -> 15         0.10126
      13 -> 14         0.15436
      13 -> 15         0.66877
 This state for optimization and/or second-order correction.
 Total Energy, E(CIS) =   1.63968216046
 Copying the excited state density for this state as the 1-particle RhoCI density.

 Excited State   2:      Singlet-A      5.7536 eV  215.49 nm  f=0.2968  <S**2>=0.000
      13 -> 14         0.67453
      13 -> 15        -0.15094

 Excited State   3:      Singlet-A      6.1323 eV  202.18 nm  f=0.0029  <S**2>=0.000
      11 -> 16        -0.10916
      13 -> 16         0.66910

 Excited State   4:      Singlet-A      7.2352 eV  171.36 nm  f=0.0001  <S**2>=0.000
      11 -> 14        -0.15613
      12 -> 14         0.67070

 Excited State   5:      Singlet-A      7.5636 eV  163.92 nm  f=0.0057  <S**2>=0.000
      13 -> 18         0.64265
      13 -> 20        -0.18133
      13 -> 22        -0.16447

 Excited State   6:      Singlet-A      7.7579 eV  159.82 nm  f=0.0012  <S**2>=0.000
      13 -> 16         0.12407
      13 -> 18         0.20593
      13 -> 19         0.44150
      13 -> 20         0.25265
      13 -> 22         0.38298

 Excited State   7:      Singlet-A      8.0772 eV  153.50 nm  f=0.0122  <S**2>=0.000
      11 -> 14         0.39025
      13 -> 17         0.55587

 Excited State   8:      Singlet-A      8.4349 eV  146.99 nm  f=0.0037  <S**2>=0.000
      11 -> 15        -0.16072
      13 -> 18         0.11168
      13 -> 19        -0.42870
      13 -> 20         0.48281
      13 -> 21        -0.17137

 Excited State   9:      Singlet-A      8.5731 eV  144.62 nm  f=0.0016  <S**2>=0.000
      10 -> 14         0.67530
      13 -> 21         0.10985

 Excited State  10:      Singlet-A      8.7021 eV  142.48 nm  f=0.0052  <S**2>=0.000
      11 -> 15        -0.28451
      12 -> 15        -0.13629
      13 -> 19        -0.23540
      13 -> 20        -0.25586
      13 -> 21         0.25786
      13 -> 22         0.41308

 Excited State  11:      Singlet-A      8.7796 eV  141.22 nm  f=0.0058  <S**2>=0.000
      11 -> 14         0.10509
      11 -> 15         0.48997
      12 -> 15         0.20886
      13 -> 19        -0.20982
      13 -> 22         0.34537

 Excited State  12:      Singlet-A      8.8654 eV  139.85 nm  f=0.1559  <S**2>=0.000
       9 -> 15         0.22158
      11 -> 14         0.17524
      11 -> 15        -0.27252
      12 -> 14         0.10389
      12 -> 15         0.44897
      12 -> 16        -0.12120
      13 -> 17        -0.23405
      13 -> 21         0.13348

 Excited State  13:      Singlet-A      9.0294 eV  137.31 nm  f=0.0817  <S**2>=0.000
      11 -> 14         0.11381
      11 -> 16         0.27238
      12 -> 15        -0.11860
      12 -> 16         0.16316
      13 -> 20         0.25708
      13 -> 21         0.48883
      13 -> 23         0.11771

 Excited State  14:      Singlet-A      9.1829 eV  135.02 nm  f=0.3045  <S**2>=0.000
      11 -> 14         0.45654
      12 -> 15        -0.23192
      12 -> 16         0.16319
      13 -> 17        -0.31482
      13 -> 20        -0.10069
      13 -> 21        -0.18989

 Excited State  15:      Singlet-A      9.3699 eV  132.32 nm  f=0.0367  <S**2>=0.000
      11 -> 14        -0.12777
      11 -> 16         0.54054
      12 -> 15         0.10672
      12 -> 16         0.19774
      13 -> 16         0.13642
      13 -> 21        -0.26937

 The electronic state is 1-A.
 Alpha  occ. eigenvalues --   -1.88725  -1.20100  -0.95437  -0.78827  -0.76757
 Alpha  occ. eigenvalues --   -0.67710  -0.61922  -0.47923  -0.47106  -0.40303
 Alpha  occ. eigenvalues --   -0.36592  -0.36047  -0.22637
 Alpha virt. eigenvalues --    0.18533   0.19784   0.22882   0.29701   0.30667
 Alpha virt. eigenvalues --    0.32201   0.34818   0.35272   0.36801   0.40922
 Alpha virt. eigenvalues --    0.44819

 Mulliken charges:
               1
     1  C   -0.068787
     2  C   -1.510915
     3  O    2.731717
     4  C   -1.458611
     5  C   -0.071389
     6  H    0.056252
     7  H    0.116257
     8  H    0.152402
     9  H    0.053072
 Sum of Mulliken charges =   0.00000

 Dipole moment (field-independent basis, Debye):
    X=             -3.1142    Y=             -9.9020    Z=             -0.3705  Tot=             10.3867
 N-N= 1.037570549226D+02 E-N=-1.703580056960D+02  KE=-1.587350005397D+01
 Orbital energies and kinetic energies (alpha):
                                 1                 2
   1         O                -1.887246         -1.376021
   2         O                -1.201000         -1.095077
   3         O                -0.954371         -0.896054
   4         O                -0.788271         -0.633095
   5         O                -0.767568         -0.680392
   6         O                -0.677103         -0.625203
   7         O                -0.619222         -0.548871

 Normal termination of Gaussian 09 at Tue Dec 15 17:08:00 2015.
