 Gaussian 09, Revision D.01,
 Gaussian 09:  ES64L-G09RevD.01 24-Apr-2013

 ------------------------------------------------------------
 #P AM1(Input,print) CIS(Singlets,NStates=15) pop(full) force
 ------------------------------------------------------------

 -----------------
 AM1-Reparam Input
 -----------------
 Symbolic Z-matrix:
 Charge =  0 Multiplicity = 1

                         Standard orientation:
 ---------------------------------------------------------------------
 Center     Atomic      Atomic             Coordinates (Angstroms)
 Number     Number       Type             X           Y           Z
 ---------------------------------------------------------------------
      1          6           0        0.962296    0.749562    0.007155
      2          6           0        0.974707   -0.643081   -0.023719
      3          8           0       -0.345927   -1.140192    0.028641
      4          6           0       -1.173187   -0.023624   -0.018379
      5          6           0       -0.399275    1.114596   -0.003523
      6          1           0       -0.804527    2.105082    0.016803
      7          1           0       -2.203463   -0.163177   -0.018833
      8          1           0        1.747143   -1.331401   -0.043330
      9          1           0        1.841019    1.326315    0.047029
 ---------------------------------------------------------------------

 SCF Done:  E(RAM1) =   1.69512909670     A.U. after   14 cycles

 Excitation energies and oscillator strengths:

 Excited State   1:      Singlet-A      5.4835 eV  226.11 nm  f=0.3259  <S**2>=0.000
      13 -> 14         0.69246
 This state for optimization and/or second-order correction.
 Total Energy, E(CIS) =   1.89664261422
 Copying the excited state density for this state as the 1-particle RhoCI density.

 Excited State   2:      Singlet-A      6.5866 eV  188.24 nm  f=0.0083  <S**2>=0.000
      11 -> 16        -0.10137
      13 -> 15         0.62304
      13 -> 16         0.14973
      13 -> 17         0.26460

 Excited State   3:      Singlet-A      6.9260 eV  179.01 nm  f=0.0002  <S**2>=0.000
      11 -> 15        -0.13467
      13 -> 15        -0.15373
      13 -> 16         0.60548
      13 -> 19         0.23239
      13 -> 21        -0.12546

 Excited State   4:      Singlet-A      7.2769 eV  170.38 nm  f=0.0002  <S**2>=0.000
      11 -> 14         0.15009
      12 -> 14         0.64766
      13 -> 18        -0.11252
      13 -> 21         0.14222

 Excited State   5:      Singlet-A      7.7099 eV  160.81 nm  f=0.0016  <S**2>=0.000
      12 -> 14        -0.19566
      13 -> 16         0.14585
      13 -> 17        -0.20534
      13 -> 18        -0.20259
      13 -> 19        -0.18519
      13 -> 20        -0.22946
      13 -> 21         0.49315

 Excited State   6:      Singlet-A      7.9803 eV  155.36 nm  f=0.0196  <S**2>=0.000
      10 -> 14        -0.29308
      11 -> 16         0.10745
      13 -> 15        -0.20336
      13 -> 17         0.53419
      13 -> 19        -0.10023
      13 -> 21         0.20494

 Excited State   7:      Singlet-A      8.1301 eV  152.50 nm  f=0.0014  <S**2>=0.000
      10 -> 14         0.61477
      11 -> 14        -0.13682
      13 -> 17         0.28913

 Excited State   8:      Singlet-A      8.6015 eV  144.14 nm  f=0.0020  <S**2>=0.000
      11 -> 15        -0.12452
      13 -> 16         0.17592
      13 -> 18         0.53860
      13 -> 19        -0.36888

 Excited State   9:      Singlet-A      8.6321 eV  143.63 nm  f=0.1024  <S**2>=0.000
      10 -> 14         0.14620
      11 -> 14         0.64878
      12 -> 14        -0.15490

 Excited State  10:      Singlet-A      8.7863 eV  141.11 nm  f=0.0022  <S**2>=0.000
      13 -> 18         0.35955
      13 -> 19         0.49014
      13 -> 20        -0.13394
      13 -> 21         0.31723

 Excited State  11:      Singlet-A      9.2298 eV  134.33 nm  f=0.0926  <S**2>=0.000
      13 -> 20         0.63853
      13 -> 21         0.26544

 Excited State  12:      Singlet-A      9.5672 eV  129.59 nm  f=0.0111  <S**2>=0.000
       8 -> 15         0.13918
       9 -> 16        -0.11900
       9 -> 19        -0.12407
      10 -> 15         0.30963
      10 -> 17         0.30486
      10 -> 21         0.10171
      12 -> 16        -0.27981
      12 -> 17        -0.14044
      12 -> 21         0.27148

 Excited State  13:      Singlet-A      9.8161 eV  126.31 nm  f=0.0030  <S**2>=0.000
       7 -> 16         0.10136
      11 -> 15         0.58755
      11 -> 16         0.10443
      11 -> 17         0.17010
      12 -> 15        -0.17561
      13 -> 16         0.18166

 Excited State  14:      Singlet-A     10.1013 eV  122.74 nm  f=0.0676  <S**2>=0.000
       8 -> 16        -0.10653
      11 -> 15         0.19090
      11 -> 16        -0.10698
      12 -> 15         0.54526
      12 -> 18         0.13582
      12 -> 20        -0.21200

 Excited State  15:      Singlet-A     10.2435 eV  121.04 nm  f=0.1316  <S**2>=0.000
       8 -> 16        -0.14195
       9 -> 15         0.12861
      10 -> 15         0.16333
      10 -> 16        -0.10913
      10 -> 19        -0.14365
      10 -> 21        -0.10362
      11 -> 16        -0.25068
      12 -> 16         0.40189
      12 -> 17        -0.23275
      12 -> 19         0.16416
      12 -> 20        -0.10751

 The electronic state is 1-A.
 Alpha  occ. eigenvalues --   -1.89011  -1.21581  -0.98474  -0.81400  -0.81100
 Alpha  occ. eigenvalues --   -0.68861  -0.61613  -0.54056  -0.51997  -0.43405
 Alpha  occ. eigenvalues --   -0.41430  -0.41028  -0.28055
 Alpha virt. eigenvalues --    0.13042   0.19681   0.20836   0.25152   0.27545
 Alpha virt. eigenvalues --    0.29017   0.29456   0.29900   0.34398   0.43627
 Alpha virt. eigenvalues --    0.47933

 Mulliken charges:
               1
     1  C   -0.106107
     2  C   -1.955375
     3  O    3.187630
     4  C   -1.949068
     5  C   -0.125190
     6  H    0.174599
     7  H    0.301496
     8  H    0.294515
     9  H    0.177500
 Sum of Mulliken charges =   0.00000

 Dipole moment (field-independent basis, Debye):
    X=             -3.1551    Y=            -10.1785    Z=              0.6840  Tot=             10.6782
 N-N= 1.033382644929D+02 E-N=-1.683424723506D+02  KE=-1.570360059554D+01
 Orbital energies and kinetic energies (alpha):
                                 1                 2
   1         O                -1.890113         -1.337229
   2         O                -1.215807         -1.105549
   3         O                -0.984741         -0.923096
   4         O                -0.814003         -0.713700
   5         O                -0.810997         -0.626947
   6         O                -0.688605         -0.588917
   7         O                -0.616127         -0.504849

 Normal termination of Gaussian 09 at Tue Dec 15 17:07:07 2015.
