 Gaussian 09, Revision D.01,
 Gaussian 09:  ES64L-G09RevD.01 24-Apr-2013

 ------------------------------------------------------------
 #P AM1(Input,print) CIS(Singlets,NStates=15) pop(full) force
 ------------------------------------------------------------

 -----------------
 AM1-Reparam Input
 -----------------
 Symbolic Z-matrix:
 Charge =  0 Multiplicity = 1

                         Standard orientation:
 ---------------------------------------------------------------------
 Center     Atomic      Atomic             Coordinates (Angstroms)
 Number     Number       Type             X           Y           Z
 ---------------------------------------------------------------------
      1          6           0       -0.376584    1.124644   -0.024671
      2          6           0       -1.163767    0.018786   -0.011134
      3          8           0       -0.392425   -1.095488    0.009137
      4          6           0        0.940801   -0.648277   -0.018496
      5          6           0        1.003911    0.667765    0.015701
      6          1           0        1.949612    1.267863    0.039996
      7          1           0        1.649509   -1.489261    0.007927
      8          1           0       -2.235078   -0.102056    0.071992
      9          1           0       -0.650812    2.109852    0.038586
 ---------------------------------------------------------------------

 SCF Done:  E(RAM1) =   1.72281830305     A.U. after   13 cycles

 Excitation energies and oscillator strengths:

 Excited State   1:      Singlet-A      5.2091 eV  238.01 nm  f=0.3434  <S**2>=0.000
      13 -> 14         0.69520
 This state for optimization and/or second-order correction.
 Total Energy, E(CIS) =   1.91424895823
 Copying the excited state density for this state as the 1-particle RhoCI density.

 Excited State   2:      Singlet-A      6.1229 eV  202.49 nm  f=0.0021  <S**2>=0.000
      13 -> 15         0.65782
      13 -> 17        -0.19752

 Excited State   3:      Singlet-A      6.1901 eV  200.29 nm  f=0.0010  <S**2>=0.000
      11 -> 15        -0.10175
      13 -> 16         0.65415
      13 -> 19         0.19744

 Excited State   4:      Singlet-A      6.9284 eV  178.95 nm  f=0.0006  <S**2>=0.000
      12 -> 14         0.66005
      13 -> 20         0.18392

 Excited State   5:      Singlet-A      7.2250 eV  171.61 nm  f=0.0048  <S**2>=0.000
      12 -> 14        -0.22196
      13 -> 15         0.13737
      13 -> 17         0.36642
      13 -> 19         0.22872
      13 -> 20         0.47045

 Excited State   6:      Singlet-A      7.5600 eV  164.00 nm  f=0.0176  <S**2>=0.000
      13 -> 15         0.13462
      13 -> 16         0.13022
      13 -> 17         0.53705
      13 -> 19        -0.15532
      13 -> 20        -0.35205

 Excited State   7:      Singlet-A      8.1399 eV  152.32 nm  f=0.0015  <S**2>=0.000
      10 -> 14         0.59054
      11 -> 14         0.17944
      13 -> 19         0.28300
      13 -> 20        -0.12583

 Excited State   8:      Singlet-A      8.2177 eV  150.87 nm  f=0.0003  <S**2>=0.000
      10 -> 14        -0.28527
      13 -> 16        -0.12286
      13 -> 18        -0.34724
      13 -> 19         0.42287
      13 -> 20        -0.22467
      13 -> 21        -0.19158

 Excited State   9:      Singlet-A      8.4184 eV  147.28 nm  f=0.0118  <S**2>=0.000
      13 -> 17         0.11875
      13 -> 18         0.58062
      13 -> 19         0.24364
      13 -> 20        -0.13149
      13 -> 21        -0.23760

 Excited State  10:      Singlet-A      8.6996 eV  142.52 nm  f=0.0642  <S**2>=0.000
      10 -> 14        -0.19643
      11 -> 14         0.61650
      12 -> 15         0.18284

 Excited State  11:      Singlet-A      8.8955 eV  139.38 nm  f=0.0798  <S**2>=0.000
      10 -> 14        -0.11145
      13 -> 18         0.10999
      13 -> 19         0.22806
      13 -> 20        -0.14668
      13 -> 21         0.62270

 Excited State  12:      Singlet-A      9.2509 eV  134.02 nm  f=0.1147  <S**2>=0.000
       8 -> 15         0.17667
      10 -> 17        -0.19926
      11 -> 14         0.13932
      12 -> 15        -0.23401
      12 -> 16         0.43878
      12 -> 18        -0.12583
      12 -> 19         0.15664
      12 -> 20         0.25743

 Excited State  13:      Singlet-A      9.7000 eV  127.82 nm  f=0.0571  <S**2>=0.000
       8 -> 16         0.10090
      11 -> 14        -0.13222
      11 -> 15         0.40009
      11 -> 16         0.15420
      11 -> 17        -0.10130
      12 -> 15         0.42600
      12 -> 16         0.14302
      13 -> 16         0.10831

 Excited State  14:      Singlet-A      9.8176 eV  126.29 nm  f=0.0714  <S**2>=0.000
       8 -> 16        -0.10014
      11 -> 14         0.12376
      11 -> 15         0.40672
      11 -> 16         0.27221
      12 -> 15        -0.34933
      12 -> 16        -0.16643
      12 -> 19        -0.12032

 Excited State  15:      Singlet-A      9.9282 eV  124.88 nm  f=0.1396  <S**2>=0.000
       8 -> 15         0.11345
      10 -> 15        -0.19810
      10 -> 16        -0.13936
      10 -> 17         0.25692
      11 -> 16         0.18035
      12 -> 16         0.37706
      12 -> 17        -0.10704
      12 -> 18         0.13693
      12 -> 20        -0.31795

 The electronic state is 1-A.
 Alpha  occ. eigenvalues --   -1.90659  -1.21808  -0.99292  -0.81931  -0.80384
 Alpha  occ. eigenvalues --   -0.68608  -0.62722  -0.53952  -0.51715  -0.43566
 Alpha  occ. eigenvalues --   -0.42291  -0.39763  -0.26624
 Alpha virt. eigenvalues --    0.12917   0.18159   0.18590   0.25273   0.28130
 Alpha virt. eigenvalues --    0.28526   0.29474   0.30392   0.35348   0.44476
 Alpha virt. eigenvalues --    0.48902

 Mulliken charges:
               1
     1  C   -0.191352
     2  C   -1.934516
     3  O    3.177916
     4  C   -1.896005
     5  C   -0.092429
     6  H    0.171671
     7  H    0.278057
     8  H    0.306731
     9  H    0.179927
 Sum of Mulliken charges =   0.00000

 Dipole moment (field-independent basis, Debye):
    X=             -3.4378    Y=            -10.2900    Z=              0.6196  Tot=             10.8667
 N-N= 1.037417110412D+02 E-N=-1.690558360074D+02  KE=-1.571566390809D+01
 Orbital energies and kinetic energies (alpha):
                                 1                 2
   1         O                -1.906591         -1.363894
   2         O                -1.218077         -1.099857
   3         O                -0.992917         -0.920333
   4         O                -0.819309         -0.633538
   5         O                -0.803844         -0.698557
   6         O                -0.686080         -0.582619
   7         O                -0.627216         -0.510723

 Normal termination of Gaussian 09 at Tue Dec 15 17:07:02 2015.
