 Gaussian 09, Revision D.01,
 Gaussian 09:  ES64L-G09RevD.01 24-Apr-2013

 ------------------------------------------------------------
 #P AM1(Input,print) CIS(Singlets,NStates=15) pop(full) force
 ------------------------------------------------------------

 -----------------
 AM1-Reparam Input
 -----------------
 Symbolic Z-matrix:
 Charge =  0 Multiplicity = 1

                         Standard orientation:
 ---------------------------------------------------------------------
 Center     Atomic      Atomic             Coordinates (Angstroms)
 Number     Number       Type             X           Y           Z
 ---------------------------------------------------------------------
      1          6           0        1.167013   -0.258812   -0.004737
      2          6           0        0.108758   -1.117973   -0.004070
      3          8           0       -1.113809   -0.441459    0.003735
      4          6           0       -0.706110    0.856629    0.002176
      5          6           0        0.623408    0.998950   -0.000937
      6          1           0        1.147896    1.909734    0.006692
      7          1           0       -1.591595    1.537298   -0.015170
      8          1           0       -0.026602   -2.201753    0.001494
      9          1           0        2.222362   -0.586368    0.022516
 ---------------------------------------------------------------------

 SCF Done:  E(RAM1) =   1.87780349042     A.U. after   14 cycles

 Excitation energies and oscillator strengths:

 Excited State   1:      Singlet-A      5.9027 eV  210.05 nm  f=0.2933  <S**2>=0.000
      11 -> 17        -0.13357
      13 -> 14         0.68426
 This state for optimization and/or second-order correction.
 Total Energy, E(CIS) =   2.09472522865
 Copying the excited state density for this state as the 1-particle RhoCI density.

 Excited State   2:      Singlet-A      6.2589 eV  198.09 nm  f=0.0007  <S**2>=0.000
      10 -> 15         0.14283
      13 -> 15         0.67638

 Excited State   3:      Singlet-A      6.6491 eV  186.47 nm  f=0.0005  <S**2>=0.000
      10 -> 16        -0.14754
      13 -> 16         0.66529
      13 -> 17        -0.13246

 Excited State   4:      Singlet-A      7.0324 eV  176.30 nm  f=0.0002  <S**2>=0.000
      12 -> 14         0.70079

 Excited State   5:      Singlet-A      7.7361 eV  160.27 nm  f=0.0072  <S**2>=0.000
      11 -> 14         0.68855
      13 -> 17         0.12979

 Excited State   6:      Singlet-A      8.1789 eV  151.59 nm  f=0.0144  <S**2>=0.000
      10 -> 15         0.10520
      11 -> 14        -0.13895
      13 -> 17         0.66316

 Excited State   7:      Singlet-A      8.4419 eV  146.87 nm  f=0.0002  <S**2>=0.000
      10 -> 16        -0.10452
      13 -> 18         0.62413
      13 -> 19         0.13882
      13 -> 22         0.25611

 Excited State   8:      Singlet-A      8.7864 eV  141.11 nm  f=0.0329  <S**2>=0.000
       9 -> 15         0.17703
      10 -> 14        -0.14035
      11 -> 16         0.10036
      11 -> 17        -0.16494
      12 -> 15         0.51364
      12 -> 16        -0.20351
      12 -> 18         0.20312

 Excited State   9:      Singlet-A      8.9664 eV  138.28 nm  f=0.0132  <S**2>=0.000
       8 -> 16        -0.12053
      10 -> 14         0.54477
      11 -> 17        -0.14289
      12 -> 16        -0.28279
      13 -> 21        -0.10406

 Excited State  10:      Singlet-A      9.0956 eV  136.31 nm  f=0.0004  <S**2>=0.000
      13 -> 18        -0.17256
      13 -> 19         0.66356

 Excited State  11:      Singlet-A      9.2264 eV  134.38 nm  f=0.0832  <S**2>=0.000
       8 -> 15         0.11740
       9 -> 15         0.13138
      10 -> 14        -0.23325
      11 -> 15         0.40634
      11 -> 16         0.10320
      11 -> 17        -0.18829
      12 -> 15        -0.35325
      12 -> 17         0.14247
      12 -> 18         0.14187

 Excited State  12:      Singlet-A      9.5161 eV  130.29 nm  f=0.0043  <S**2>=0.000
       6 -> 15        -0.10079
      10 -> 15         0.64194
      13 -> 15        -0.16856

 Excited State  13:      Singlet-A      9.5983 eV  129.17 nm  f=0.1446  <S**2>=0.000
       8 -> 16        -0.10511
       9 -> 16        -0.10195
      11 -> 15        -0.15421
      11 -> 16         0.46209
      11 -> 17        -0.19787
      11 -> 19        -0.14391
      12 -> 16         0.32094
      12 -> 17        -0.18217
      12 -> 18         0.11939

 Excited State  14:      Singlet-A      9.6826 eV  128.05 nm  f=0.1304  <S**2>=0.000
       8 -> 16         0.12768
       9 -> 15         0.20981
      10 -> 14         0.31798
      11 -> 15         0.27780
      11 -> 19         0.15104
      12 -> 15         0.16587
      12 -> 16         0.40043

 Excited State  15:      Singlet-A      9.9153 eV  125.04 nm  f=0.0146  <S**2>=0.000
      10 -> 16         0.58367
      13 -> 16         0.16349
      13 -> 18         0.13455
      13 -> 20        -0.13679
      13 -> 22        -0.20761

 The electronic state is 1-A.
 Alpha  occ. eigenvalues --   -1.93553  -1.23438  -0.96488  -0.81222  -0.80059
 Alpha  occ. eigenvalues --   -0.68504  -0.66045  -0.49669  -0.49072  -0.40695
 Alpha  occ. eigenvalues --   -0.39236  -0.37164  -0.27275
 Alpha virt. eigenvalues --    0.16141   0.17975   0.20018   0.27458   0.29631
 Alpha virt. eigenvalues --    0.31926   0.33975   0.35062   0.37549   0.44826
 Alpha virt. eigenvalues --    0.47851

 Mulliken charges:
               1
     1  C   -0.068663
     2  C   -1.893740
     3  O    3.101761
     4  C   -1.881365
     5  C   -0.099901
     6  H    0.144233
     7  H    0.279047
     8  H    0.278613
     9  H    0.140015
 Sum of Mulliken charges =   0.00000

 Dipole moment (field-independent basis, Debye):
    X=            -10.5794    Y=             -4.0086    Z=              0.0621  Tot=             11.3136
 N-N= 1.042661641318D+02 E-N=-1.700474272781D+02  KE=-1.568089615691D+01
 Orbital energies and kinetic energies (alpha):
                                 1                 2
   1         O                -1.935534         -1.400710
   2         O                -1.234376         -1.113700
   3         O                -0.964879         -0.906550
   4         O                -0.812223         -0.664942
   5         O                -0.800591         -0.638192
   6         O                -0.685036         -0.580532
   7         O                -0.660451         -0.591325

 Normal termination of Gaussian 09 at Tue Dec 15 17:09:53 2015.
