 Gaussian 09, Revision D.01,
 Gaussian 09:  ES64L-G09RevD.01 24-Apr-2013

 ------------------------------------------------------------
 #P AM1(Input,print) CIS(Singlets,NStates=15) pop(full) force
 ------------------------------------------------------------

 -----------------
 AM1-Reparam Input
 -----------------
 Symbolic Z-matrix:
 Charge =  0 Multiplicity = 1

                         Standard orientation:
 ---------------------------------------------------------------------
 Center     Atomic      Atomic             Coordinates (Angstroms)
 Number     Number       Type             X           Y           Z
 ---------------------------------------------------------------------
      1          6           0       -0.937434    0.729833   -0.021719
      2          6           0       -0.962978   -0.593631    0.027571
      3          8           0        0.283689   -1.138888   -0.009341
      4          6           0        1.131678   -0.042859    0.014813
      5          6           0        0.467148    1.095240   -0.003600
      6          1           0        0.883264    2.063284    0.038627
      7          1           0        2.221465   -0.377353   -0.046116
      8          1           0       -1.789787   -1.219029   -0.025289
      9          1           0       -1.774941    1.512701    0.005117
 ---------------------------------------------------------------------

 SCF Done:  E(RAM1) =   1.77084021067     A.U. after   13 cycles

 Excitation energies and oscillator strengths:

 Excited State   1:      Singlet-A      5.2819 eV  234.73 nm  f=0.3683  <S**2>=0.000
      13 -> 14         0.69591
 This state for optimization and/or second-order correction.
 Total Energy, E(CIS) =   1.96494786841
 Copying the excited state density for this state as the 1-particle RhoCI density.

 Excited State   2:      Singlet-A      6.5907 eV  188.12 nm  f=0.0001  <S**2>=0.000
      10 -> 15        -0.10376
      13 -> 15         0.67691
      13 -> 17        -0.10013
      13 -> 19        -0.10662

 Excited State   3:      Singlet-A      6.8533 eV  180.91 nm  f=0.0003  <S**2>=0.000
      12 -> 14         0.70181

 Excited State   4:      Singlet-A      7.0013 eV  177.09 nm  f=0.0024  <S**2>=0.000
      13 -> 16         0.67236
      13 -> 18        -0.13556

 Excited State   5:      Singlet-A      7.9886 eV  155.20 nm  f=0.0075  <S**2>=0.000
      11 -> 14         0.69564

 Excited State   6:      Singlet-A      8.4166 eV  147.31 nm  f=0.0002  <S**2>=0.000
      13 -> 15         0.10295
      13 -> 17         0.54940
      13 -> 18        -0.32848
      13 -> 19         0.14158
      13 -> 22        -0.19541

 Excited State   7:      Singlet-A      8.9673 eV  138.26 nm  f=0.0051  <S**2>=0.000
      13 -> 16         0.12377
      13 -> 17         0.38515
      13 -> 18         0.54818
      13 -> 22         0.11690

 Excited State   8:      Singlet-A      9.3664 eV  132.37 nm  f=0.0539  <S**2>=0.000
       8 -> 15         0.12021
      10 -> 14         0.56737
      12 -> 15         0.32470
      13 -> 20        -0.13022

 Excited State   9:      Singlet-A      9.4559 eV  131.12 nm  f=0.0062  <S**2>=0.000
      13 -> 17        -0.10686
      13 -> 18         0.15794
      13 -> 19         0.66574

 Excited State  10:      Singlet-A      9.5701 eV  129.55 nm  f=0.0836  <S**2>=0.000
       9 -> 16         0.11165
      10 -> 14        -0.29679
      11 -> 17        -0.13829
      12 -> 15         0.41269
      12 -> 16        -0.28300
      12 -> 17        -0.20412
      12 -> 18         0.16823

 Excited State  11:      Singlet-A     10.1354 eV  122.33 nm  f=0.1044  <S**2>=0.000
       9 -> 15         0.10807
      10 -> 14        -0.17337
      11 -> 15        -0.28692
      11 -> 17         0.17525
      12 -> 15         0.36755
      12 -> 16         0.32565
      12 -> 17         0.13417
      12 -> 18        -0.21928

 Excited State  12:      Singlet-A     10.3737 eV  119.52 nm  f=0.0772  <S**2>=0.000
      12 -> 16        -0.18088
      13 -> 18         0.12145
      13 -> 20         0.24637
      13 -> 21         0.50331
      13 -> 22        -0.28888

 Excited State  13:      Singlet-A     10.4312 eV  118.86 nm  f=0.1501  <S**2>=0.000
      11 -> 16         0.24765
      11 -> 17        -0.14012
      11 -> 18        -0.14106
      12 -> 16         0.44896
      12 -> 17        -0.25632
      12 -> 18         0.13130
      13 -> 21         0.22112

 Excited State  14:      Singlet-A     10.6336 eV  116.60 nm  f=0.0732  <S**2>=0.000
      10 -> 14         0.14668
      11 -> 15        -0.12373
      11 -> 16         0.10653
      13 -> 20         0.55223
      13 -> 22         0.33862

 Excited State  15:      Singlet-A     10.6710 eV  116.19 nm  f=0.0541  <S**2>=0.000
      11 -> 15         0.14068
      13 -> 18        -0.12755
      13 -> 20        -0.20923
      13 -> 21         0.37443
      13 -> 22         0.47725

 The electronic state is 1-A.
 Alpha  occ. eigenvalues --   -1.90593  -1.17673  -0.92466  -0.81270  -0.78112
 Alpha  occ. eigenvalues --   -0.69800  -0.67488  -0.55258  -0.54390  -0.46602
 Alpha  occ. eigenvalues --   -0.43822  -0.40197  -0.28440
 Alpha virt. eigenvalues --    0.11692   0.17768   0.20245   0.27741   0.29476
 Alpha virt. eigenvalues --    0.31303   0.33220   0.33917   0.36862   0.42483
 Alpha virt. eigenvalues --    0.45284

 Mulliken charges:
               1
     1  C   -0.193474
     2  C   -2.011697
     3  O    3.283807
     4  C   -1.970994
     5  C   -0.167887
     6  H    0.201611
     7  H    0.315448
     8  H    0.338993
     9  H    0.204193
 Sum of Mulliken charges =   0.00000

 Dipole moment (field-independent basis, Debye):
    X=              2.7635    Y=            -11.0374    Z=             -0.5826  Tot=             11.3930
 N-N= 1.038639140064D+02 E-N=-1.693751371227D+02  KE=-1.548879794936D+01
 Orbital energies and kinetic energies (alpha):
                                 1                 2
   1         O                -1.905927         -1.363065
   2         O                -1.176730         -1.058826
   3         O                -0.924656         -0.896822
   4         O                -0.812703         -0.562467
   5         O                -0.781115         -0.693769
   6         O                -0.698002         -0.574940
   7         O                -0.674883         -0.544460

 Normal termination of Gaussian 09 at Tue Dec 15 17:09:49 2015.
