 Gaussian 09, Revision D.01,
 Gaussian 09:  ES64L-G09RevD.01 24-Apr-2013

 ------------------------------------------------------------
 #P AM1(Input,print) CIS(Singlets,NStates=15) pop(full) force
 ------------------------------------------------------------

 -----------------
 AM1-Reparam Input
 -----------------
 Symbolic Z-matrix:
 Charge =  0 Multiplicity = 1

                         Standard orientation:
 ---------------------------------------------------------------------
 Center     Atomic      Atomic             Coordinates (Angstroms)
 Number     Number       Type             X           Y           Z
 ---------------------------------------------------------------------
      1          6           0       -1.019760    0.708164   -0.025687
      2          6           0       -0.988633   -0.636175    0.046698
      3          8           0        0.370198   -1.136602   -0.036632
      4          6           0        1.185691    0.017817    0.028300
      5          6           0        0.420975    1.089536   -0.014464
      6          1           0        0.751393    2.181483    0.045415
      7          1           0        2.241335   -0.147917    0.023371
      8          1           0       -1.664749   -1.364004    0.025908
      9          1           0       -1.879206    1.347208   -0.010723
 ---------------------------------------------------------------------

 SCF Done:  E(RAM1) =   2.09236785447     A.U. after   14 cycles

 Excitation energies and oscillator strengths:

 Excited State   1:      Singlet-A      4.9714 eV  249.40 nm  f=0.3490  <S**2>=0.000
      13 -> 14         0.69584
 This state for optimization and/or second-order correction.
 Total Energy, E(CIS) =   2.27506244804
 Copying the excited state density for this state as the 1-particle RhoCI density.

 Excited State   2:      Singlet-A      6.4119 eV  193.37 nm  f=0.0027  <S**2>=0.000
      12 -> 14         0.66893
      13 -> 15         0.15229
      13 -> 18        -0.10593

 Excited State   3:      Singlet-A      6.4884 eV  191.09 nm  f=0.0019  <S**2>=0.000
      12 -> 14        -0.20561
      13 -> 15         0.45681
      13 -> 16        -0.37887
      13 -> 18        -0.29545

 Excited State   4:      Singlet-A      6.6409 eV  186.70 nm  f=0.0104  <S**2>=0.000
      13 -> 15         0.43394
      13 -> 16         0.49469
      13 -> 17         0.22522

 Excited State   5:      Singlet-A      7.5636 eV  163.92 nm  f=0.0002  <S**2>=0.000
      13 -> 15         0.11672
      13 -> 16        -0.24030
      13 -> 17         0.26044
      13 -> 18         0.42065
      13 -> 19        -0.23872
      13 -> 20        -0.31153

 Excited State   6:      Singlet-A      7.7793 eV  159.38 nm  f=0.0074  <S**2>=0.000
      10 -> 14        -0.19413
      11 -> 14         0.66646

 Excited State   7:      Singlet-A      8.3142 eV  149.12 nm  f=0.0104  <S**2>=0.000
      13 -> 15        -0.19391
      13 -> 17         0.57747
      13 -> 18        -0.29609

 Excited State   8:      Singlet-A      8.6864 eV  142.73 nm  f=0.0851  <S**2>=0.000
      10 -> 14         0.63908
      11 -> 14         0.18721
      13 -> 21        -0.14809

 Excited State   9:      Singlet-A      8.8214 eV  140.55 nm  f=0.0036  <S**2>=0.000
      10 -> 16         0.10310
      13 -> 16        -0.15091
      13 -> 17         0.16716
      13 -> 18         0.23117
      13 -> 19         0.56328
      13 -> 20         0.21867

 Excited State  10:      Singlet-A      9.0682 eV  136.72 nm  f=0.0184  <S**2>=0.000
      13 -> 18         0.25676
      13 -> 19        -0.30315
      13 -> 20         0.52808
      13 -> 21        -0.21048

 Excited State  11:      Singlet-A      9.3439 eV  132.69 nm  f=0.0662  <S**2>=0.000
      11 -> 15        -0.11575
      11 -> 17        -0.13879
      11 -> 18         0.10569
      12 -> 15        -0.24725
      12 -> 16         0.36795
      12 -> 17         0.20156
      12 -> 18         0.36274
      12 -> 20        -0.11746

 Excited State  12:      Singlet-A      9.5034 eV  130.46 nm  f=0.0663  <S**2>=0.000
      13 -> 19         0.10701
      13 -> 20        -0.18254
      13 -> 21        -0.41647
      13 -> 22         0.51115

 Excited State  13:      Singlet-A      9.8214 eV  126.24 nm  f=0.1183  <S**2>=0.000
      10 -> 14         0.15854
      12 -> 15         0.40838
      12 -> 16         0.11533
      12 -> 17         0.16761
      13 -> 21         0.34127
      13 -> 22         0.33379

 Excited State  14:      Singlet-A      9.8993 eV  125.25 nm  f=0.0925  <S**2>=0.000
      11 -> 15        -0.16881
      11 -> 18         0.10715
      12 -> 15         0.40217
      12 -> 17         0.17611
      13 -> 21        -0.33951
      13 -> 22        -0.30131

 Excited State  15:      Singlet-A     10.2951 eV  120.43 nm  f=0.1427  <S**2>=0.000
       8 -> 16         0.15517
      11 -> 16         0.17607
      11 -> 17         0.11504
      12 -> 16         0.45648
      12 -> 17        -0.20559
      12 -> 18        -0.15923
      12 -> 19         0.30681

 The electronic state is 1-A.
 Alpha  occ. eigenvalues --   -1.91725  -1.17690  -0.95604  -0.80524  -0.79096
 Alpha  occ. eigenvalues --   -0.68468  -0.62696  -0.54292  -0.53355  -0.43672
 Alpha  occ. eigenvalues --   -0.43383  -0.39104  -0.26798
 Alpha virt. eigenvalues --    0.11343   0.20358   0.21902   0.27137   0.28181
 Alpha virt. eigenvalues --    0.29903   0.30537   0.31137   0.31843   0.40653
 Alpha virt. eigenvalues --    0.44275

 Mulliken charges:
               1
     1  C   -0.206439
     2  C   -1.961332
     3  O    3.183844
     4  C   -1.959277
     5  C   -0.260133
     6  H    0.258583
     7  H    0.359819
     8  H    0.335044
     9  H    0.249893
 Sum of Mulliken charges =   0.00000

 Dipole moment (field-independent basis, Debye):
    X=              3.8006    Y=            -10.6251    Z=             -0.9744  Tot=             11.3264
 N-N= 1.033506437141D+02 E-N=-1.679872825401D+02  KE=-1.540110349661D+01
 Orbital energies and kinetic energies (alpha):
                                 1                 2
   1         O                -1.917248         -1.325407
   2         O                -1.176905         -1.054728
   3         O                -0.956043         -0.888953
   4         O                -0.805241         -0.604821
   5         O                -0.790962         -0.678871
   6         O                -0.684676         -0.558770
   7         O                -0.626957         -0.511739

 Normal termination of Gaussian 09 at Tue Dec 15 17:07:22 2015.
