 Gaussian 09, Revision D.01,
 Gaussian 09:  ES64L-G09RevD.01 24-Apr-2013

 ------------------------------------------------------------
 #P AM1(Input,print) CIS(Singlets,NStates=15) pop(full) force
 ------------------------------------------------------------

 -----------------
 AM1-Reparam Input
 -----------------
 Symbolic Z-matrix:
 Charge =  0 Multiplicity = 1

                         Standard orientation:
 ---------------------------------------------------------------------
 Center     Atomic      Atomic             Coordinates (Angstroms)
 Number     Number       Type             X           Y           Z
 ---------------------------------------------------------------------
      1          6           0        0.757171    0.896867   -0.007864
      2          6           0        1.115852   -0.438017   -0.018797
      3          8           0       -0.113448   -1.144788    0.022470
      4          6           0       -1.135647   -0.256853   -0.027972
      5          6           0       -0.613125    0.984238    0.020463
      6          1           0       -1.228986    1.966866   -0.028794
      7          1           0       -2.111270   -0.674049    0.012461
      8          1           0        1.989501   -0.939612   -0.011258
      9          1           0        1.512834    1.687690    0.052856
 ---------------------------------------------------------------------

 SCF Done:  E(RAM1) =   2.11069670787     A.U. after   13 cycles

 Excitation energies and oscillator strengths:

 Excited State   1:      Singlet-A      5.7103 eV  217.13 nm  f=0.3202  <S**2>=0.000
      13 -> 14         0.69094
 This state for optimization and/or second-order correction.
 Total Energy, E(CIS) =   2.32054456916
 Copying the excited state density for this state as the 1-particle RhoCI density.

 Excited State   2:      Singlet-A      6.7087 eV  184.81 nm  f=0.0034  <S**2>=0.000
      10 -> 15         0.12251
      13 -> 15         0.65502
      13 -> 16         0.14957
      13 -> 17        -0.11836

 Excited State   3:      Singlet-A      7.2441 eV  171.15 nm  f=0.0027  <S**2>=0.000
      13 -> 15        -0.13899
      13 -> 16         0.65251
      13 -> 19        -0.10443

 Excited State   4:      Singlet-A      7.4871 eV  165.60 nm  f=0.0002  <S**2>=0.000
      12 -> 14         0.69539

 Excited State   5:      Singlet-A      7.8619 eV  157.70 nm  f=0.0053  <S**2>=0.000
      11 -> 14         0.69020

 Excited State   6:      Singlet-A      8.3634 eV  148.25 nm  f=0.0002  <S**2>=0.000
      13 -> 17        -0.35570
      13 -> 18         0.48569
      13 -> 22         0.33615

 Excited State   7:      Singlet-A      8.5662 eV  144.74 nm  f=0.0045  <S**2>=0.000
      13 -> 15         0.11439
      13 -> 17         0.56404
      13 -> 18         0.31020
      13 -> 22         0.15731

 Excited State   8:      Singlet-A      9.0874 eV  136.43 nm  f=0.0738  <S**2>=0.000
      10 -> 14         0.66415
      13 -> 20        -0.12250

 Excited State   9:      Singlet-A      9.4157 eV  131.68 nm  f=0.0008  <S**2>=0.000
      10 -> 16        -0.11054
      13 -> 18         0.32341
      13 -> 19         0.41390
      13 -> 20        -0.20386
      13 -> 21         0.13157
      13 -> 22        -0.35139

 Excited State  10:      Singlet-A      9.6916 eV  127.93 nm  f=0.0455  <S**2>=0.000
      11 -> 15        -0.14535
      11 -> 16        -0.12628
      11 -> 17         0.14213
      12 -> 16        -0.11317
      12 -> 17         0.10510
      12 -> 18        -0.14212
      13 -> 18        -0.18371
      13 -> 19         0.43591
      13 -> 21        -0.10185
      13 -> 22         0.33011

 Excited State  11:      Singlet-A      9.7607 eV  127.02 nm  f=0.1138  <S**2>=0.000
      11 -> 15         0.25715
      11 -> 16         0.22237
      11 -> 17        -0.23347
      11 -> 18        -0.11293
      12 -> 16         0.18305
      12 -> 17        -0.16039
      12 -> 18         0.23963
      13 -> 18        -0.11994
      13 -> 19         0.24144
      13 -> 22         0.23758

 Excited State  12:      Singlet-A      9.9892 eV  124.12 nm  f=0.1026  <S**2>=0.000
      11 -> 15         0.17479
      12 -> 15         0.63760
      12 -> 19         0.11612

 Excited State  13:      Singlet-A     10.1114 eV  122.62 nm  f=0.0875  <S**2>=0.000
      10 -> 15        -0.11941
      10 -> 16         0.13354
      13 -> 19         0.14437
      13 -> 20         0.47225
      13 -> 21        -0.37530
      13 -> 22        -0.22397

 Excited State  14:      Singlet-A     10.2863 eV  120.53 nm  f=0.0571  <S**2>=0.000
      10 -> 14         0.15721
      10 -> 15         0.14240
      12 -> 16        -0.12045
      13 -> 20         0.40212
      13 -> 21         0.49394

 Excited State  15:      Singlet-A     10.3538 eV  119.75 nm  f=0.0086  <S**2>=0.000
       7 -> 15        -0.10899
      10 -> 15         0.58388
      10 -> 16         0.14874
      11 -> 16        -0.10498
      13 -> 15        -0.15144
      13 -> 19         0.11040
      13 -> 21        -0.13387
      13 -> 22        -0.10067

 The electronic state is 1-A.
 Alpha  occ. eigenvalues --   -1.93435  -1.19854  -0.93836  -0.80328  -0.79228
 Alpha  occ. eigenvalues --   -0.69201  -0.66042  -0.56600  -0.54480  -0.44495
 Alpha  occ. eigenvalues --   -0.43227  -0.42254  -0.30182
 Alpha virt. eigenvalues --    0.12076   0.17694   0.20774   0.24767   0.26515
 Alpha virt. eigenvalues --    0.29787   0.30530   0.30854   0.32072   0.38665
 Alpha virt. eigenvalues --    0.43289

 Mulliken charges:
               1
     1  C   -0.120568
     2  C   -1.905487
     3  O    3.230951
     4  C   -1.893626
     5  C   -0.170401
     6  H    0.168563
     7  H    0.267440
     8  H    0.260623
     9  H    0.162505
 Sum of Mulliken charges =   0.00000

 Dipole moment (field-independent basis, Debye):
    X=             -1.5173    Y=            -10.3507    Z=              0.7115  Tot=             10.4855
 N-N= 1.040166614108D+02 E-N=-1.690194491580D+02  KE=-1.532920976925D+01
 Orbital energies and kinetic energies (alpha):
                                 1                 2
   1         O                -1.934353         -1.349653
   2         O                -1.198543         -1.045989
   3         O                -0.938358         -0.883500
   4         O                -0.803281         -0.601456
   5         O                -0.792282         -0.663205
   6         O                -0.692009         -0.590108
   7         O                -0.660425         -0.532066

 Normal termination of Gaussian 09 at Tue Dec 15 17:09:23 2015.
