 Gaussian 09, Revision D.01,
 Gaussian 09:  ES64L-G09RevD.01 24-Apr-2013

 -------------------------------------------------------
 #P B3LYP/3-21G CIS(Singlets,NStates=15) pop(full) force
 -------------------------------------------------------

 --------
 FuranDFT
 --------
 Symbolic Z-matrix:
 Charge =  0 Multiplicity = 1

                         Standard orientation:
 ---------------------------------------------------------------------
 Center     Atomic      Atomic             Coordinates (Angstroms)
 Number     Number       Type             X           Y           Z
 ---------------------------------------------------------------------
      1          6           0        0.657691    0.968838    0.044262
      2          6           0        1.142680   -0.235774   -0.032656
      3          8           0        0.098969   -1.115651    0.020825
      4          6           0       -1.072876   -0.403624   -0.016764
      5          6           0       -0.822255    0.845673   -0.004951
      6          1           0       -1.530414    1.715047   -0.027783
      7          1           0       -1.984058   -1.063644    0.006417
      8          1           0        2.122164   -0.697798   -0.032013
      9          1           0        1.169120    1.920926   -0.052563
 ---------------------------------------------------------------------

 SCF Done:  E(RB3LYP) =  -228.732494542     A.U. after   14 cycles

 Excitation energies and oscillator strengths:

 Excited State   1:      Singlet-A      7.6759 eV  161.52 nm  f=0.0060  <S**2>=0.000
      17 -> 19         0.55056
      18 -> 20         0.42762
 This state for optimization and/or second-order correction.
 Total Energy, E(CIS) =  -228.450409012
 Copying the excited state density for this state as the 1-particle RhoCI density.

 Excited State   2:      Singlet-A      7.9368 eV  156.21 nm  f=0.2055  <S**2>=0.000
      18 -> 19         0.67902

 Excited State   3:      Singlet-A      8.8706 eV  139.77 nm  f=0.0016  <S**2>=0.000
      18 -> 21         0.68855

 Excited State   4:      Singlet-A      8.9344 eV  138.77 nm  f=0.0046  <S**2>=0.000
      16 -> 19         0.69757

 Excited State   5:      Singlet-A      9.3282 eV  132.91 nm  f=0.0513  <S**2>=0.000
      17 -> 20         0.42332
      17 -> 21         0.36152
      18 -> 20        -0.14827
      18 -> 22         0.31142
      18 -> 23        -0.20871

 Excited State   6:      Singlet-A      9.4040 eV  131.84 nm  f=0.0697  <S**2>=0.000
      17 -> 20         0.49396
      17 -> 21        -0.25405
      18 -> 22        -0.32896
      18 -> 23         0.20622

 Excited State   7:      Singlet-A      9.5559 eV  129.75 nm  f=0.0047  <S**2>=0.000
      15 -> 19        -0.10685
      17 -> 21         0.52385
      18 -> 22        -0.40967
      18 -> 23         0.14678

 Excited State   8:      Singlet-A      9.7314 eV  127.41 nm  f=0.0022  <S**2>=0.000
      18 -> 22         0.32332
      18 -> 23         0.60216

 Excited State   9:      Singlet-A     10.0109 eV  123.85 nm  f=0.0471  <S**2>=0.000
      15 -> 19         0.61426
      17 -> 19        -0.11370
      17 -> 20         0.10678
      17 -> 22         0.18781
      18 -> 20         0.16162

 Excited State  10:      Singlet-A     10.1126 eV  122.60 nm  f=0.0851  <S**2>=0.000
      17 -> 19         0.16482
      17 -> 22         0.60999
      17 -> 23        -0.10071
      18 -> 20        -0.22443

 Excited State  11:      Singlet-A     10.2274 eV  121.23 nm  f=0.3003  <S**2>=0.000
      15 -> 19        -0.28496
      16 -> 21         0.10038
      17 -> 19        -0.29310
      17 -> 20         0.11272
      17 -> 22         0.22270
      17 -> 23        -0.18336
      18 -> 20         0.38637
      18 -> 23        -0.11660

 Excited State  12:      Singlet-A     10.3227 eV  120.11 nm  f=0.0138  <S**2>=0.000
      17 -> 22         0.16637
      17 -> 23         0.65256

 Excited State  13:      Singlet-A     10.5188 eV  117.87 nm  f=0.0042  <S**2>=0.000
      14 -> 19        -0.20441
      16 -> 20         0.66429

 Excited State  14:      Singlet-A     10.7579 eV  115.25 nm  f=0.0094  <S**2>=0.000
      18 -> 24         0.69139

 Excited State  15:      Singlet-A     11.1200 eV  111.50 nm  f=0.0006  <S**2>=0.000
      13 -> 19        -0.11835
      14 -> 19         0.48956
      15 -> 20         0.43146
      16 -> 20         0.15113
      17 -> 24        -0.15556

 The electronic state is 1-A.
 Alpha  occ. eigenvalues --  -19.09599 -10.17242 -10.17170 -10.12318 -10.12126
 Alpha  occ. eigenvalues --   -1.12025  -0.80590  -0.76198  -0.60365  -0.56437
 Alpha  occ. eigenvalues --   -0.53749  -0.44703  -0.44193  -0.42516  -0.38684
 Alpha  occ. eigenvalues --   -0.35186  -0.27144  -0.24889
 Alpha virt. eigenvalues --    0.03527   0.08826   0.12365   0.14611   0.15259
 Alpha virt. eigenvalues --    0.18598   0.21627   0.23085   0.39280   0.42814
 Alpha virt. eigenvalues --    0.48690   0.67500   0.68801   0.69423   0.76120

 Mulliken charges:
               1
     1  C   -0.263111
     2  C    0.107932
     3  O   -0.500734
     4  C    0.115371
     5  C   -0.262730
     6  H    0.184835
     7  H    0.214570
     8  H    0.220297
     9  H    0.183570
 Sum of Mulliken charges =   0.00000

 Dipole moment (field-independent basis, Debye):
    X=             -0.0649    Y=              0.6974    Z=             -0.1333  Tot=              0.7130
 Quadrupole moment (field-independent basis, Debye-Ang):
   XX=            -23.4977   YY=            -28.0196   ZZ=            -31.6138
   XY=              0.2092   XZ=             -0.1380   YZ=             -0.1685

 Normal termination of Gaussian 09 at Tue Dec 15 16:16:22 2015.
