 Gaussian 09, Revision D.01,
 Gaussian 09:  ES64L-G09RevD.01 24-Apr-2013

 ------------------------------------------------------------
 #P AM1(Input,print) CIS(Singlets,NStates=15) pop(full) force
 ------------------------------------------------------------

 -----------------
 AM1-Reparam Input
 -----------------
 Symbolic Z-matrix:
 Charge =  0 Multiplicity = 1

                         Standard orientation:
 ---------------------------------------------------------------------
 Center     Atomic      Atomic             Coordinates (Angstroms)
 Number     Number       Type             X           Y           Z
 ---------------------------------------------------------------------
      1          6           0       -0.885270    0.787392    0.015701
      2          6           0       -1.065905   -0.472591   -0.015346
      3          8           0        0.213108   -1.146504    0.022311
      4          6           0        1.169657   -0.156108   -0.021829
      5          6           0        0.536669    1.068398   -0.009674
      6          1           0        1.077165    1.969415    0.057703
      7          1           0        2.133243   -0.528447   -0.004625
      8          1           0       -1.874166   -1.175156   -0.029939
      9          1           0       -1.572016    1.543671   -0.014736
 ---------------------------------------------------------------------

 SCF Done:  E(RAM1) =  -5.43509620678     A.U. after   14 cycles

 Excitation energies and oscillator strengths:

 Excited State   1:      Singlet-A      5.2996 eV  233.95 nm  f=0.0013  <S**2>=0.000
      13 -> 15         0.25514
      13 -> 16         0.65277
 This state for optimization and/or second-order correction.
 Total Energy, E(CIS) =  -5.24033775816
 Copying the excited state density for this state as the 1-particle RhoCI density.

 Excited State   2:      Singlet-A      6.4768 eV  191.43 nm  f=0.2417  <S**2>=0.000
      13 -> 14         0.66111
      13 -> 15        -0.15146
      13 -> 16         0.10231

 Excited State   3:      Singlet-A      6.5905 eV  188.13 nm  f=0.1459  <S**2>=0.000
      11 -> 16        -0.10818
      12 -> 14        -0.14000
      13 -> 14         0.17806
      13 -> 15         0.61285
      13 -> 16        -0.22873

 Excited State   4:      Singlet-A      7.5265 eV  164.73 nm  f=0.0013  <S**2>=0.000
      13 -> 17         0.68642

 Excited State   5:      Singlet-A      8.3631 eV  148.25 nm  f=0.0017  <S**2>=0.000
      11 -> 14         0.60493
      11 -> 15        -0.26455
      11 -> 16         0.10024
      13 -> 18         0.11765

 Excited State   6:      Singlet-A      8.6074 eV  144.04 nm  f=0.0009  <S**2>=0.000
      12 -> 15         0.27302
      12 -> 16         0.60726
      13 -> 18        -0.17136
      13 -> 19         0.11411

 Excited State   7:      Singlet-A      8.9945 eV  137.85 nm  f=0.0073  <S**2>=0.000
      10 -> 14        -0.39806
      11 -> 15         0.23039
      12 -> 14         0.10862
      12 -> 16         0.13589
      13 -> 18         0.44734
      13 -> 21         0.16214

 Excited State   8:      Singlet-A      9.1126 eV  136.06 nm  f=0.0019  <S**2>=0.000
      10 -> 14         0.46555
      11 -> 14        -0.16553
      11 -> 15        -0.15176
      13 -> 18         0.42124

 Excited State   9:      Singlet-A      9.2388 eV  134.20 nm  f=0.1362  <S**2>=0.000
      11 -> 15        -0.15770
      11 -> 16        -0.15765
      12 -> 14         0.45903
      12 -> 15         0.41622
      12 -> 16        -0.16908

 Excited State  10:      Singlet-A      9.4363 eV  131.39 nm  f=0.0208  <S**2>=0.000
      10 -> 14         0.10047
      11 -> 14         0.13225
      11 -> 15         0.12995
      13 -> 18         0.18555
      13 -> 19         0.58497
      13 -> 20        -0.10600
      13 -> 21        -0.21225

 Excited State  11:      Singlet-A      9.5762 eV  129.47 nm  f=0.0650  <S**2>=0.000
      10 -> 14         0.18181
      10 -> 15        -0.10743
      11 -> 14         0.16113
      11 -> 15         0.50706
      11 -> 16         0.10590
      12 -> 14        -0.12104
      12 -> 15         0.26817
      12 -> 16        -0.12983
      13 -> 19        -0.17671

 Excited State  12:      Singlet-A      9.6109 eV  129.00 nm  f=0.0815  <S**2>=0.000
      10 -> 14        -0.20898
      11 -> 14        -0.18980
      11 -> 15        -0.17245
      11 -> 16         0.36344
      12 -> 14        -0.29489
      12 -> 15         0.31234
      12 -> 16        -0.17019
      13 -> 19         0.10984

 Excited State  13:      Singlet-A      9.9697 eV  124.36 nm  f=0.4613  <S**2>=0.000
      10 -> 17         0.11138
      11 -> 16         0.49247
      12 -> 14         0.33727
      12 -> 15        -0.16734
      13 -> 15         0.15145
      13 -> 21         0.13502

 Excited State  14:      Singlet-A     10.0389 eV  123.50 nm  f=0.0286  <S**2>=0.000
      11 -> 16        -0.12240
      13 -> 18        -0.14075
      13 -> 19         0.25654
      13 -> 20         0.15342
      13 -> 21         0.57632

 Excited State  15:      Singlet-A     10.5644 eV  117.36 nm  f=0.0208  <S**2>=0.000
       9 -> 14         0.16664
      10 -> 15         0.64003

 The electronic state is 1-A.
 Alpha  occ. eigenvalues --   -3.72773  -1.25190  -0.96671  -0.93701  -0.90619
 Alpha  occ. eigenvalues --   -0.84494  -0.82122  -0.66596  -0.64140  -0.57756
 Alpha  occ. eigenvalues --   -0.55544  -0.53534  -0.41364
 Alpha virt. eigenvalues --    0.01740   0.02927   0.03760   0.11833   0.17617
 Alpha virt. eigenvalues --    0.18296   0.19848   0.21270   0.22019   0.28320
 Alpha virt. eigenvalues --    0.28715

 Mulliken charges:
               1
     1  C   -0.364198
     2  C   -1.094253
     3  O    2.251358
     4  C   -1.121704
     5  C   -0.441395
     6  H    0.232515
     7  H    0.148922
     8  H    0.158583
     9  H    0.230171
 Sum of Mulliken charges =   0.00000

 Dipole moment (field-independent basis, Debye):
    X=              1.3644    Y=             -8.5491    Z=              0.4146  Tot=              8.6672
 N-N= 1.017531430042D+02 E-N=-1.663458628713D+02  KE=-2.234053761817D+01
 Orbital energies and kinetic energies (alpha):
                                 1                 2
   1         O                -3.727734         -3.038556
   2         O                -1.251896         -1.096092
   3         O                -0.966712         -0.869426
   4         O                -0.937011         -0.872871
   5         O                -0.906186         -0.785339
   6         O                -0.844940         -0.764305
   7         O                -0.821225         -0.700178

 Normal termination of Gaussian 09 at Fri Dec 11 13:41:27 2015.
