 Gaussian 09, Revision D.01,
 Gaussian 09:  ES64L-G09RevD.01 24-Apr-2013

 ------------------------------------------------------------
 #P AM1(Input,print) CIS(Singlets,NStates=15) pop(full) force
 ------------------------------------------------------------

 -----------------
 AM1-Reparam Input
 -----------------
 Symbolic Z-matrix:
 Charge =  0 Multiplicity = 1

                         Standard orientation:
 ---------------------------------------------------------------------
 Center     Atomic      Atomic             Coordinates (Angstroms)
 Number     Number       Type             X           Y           Z
 ---------------------------------------------------------------------
      1          6           0        0.233851    1.154702    0.003250
      2          6           0        1.135344    0.102583   -0.003083
      3          8           0        0.513178   -1.038706   -0.012188
      4          6           0       -0.894355   -0.752286    0.020260
      5          6           0       -1.039467    0.578183   -0.021205
      6          1           0       -1.994764    1.099424   -0.005095
      7          1           0       -1.506241   -1.562490    0.034581
      8          1           0        2.247521    0.079366    0.026829
      9          1           0        0.535823    2.194256    0.045854
 ---------------------------------------------------------------------

 SCF Done:  E(RAM1) =  0.244987818256E-01 A.U. after   14 cycles

 Excitation energies and oscillator strengths:

 Excited State   1:      Singlet-A      4.2800 eV  289.68 nm  f=0.0969  <S**2>=0.000
      12 -> 15        -0.16791
      13 -> 14         0.67362
 This state for optimization and/or second-order correction.
 Total Energy, E(CIS) =  0.181787207879
 Copying the excited state density for this state as the 1-particle RhoCI density.

 Excited State   2:      Singlet-A      4.5913 eV  270.04 nm  f=0.0013  <S**2>=0.000
      13 -> 15        -0.10915
      13 -> 16         0.67583

 Excited State   3:      Singlet-A      5.0355 eV  246.22 nm  f=0.0214  <S**2>=0.000
      12 -> 14         0.36139
      13 -> 15         0.59239
      13 -> 16         0.10642

 Excited State   4:      Singlet-A      5.7091 eV  217.17 nm  f=0.0003  <S**2>=0.000
      12 -> 17        -0.12769
      13 -> 17         0.46056
      13 -> 18         0.24108
      13 -> 19        -0.16664
      13 -> 21         0.17875
      13 -> 22         0.28820
      13 -> 23         0.14535

 Excited State   5:      Singlet-A      6.0409 eV  205.24 nm  f=0.0039  <S**2>=0.000
       7 -> 16        -0.15860
      12 -> 16         0.64279
      12 -> 22        -0.10793

 Excited State   6:      Singlet-A      6.1769 eV  200.72 nm  f=0.0021  <S**2>=0.000
      12 -> 18         0.13503
      12 -> 19         0.16416
      12 -> 21         0.15907
      12 -> 23        -0.12928
      13 -> 18         0.36174
      13 -> 19         0.35412
      13 -> 21         0.20662
      13 -> 23        -0.23811

 Excited State   7:      Singlet-A      6.2988 eV  196.84 nm  f=0.3690  <S**2>=0.000
      12 -> 14         0.56825
      13 -> 15        -0.34178

 Excited State   8:      Singlet-A      6.4530 eV  192.13 nm  f=0.0008  <S**2>=0.000
      13 -> 17         0.32960
      13 -> 18        -0.33531
      13 -> 19         0.46184
      13 -> 23         0.10005

 Excited State   9:      Singlet-A      6.6433 eV  186.63 nm  f=0.1138  <S**2>=0.000
      12 -> 15         0.66513
      13 -> 14         0.15217

 Excited State  10:      Singlet-A      6.8323 eV  181.47 nm  f=0.0018  <S**2>=0.000
       9 -> 14         0.13588
      11 -> 14         0.61507
      11 -> 15         0.26811

 Excited State  11:      Singlet-A      7.2635 eV  170.70 nm  f=0.0074  <S**2>=0.000
      12 -> 19         0.20204
      13 -> 17        -0.23325
      13 -> 18        -0.28666
      13 -> 20         0.20453
      13 -> 21         0.33654
      13 -> 22         0.32965

 Excited State  12:      Singlet-A      7.3136 eV  169.53 nm  f=0.0008  <S**2>=0.000
      12 -> 18         0.38704
      12 -> 19         0.15551
      12 -> 22         0.11770
      12 -> 23        -0.12549
      13 -> 17         0.11515
      13 -> 19        -0.25290
      13 -> 21         0.20141
      13 -> 22        -0.28576
      13 -> 24         0.20175

 Excited State  13:      Singlet-A      7.4292 eV  166.89 nm  f=0.0054  <S**2>=0.000
      12 -> 18        -0.27393
      12 -> 19         0.34820
      12 -> 20         0.17091
      12 -> 21         0.17652
      12 -> 23         0.11479
      13 -> 17         0.13132
      13 -> 18        -0.20130
      13 -> 20        -0.25546
      13 -> 23        -0.28807

 Excited State  14:      Singlet-A      7.5581 eV  164.04 nm  f=0.0003  <S**2>=0.000
       9 -> 14         0.54084
       9 -> 15        -0.28317
      10 -> 15         0.16612
      11 -> 14        -0.12844

 Excited State  15:      Singlet-A      7.7894 eV  159.17 nm  f=0.0003  <S**2>=0.000
       9 -> 14         0.14430
      10 -> 15         0.20142
      12 -> 17         0.38315
      12 -> 19        -0.10017
      12 -> 20         0.18917
      12 -> 21         0.10790
      12 -> 22         0.12015
      13 -> 17         0.16780
      13 -> 20         0.31634
      13 -> 22         0.10821
      13 -> 24         0.18157

 The electronic state is 1-A.
 Alpha  occ. eigenvalues --   -1.57212  -1.24668  -1.09579  -0.82092  -0.81903
 Alpha  occ. eigenvalues --   -0.68691  -0.60441  -0.56771  -0.51264  -0.50653
 Alpha  occ. eigenvalues --   -0.49062  -0.40215  -0.34011
 Alpha virt. eigenvalues --    0.02937   0.06642   0.08948   0.13809   0.15333
 Alpha virt. eigenvalues --    0.15648   0.17865   0.18453   0.19134   0.20933
 Alpha virt. eigenvalues --    0.22376

 Mulliken charges:
               1
     1  C   -0.249014
     2  C   -0.077908
     3  O   -0.082815
     4  C   -0.124374
     5  C   -0.154900
     6  H    0.158325
     7  H    0.182142
     8  H    0.191325
     9  H    0.157219
 Sum of Mulliken charges =   0.00000

 Dipole moment (field-independent basis, Debye):
    X=             -0.0028    Y=              0.3559    Z=              0.0830  Tot=              0.3655
 N-N= 1.036151882749D+02 E-N=-1.712727831058D+02  KE=-1.657737143233D+01
 Orbital energies and kinetic energies (alpha):
                                 1                 2
   1         O                -1.572118         -1.318067
   2         O                -1.246681         -1.058117
   3         O                -1.095788         -0.958501
   4         O                -0.820917         -0.715946
   5         O                -0.819027         -0.713413
   6         O                -0.686907         -0.604519
   7         O                -0.604405         -0.488561

 Normal termination of Gaussian 09 at Tue Dec 15 16:14:37 2015.
