 Gaussian 09, Revision D.01,
 Gaussian 09:  ES64L-G09RevD.01 24-Apr-2013

 ------------------------------------------------------------
 #P AM1(Input,print) CIS(Singlets,NStates=15) pop(full) force
 ------------------------------------------------------------

 -----------------
 AM1-Reparam Input
 -----------------
 Symbolic Z-matrix:
 Charge =  0 Multiplicity = 1

                         Standard orientation:
 ---------------------------------------------------------------------
 Center     Atomic      Atomic             Coordinates (Angstroms)
 Number     Number       Type             X           Y           Z
 ---------------------------------------------------------------------
      1          6           0        1.167013   -0.258812   -0.004737
      2          6           0        0.108758   -1.117973   -0.004070
      3          8           0       -1.113809   -0.441459    0.003735
      4          6           0       -0.706110    0.856629    0.002176
      5          6           0        0.623408    0.998950   -0.000937
      6          1           0        1.147896    1.909734    0.006692
      7          1           0       -1.591595    1.537298   -0.015170
      8          1           0       -0.026602   -2.201753    0.001494
      9          1           0        2.222362   -0.586368    0.022516
 ---------------------------------------------------------------------

 SCF Done:  E(RAM1) =   2.07970591824     A.U. after   14 cycles

 Excitation energies and oscillator strengths:

 Excited State   1:      Singlet-A      5.6455 eV  219.62 nm  f=0.3216  <S**2>=0.000
      11 -> 17         0.10421
      13 -> 14         0.69183
 This state for optimization and/or second-order correction.
 Total Energy, E(CIS) =   2.28717334343
 Copying the excited state density for this state as the 1-particle RhoCI density.

 Excited State   2:      Singlet-A      6.7368 eV  184.04 nm  f=0.0024  <S**2>=0.000
      10 -> 15         0.13067
      13 -> 15         0.65532
      13 -> 17         0.16650
      13 -> 18        -0.13306

 Excited State   3:      Singlet-A      7.0299 eV  176.37 nm  f=0.0038  <S**2>=0.000
      10 -> 16        -0.12296
      13 -> 16         0.63352
      13 -> 17         0.15370
      13 -> 18         0.20075

 Excited State   4:      Singlet-A      7.1255 eV  174.00 nm  f=0.0003  <S**2>=0.000
      12 -> 14         0.69112

 Excited State   5:      Singlet-A      7.7153 eV  160.70 nm  f=0.0072  <S**2>=0.000
      11 -> 14         0.69567

 Excited State   6:      Singlet-A      8.3131 eV  149.14 nm  f=0.0027  <S**2>=0.000
      10 -> 15         0.11025
      13 -> 15         0.13398
      13 -> 16        -0.10086
      13 -> 17        -0.20011
      13 -> 18         0.44250
      13 -> 19         0.23902
      13 -> 20         0.24630
      13 -> 21        -0.30285

 Excited State   7:      Singlet-A      8.4910 eV  146.02 nm  f=0.0277  <S**2>=0.000
      10 -> 16         0.14226
      13 -> 15        -0.11291
      13 -> 16        -0.15293
      13 -> 17         0.61928
      13 -> 19         0.13403
      13 -> 20         0.11394

 Excited State   8:      Singlet-A      8.8695 eV  139.79 nm  f=0.0862  <S**2>=0.000
      10 -> 14         0.68168

 Excited State   9:      Singlet-A      9.0383 eV  137.18 nm  f=0.0006  <S**2>=0.000
      13 -> 16         0.11424
      13 -> 18        -0.42582
      13 -> 19         0.46821
      13 -> 20         0.19277
      13 -> 21        -0.15492

 Excited State  10:      Singlet-A      9.5053 eV  130.44 nm  f=0.0046  <S**2>=0.000
       9 -> 15        -0.15507
      11 -> 15         0.18573
      11 -> 16         0.17691
      11 -> 17         0.27149
      12 -> 15         0.29365
      12 -> 16        -0.26951
      12 -> 18        -0.24799
      12 -> 19        -0.17470
      12 -> 20        -0.10852

 Excited State  11:      Singlet-A      9.7921 eV  126.62 nm  f=0.0089  <S**2>=0.000
      10 -> 15        -0.12058
      13 -> 18         0.20734
      13 -> 19         0.43935
      13 -> 20        -0.32425
      13 -> 21         0.36302

 Excited State  12:      Singlet-A      9.8687 eV  125.63 nm  f=0.1622  <S**2>=0.000
      11 -> 15        -0.33270
      11 -> 17        -0.18424
      12 -> 15         0.51614
      12 -> 17         0.16504
      12 -> 19         0.11304

 Excited State  13:      Singlet-A     10.0457 eV  123.42 nm  f=0.0004  <S**2>=0.000
       7 -> 15        -0.12192
      10 -> 15         0.61021
      10 -> 16         0.15584
      10 -> 17         0.13040
      13 -> 15        -0.16066
      13 -> 21         0.12114

 Excited State  14:      Singlet-A     10.1246 eV  122.46 nm  f=0.0643  <S**2>=0.000
      10 -> 16        -0.10882
      13 -> 20         0.50893
      13 -> 21         0.45535

 Excited State  15:      Singlet-A     10.2039 eV  121.51 nm  f=0.1501  <S**2>=0.000
      11 -> 16         0.43206
      11 -> 17         0.14366
      11 -> 18         0.19209
      12 -> 16         0.41379
      12 -> 17         0.19417

 The electronic state is 1-A.
 Alpha  occ. eigenvalues --   -1.93349  -1.21655  -0.93847  -0.81524  -0.79290
 Alpha  occ. eigenvalues --   -0.67646  -0.64512  -0.54011  -0.52018  -0.42580
 Alpha  occ. eigenvalues --   -0.41896  -0.40454  -0.28942
 Alpha virt. eigenvalues --    0.13298   0.18434   0.20362   0.26415   0.28455
 Alpha virt. eigenvalues --    0.30454   0.31923   0.32940   0.34678   0.44478
 Alpha virt. eigenvalues --    0.47290

 Mulliken charges:
               1
     1  C   -0.179025
     2  C   -1.986752
     3  O    3.162929
     4  C   -1.976381
     5  C   -0.214014
     6  H    0.247518
     7  H    0.351379
     8  H    0.346316
     9  H    0.248029
 Sum of Mulliken charges =   0.00000

 Dipole moment (field-independent basis, Debye):
    X=            -10.5170    Y=             -4.0097    Z=              0.0748  Tot=             11.2556
 N-N= 1.044674115879D+02 E-N=-1.700345441638D+02  KE=-1.550637277636D+01
 Orbital energies and kinetic energies (alpha):
                                 1                 2
   1         O                -1.933493         -1.374265
   2         O                -1.216554         -1.098130
   3         O                -0.938470         -0.867224
   4         O                -0.815237         -0.605680
   5         O                -0.792900         -0.660142
   6         O                -0.676465         -0.582751
   7         O                -0.645115         -0.529022

 Normal termination of Gaussian 09 at Tue Dec 15 17:07:13 2015.
