 Gaussian 09, Revision D.01,
 Gaussian 09:  ES64L-G09RevD.01 24-Apr-2013

 -------------------------------------------------------
 #P B3LYP/3-21G CIS(Singlets,NStates=15) pop(full) force
 -------------------------------------------------------

 --------
 FuranDFT
 --------
 Symbolic Z-matrix:
 Charge =  0 Multiplicity = 1

                         Standard orientation:
 ---------------------------------------------------------------------
 Center     Atomic      Atomic             Coordinates (Angstroms)
 Number     Number       Type             X           Y           Z
 ---------------------------------------------------------------------
      1          6           0       -0.854886    0.855175    0.007371
      2          6           0       -1.039381   -0.523795   -0.018260
      3          8           0        0.161980   -1.110345    0.011342
      4          6           0        1.149741   -0.200510   -0.033841
      5          6           0        0.565601    1.020617    0.019370
      6          1           0        1.073919    1.971679   -0.025861
      7          1           0        2.154652   -0.508292    0.067459
      8          1           0       -1.846721   -1.133546    0.036402
      9          1           0       -1.604135    1.643992   -0.016579
 ---------------------------------------------------------------------

 SCF Done:  E(RB3LYP) =  -228.741398570     A.U. after   15 cycles

 Excitation energies and oscillator strengths:

 Excited State   1:      Singlet-A      7.1625 eV  173.10 nm  f=0.0020  <S**2>=0.000
      17 -> 19         0.52026
      18 -> 20         0.46704
 This state for optimization and/or second-order correction.
 Total Energy, E(CIS) =  -228.478182677
 Copying the excited state density for this state as the 1-particle RhoCI density.

 Excited State   2:      Singlet-A      7.3946 eV  167.67 nm  f=0.2440  <S**2>=0.000
      18 -> 19         0.68004

 Excited State   3:      Singlet-A      8.5837 eV  144.44 nm  f=0.0053  <S**2>=0.000
      16 -> 19         0.70175

 Excited State   4:      Singlet-A      8.8495 eV  140.10 nm  f=0.0006  <S**2>=0.000
      18 -> 21         0.69613

 Excited State   5:      Singlet-A      9.4269 eV  131.52 nm  f=0.2006  <S**2>=0.000
      17 -> 19         0.23765
      17 -> 20         0.35225
      18 -> 20        -0.27551
      18 -> 22         0.44516

 Excited State   6:      Singlet-A      9.5366 eV  130.01 nm  f=0.1210  <S**2>=0.000
      17 -> 20         0.51678
      18 -> 22        -0.44076

 Excited State   7:      Singlet-A      9.6324 eV  128.72 nm  f=0.3640  <S**2>=0.000
      15 -> 19         0.10917
      17 -> 19        -0.33700
      17 -> 20         0.25343
      17 -> 21        -0.14224
      18 -> 20         0.38168
      18 -> 22         0.28236

 Excited State   8:      Singlet-A      9.9347 eV  124.80 nm  f=0.0141  <S**2>=0.000
      15 -> 19         0.41149
      16 -> 20        -0.11265
      17 -> 21         0.45741
      18 -> 23        -0.24724
      18 -> 24         0.14726

 Excited State   9:      Singlet-A      9.9772 eV  124.27 nm  f=0.0414  <S**2>=0.000
      15 -> 19         0.47670
      16 -> 20        -0.16325
      17 -> 19         0.10336
      17 -> 21        -0.44002
      18 -> 20        -0.10977

 Excited State  10:      Singlet-A     10.1604 eV  122.03 nm  f=0.0048  <S**2>=0.000
      14 -> 19        -0.27120
      16 -> 20        -0.32199
      17 -> 21         0.20047
      18 -> 23         0.47883
      18 -> 24        -0.18272

 Excited State  11:      Singlet-A     10.2235 eV  121.27 nm  f=0.0146  <S**2>=0.000
      14 -> 19         0.29658
      15 -> 19         0.27475
      16 -> 20         0.42698
      17 -> 21         0.10424
      18 -> 23         0.30358
      18 -> 24        -0.18271

 Excited State  12:      Singlet-A     10.4480 eV  118.67 nm  f=0.0005  <S**2>=0.000
      18 -> 23         0.30251
      18 -> 24         0.62234

 Excited State  13:      Singlet-A     10.6064 eV  116.90 nm  f=0.0014  <S**2>=0.000
      14 -> 19         0.56277
      16 -> 20        -0.40116

 Excited State  14:      Singlet-A     10.6562 eV  116.35 nm  f=0.0151  <S**2>=0.000
      17 -> 22         0.68811

 Excited State  15:      Singlet-A     11.0285 eV  112.42 nm  f=0.0017  <S**2>=0.000
      18 -> 25         0.68752

 The electronic state is 1-A.
 Alpha  occ. eigenvalues --  -19.11324 -10.17294 -10.17149 -10.12640 -10.12057
 Alpha  occ. eigenvalues --   -1.14015  -0.79725  -0.76029  -0.60293  -0.57990
 Alpha  occ. eigenvalues --   -0.54242  -0.46584  -0.45531  -0.41586  -0.39925
 Alpha  occ. eigenvalues --   -0.35352  -0.27383  -0.23146
 Alpha virt. eigenvalues --    0.02189   0.07854   0.14040   0.15921   0.18689
 Alpha virt. eigenvalues --    0.19194   0.22298   0.23544   0.35760   0.41009
 Alpha virt. eigenvalues --    0.48576   0.68840   0.69965   0.70680   0.74578

 Mulliken charges:
               1
     1  C   -0.250369
     2  C    0.096680
     3  O   -0.503018
     4  C    0.109042
     5  C   -0.264674
     6  H    0.183821
     7  H    0.221150
     8  H    0.222224
     9  H    0.185144
 Sum of Mulliken charges =   0.00000

 Dipole moment (field-independent basis, Debye):
    X=             -0.0671    Y=              0.5433    Z=              0.0562  Tot=              0.5503
 Quadrupole moment (field-independent basis, Debye-Ang):
   XX=            -23.6882   YY=            -27.8992   ZZ=            -31.7230
   XY=              0.5375   XZ=              0.1132   YZ=             -0.1854

 Normal termination of Gaussian 09 at Tue Dec 15 16:23:56 2015.
