 Gaussian 09, Revision D.01,
 Gaussian 09:  ES64L-G09RevD.01 24-Apr-2013

 ------------------------------------------------------------
 #P AM1(Input,print) CIS(Singlets,NStates=15) pop(full) force
 ------------------------------------------------------------

 -----------------
 AM1-Reparam Input
 -----------------
 Symbolic Z-matrix:
 Charge =  0 Multiplicity = 1

                         Standard orientation:
 ---------------------------------------------------------------------
 Center     Atomic      Atomic             Coordinates (Angstroms)
 Number     Number       Type             X           Y           Z
 ---------------------------------------------------------------------
      1          6           0       -0.589631    1.054575   -0.016792
      2          6           0       -1.111765   -0.243624    0.022295
      3          8           0       -0.166484   -1.104616   -0.019738
      4          6           0        1.022811   -0.500155    0.018573
      5          6           0        0.862725    0.830863    0.001271
      6          1           0        1.536019    1.614345    0.031805
      7          1           0        1.917824   -1.073725   -0.032990
      8          1           0       -2.131600   -0.546810    0.034210
      9          1           0       -1.095214    1.993169   -0.027213
 ---------------------------------------------------------------------

 SCF Done:  E(RAM1) =   1.69152612004     A.U. after   13 cycles

 Excitation energies and oscillator strengths:

 Excited State   1:      Singlet-A      5.2916 eV  234.30 nm  f=0.3614  <S**2>=0.000
      13 -> 14         0.69660
 This state for optimization and/or second-order correction.
 Total Energy, E(CIS) =   1.88598935505
 Copying the excited state density for this state as the 1-particle RhoCI density.

 Excited State   2:      Singlet-A      6.3110 eV  196.46 nm  f=0.0088  <S**2>=0.000
      13 -> 15         0.64637
      13 -> 17         0.25463

 Excited State   3:      Singlet-A      6.6457 eV  186.56 nm  f=0.0017  <S**2>=0.000
      12 -> 14        -0.10541
      13 -> 16         0.60602
      13 -> 18        -0.12170
      13 -> 19        -0.29346

 Excited State   4:      Singlet-A      6.7896 eV  182.61 nm  f=0.0005  <S**2>=0.000
      12 -> 14         0.67845
      13 -> 16         0.12813

 Excited State   5:      Singlet-A      7.3242 eV  169.28 nm  f=0.0002  <S**2>=0.000
      12 -> 14        -0.12635
      13 -> 16         0.21047
      13 -> 18        -0.16081
      13 -> 19         0.58395
      13 -> 20         0.12961
      13 -> 21         0.19089

 Excited State   6:      Singlet-A      7.9531 eV  155.89 nm  f=0.0192  <S**2>=0.000
      10 -> 14         0.15009
      13 -> 15        -0.21893
      13 -> 17         0.62042
      13 -> 20        -0.11779

 Excited State   7:      Singlet-A      8.2396 eV  150.47 nm  f=0.0005  <S**2>=0.000
      10 -> 14         0.64585
      13 -> 17        -0.16796
      13 -> 18        -0.17856

 Excited State   8:      Singlet-A      8.4146 eV  147.34 nm  f=0.0002  <S**2>=0.000
      10 -> 14         0.21180
      13 -> 16         0.16934
      13 -> 18         0.61973
      13 -> 19         0.10452
      13 -> 21        -0.10084

 Excited State   9:      Singlet-A      8.5555 eV  144.92 nm  f=0.1163  <S**2>=0.000
      11 -> 14         0.68192

 Excited State  10:      Singlet-A      8.7378 eV  141.89 nm  f=0.0043  <S**2>=0.000
      13 -> 18         0.15584
      13 -> 19        -0.10933
      13 -> 20        -0.11279
      13 -> 21         0.65856

 Excited State  11:      Singlet-A      8.9884 eV  137.94 nm  f=0.0808  <S**2>=0.000
      10 -> 14         0.10221
      13 -> 19        -0.17994
      13 -> 20         0.65747

 Excited State  12:      Singlet-A      9.3863 eV  132.09 nm  f=0.0845  <S**2>=0.000
       8 -> 15         0.11402
      10 -> 15        -0.16248
      10 -> 17        -0.19733
      12 -> 15         0.24226
      12 -> 16        -0.32560
      12 -> 19         0.38046
      12 -> 21         0.13767

 Excited State  13:      Singlet-A      9.6433 eV  128.57 nm  f=0.0087  <S**2>=0.000
      11 -> 15         0.55500
      11 -> 17         0.13400
      12 -> 15         0.27069
      12 -> 16         0.13079
      12 -> 19        -0.12344
      13 -> 16        -0.11324

 Excited State  14:      Singlet-A      9.7969 eV  126.55 nm  f=0.0298  <S**2>=0.000
      11 -> 15        -0.32261
      12 -> 15         0.49206
      12 -> 16         0.17634
      12 -> 17         0.15972
      12 -> 19        -0.12773

 Excited State  15:      Singlet-A     10.0758 eV  123.05 nm  f=0.0307  <S**2>=0.000
       8 -> 15        -0.14031
      11 -> 16         0.15191
      12 -> 16         0.44374
      12 -> 18        -0.19260
      12 -> 19         0.35739
      12 -> 20         0.13305
      12 -> 21         0.16396

 The electronic state is 1-A.
 Alpha  occ. eigenvalues --   -1.93853  -1.21697  -1.01017  -0.83407  -0.80517
 Alpha  occ. eigenvalues --   -0.69646  -0.64976  -0.55969  -0.51716  -0.46017
 Alpha  occ. eigenvalues --   -0.43487  -0.41405  -0.28907
 Alpha virt. eigenvalues --    0.10822   0.17372   0.18787   0.24294   0.26072
 Alpha virt. eigenvalues --    0.26954   0.27888   0.28305   0.40260   0.48367
 Alpha virt. eigenvalues --    0.54165

 Mulliken charges:
               1
     1  C   -0.176910
     2  C   -1.986674
     3  O    3.187476
     4  C   -1.948236
     5  C   -0.086921
     6  H    0.179458
     7  H    0.316700
     8  H    0.326952
     9  H    0.188155
 Sum of Mulliken charges =   0.00000

 Dipole moment (field-independent basis, Debye):
    X=             -1.3348    Y=             -9.0299    Z=             -0.5850  Tot=              9.1467
 N-N= 1.046120926694D+02 E-N=-1.703840805135D+02  KE=-1.580473756165D+01
 Orbital energies and kinetic energies (alpha):
                                 1                 2
   1         O                -1.938534         -1.430653
   2         O                -1.216974         -1.090037
   3         O                -1.010165         -0.909934
   4         O                -0.834073         -0.638698
   5         O                -0.805171         -0.715170
   6         O                -0.696463         -0.583338
   7         O                -0.649764         -0.513540

 Normal termination of Gaussian 09 at Tue Dec 15 17:07:04 2015.
