 Gaussian 09, Revision D.01,
 Gaussian 09:  ES64L-G09RevD.01 24-Apr-2013

 ------------------------------------------------------------
 #P AM1(Input,print) CIS(Singlets,NStates=15) pop(full) force
 ------------------------------------------------------------

 -----------------
 AM1-Reparam Input
 -----------------
 Symbolic Z-matrix:
 Charge =  0 Multiplicity = 1

                         Standard orientation:
 ---------------------------------------------------------------------
 Center     Atomic      Atomic             Coordinates (Angstroms)
 Number     Number       Type             X           Y           Z
 ---------------------------------------------------------------------
      1          6           0        0.962296    0.749562    0.007155
      2          6           0        0.974707   -0.643081   -0.023719
      3          8           0       -0.345927   -1.140192    0.028641
      4          6           0       -1.173187   -0.023624   -0.018379
      5          6           0       -0.399275    1.114596   -0.003523
      6          1           0       -0.804527    2.105082    0.016803
      7          1           0       -2.203463   -0.163177   -0.018833
      8          1           0        1.747143   -1.331401   -0.043330
      9          1           0        1.841019    1.326315    0.047029
 ---------------------------------------------------------------------

 SCF Done:  E(RAM1) =   2.68462772410     A.U. after   14 cycles

 Excitation energies and oscillator strengths:

 Excited State   1:      Singlet-A      5.4289 eV  228.38 nm  f=0.3387  <S**2>=0.000
      13 -> 14         0.69318
 This state for optimization and/or second-order correction.
 Total Energy, E(CIS) =   2.88413702096
 Copying the excited state density for this state as the 1-particle RhoCI density.

 Excited State   2:      Singlet-A      6.4393 eV  192.54 nm  f=0.0041  <S**2>=0.000
      13 -> 15         0.60169
      13 -> 16         0.25526
      13 -> 17         0.22405

 Excited State   3:      Singlet-A      6.6351 eV  186.86 nm  f=0.0002  <S**2>=0.000
      11 -> 15        -0.11273
      13 -> 15        -0.25789
      13 -> 16         0.60067
      13 -> 18         0.10662
      13 -> 19         0.17219

 Excited State   4:      Singlet-A      7.0840 eV  175.02 nm  f=0.0002  <S**2>=0.000
       9 -> 14         0.11912
      12 -> 14         0.68988

 Excited State   5:      Singlet-A      7.8527 eV  157.89 nm  f=0.0106  <S**2>=0.000
      10 -> 14         0.50927
      11 -> 14        -0.19942
      13 -> 17        -0.34665
      13 -> 18        -0.15520
      13 -> 21        -0.15141

 Excited State   6:      Singlet-A      7.9680 eV  155.60 nm  f=0.0002  <S**2>=0.000
      10 -> 14         0.36956
      11 -> 14        -0.13880
      13 -> 17         0.25822
      13 -> 18         0.38894
      13 -> 21         0.31472

 Excited State   7:      Singlet-A      8.0866 eV  153.32 nm  f=0.0064  <S**2>=0.000
      10 -> 14         0.17850
      11 -> 15        -0.10927
      13 -> 15        -0.14865
      13 -> 17         0.49187
      13 -> 18        -0.32195
      13 -> 21        -0.25617

 Excited State   8:      Singlet-A      8.7140 eV  142.28 nm  f=0.0003  <S**2>=0.000
      13 -> 16        -0.11325
      13 -> 18        -0.13612
      13 -> 19         0.65660

 Excited State   9:      Singlet-A      8.7870 eV  141.10 nm  f=0.0983  <S**2>=0.000
      10 -> 14         0.24873
      11 -> 14         0.64041

 Excited State  10:      Singlet-A      9.1359 eV  135.71 nm  f=0.0006  <S**2>=0.000
      13 -> 18        -0.42979
      13 -> 19        -0.14631
      13 -> 21         0.52563

 Excited State  11:      Singlet-A      9.2652 eV  133.82 nm  f=0.0261  <S**2>=0.000
       8 -> 15        -0.12950
       9 -> 16         0.11303
      10 -> 15        -0.26438
      10 -> 16        -0.11158
      10 -> 17        -0.29241
      11 -> 17         0.10791
      12 -> 16         0.28854
      12 -> 17         0.13403
      12 -> 18         0.30730
      12 -> 21         0.11778

 Excited State  12:      Singlet-A      9.6130 eV  128.98 nm  f=0.1079  <S**2>=0.000
      13 -> 20         0.68998

 Excited State  13:      Singlet-A      9.7191 eV  127.57 nm  f=0.1738  <S**2>=0.000
       8 -> 15         0.10130
      10 -> 15        -0.14153
      11 -> 15         0.13507
      12 -> 15         0.56733
      12 -> 16        -0.22274
      12 -> 17         0.17168
      12 -> 19        -0.12526

 Excited State  14:      Singlet-A      9.9023 eV  125.21 nm  f=0.0831  <S**2>=0.000
       8 -> 16         0.10886
      10 -> 16        -0.11926
      11 -> 15         0.37091
      11 -> 16         0.27203
      12 -> 15        -0.23114
      12 -> 16        -0.33707
      12 -> 18         0.11490
      13 -> 16         0.11766

 Excited State  15:      Singlet-A      9.9984 eV  124.00 nm  f=0.0898  <S**2>=0.000
       8 -> 16        -0.15154
      10 -> 15         0.20781
      11 -> 15         0.42221
      12 -> 15         0.13273
      12 -> 16         0.32415
      12 -> 18        -0.10048
      13 -> 15        -0.10695

 The electronic state is 1-A.
 Alpha  occ. eigenvalues --   -1.73147  -1.12763  -0.92186  -0.78528  -0.75039
 Alpha  occ. eigenvalues --   -0.66124  -0.61492  -0.53577  -0.49714  -0.42759
 Alpha  occ. eigenvalues --   -0.42066  -0.40083  -0.27867
 Alpha virt. eigenvalues --    0.12894   0.19174   0.19855   0.25316   0.27984
 Alpha virt. eigenvalues --    0.29253   0.31097   0.32113   0.45211   0.54293
 Alpha virt. eigenvalues --    0.58083

 Mulliken charges:
               1
     1  C   -0.039529
     2  C   -2.010230
     3  O    3.351357
     4  C   -2.008617
     5  C   -0.061437
     6  H    0.119294
     7  H    0.269176
     8  H    0.261123
     9  H    0.118863
 Sum of Mulliken charges =   0.00000

 Dipole moment (field-independent basis, Debye):
    X=             -3.3552    Y=            -10.8353    Z=              0.7123  Tot=             11.3652
 N-N= 1.030471176256D+02 E-N=-1.675827210651D+02  KE=-1.483533915789D+01
 Orbital energies and kinetic energies (alpha):
                                 1                 2
   1         O                -1.731469         -1.208122
   2         O                -1.127633         -1.003614
   3         O                -0.921855         -0.866945
   4         O                -0.785280         -0.586817
   5         O                -0.750390         -0.683486
   6         O                -0.661242         -0.565990
   7         O                -0.614922         -0.514285

 Normal termination of Gaussian 09 at Tue Dec 15 17:05:25 2015.
