 Gaussian 09, Revision D.01,
 Gaussian 09:  ES64L-G09RevD.01 24-Apr-2013

 ------------------------------------------------------------
 #P AM1(Input,print) CIS(Singlets,NStates=15) pop(full) force
 ------------------------------------------------------------

 -----------------
 AM1-Reparam Input
 -----------------
 Symbolic Z-matrix:
 Charge =  0 Multiplicity = 1

                         Standard orientation:
 ---------------------------------------------------------------------
 Center     Atomic      Atomic             Coordinates (Angstroms)
 Number     Number       Type             X           Y           Z
 ---------------------------------------------------------------------
      1          6           0        0.961004    0.714901    0.003316
      2          6           0        0.937369   -0.618462   -0.000946
      3          8           0       -0.343133   -1.143220   -0.015483
      4          6           0       -1.091747   -0.002208    0.030209
      5          6           0       -0.447050    1.116828   -0.006390
      6          1           0       -0.799831    2.085926   -0.007749
      7          1           0       -2.187945   -0.289368   -0.041894
      8          1           0        1.755621   -1.305255    0.050051
      9          1           0        1.819766    1.388099   -0.033679
 ---------------------------------------------------------------------

 SCF Done:  E(RAM1) =   2.89306208157     A.U. after   13 cycles

 Excitation energies and oscillator strengths:

 Excited State   1:      Singlet-A      5.0894 eV  243.61 nm  f=0.3403  <S**2>=0.000
      13 -> 14         0.69699
 This state for optimization and/or second-order correction.
 Total Energy, E(CIS) =   3.08009286827
 Copying the excited state density for this state as the 1-particle RhoCI density.

 Excited State   2:      Singlet-A      5.5525 eV  223.30 nm  f=0.0001  <S**2>=0.000
      11 -> 15         0.10817
      13 -> 15         0.67995

 Excited State   3:      Singlet-A      6.2669 eV  197.84 nm  f=0.0015  <S**2>=0.000
      11 -> 16        -0.10453
      13 -> 16         0.65508
      13 -> 17        -0.11147
      13 -> 18        -0.19048

 Excited State   4:      Singlet-A      6.5632 eV  188.91 nm  f=0.0000  <S**2>=0.000
      12 -> 14         0.69890

 Excited State   5:      Singlet-A      7.4018 eV  167.51 nm  f=0.0044  <S**2>=0.000
      13 -> 15        -0.10577
      13 -> 17        -0.35994
      13 -> 18         0.49003
      13 -> 20        -0.14174
      13 -> 21         0.27636

 Excited State   6:      Singlet-A      7.7281 eV  160.43 nm  f=0.0184  <S**2>=0.000
      10 -> 14         0.21345
      13 -> 16         0.16361
      13 -> 17         0.54859
      13 -> 18         0.28367
      13 -> 21         0.14077

 Excited State   7:      Singlet-A      7.9951 eV  155.08 nm  f=0.0003  <S**2>=0.000
      10 -> 14         0.65288
      11 -> 14        -0.12109
      13 -> 17        -0.19844

 Excited State   8:      Singlet-A      8.3799 eV  147.95 nm  f=0.0005  <S**2>=0.000
      13 -> 18         0.18135
      13 -> 19         0.58440
      13 -> 20         0.22027
      13 -> 21        -0.24432

 Excited State   9:      Singlet-A      8.5177 eV  145.56 nm  f=0.0707  <S**2>=0.000
       8 -> 15         0.15988
      10 -> 14         0.10532
      11 -> 14         0.51134
      12 -> 15         0.40946

 Excited State  10:      Singlet-A      8.8121 eV  140.70 nm  f=0.1893  <S**2>=0.000
       8 -> 15         0.11332
       8 -> 16         0.10110
      11 -> 14        -0.39711
      12 -> 15         0.43111
      12 -> 16        -0.21998
      12 -> 18         0.15053

 Excited State  11:      Singlet-A      8.8562 eV  140.00 nm  f=0.0209  <S**2>=0.000
      13 -> 18        -0.28854
      13 -> 19         0.36829
      13 -> 20        -0.26287
      13 -> 21         0.42504

 Excited State  12:      Singlet-A      9.2401 eV  134.18 nm  f=0.0785  <S**2>=0.000
      13 -> 20         0.57568
      13 -> 21         0.37996

 Excited State  13:      Singlet-A      9.4562 eV  131.11 nm  f=0.0592  <S**2>=0.000
      10 -> 15         0.11918
      10 -> 17        -0.16373
      11 -> 14        -0.14670
      11 -> 15        -0.34182
      12 -> 15         0.21667
      12 -> 16         0.37969
      12 -> 18        -0.23893
      12 -> 21        -0.10541

 Excited State  14:      Singlet-A      9.4695 eV  130.93 nm  f=0.0164  <S**2>=0.000
       7 -> 15        -0.12879
      10 -> 15         0.15114
      11 -> 15         0.56842
      12 -> 15         0.13685
      12 -> 16         0.20977
      12 -> 18        -0.12810
      13 -> 15        -0.11445

 Excited State  15:      Singlet-A      9.8839 eV  125.44 nm  f=0.0783  <S**2>=0.000
      10 -> 15        -0.11393
      10 -> 16        -0.17464
      10 -> 17         0.20811
      11 -> 16         0.19574
      12 -> 16         0.40368
      12 -> 17        -0.15806
      12 -> 18         0.23265
      12 -> 19        -0.14036
      12 -> 20        -0.15904
      12 -> 21         0.14101

 The electronic state is 1-A.
 Alpha  occ. eigenvalues --   -1.71097  -1.12410  -0.91723  -0.78784  -0.74452
 Alpha  occ. eigenvalues --   -0.66219  -0.63200  -0.50741  -0.49212  -0.42877
 Alpha  occ. eigenvalues --   -0.42073  -0.38167  -0.25914
 Alpha virt. eigenvalues --    0.12957   0.16442   0.19892   0.27233   0.28470
 Alpha virt. eigenvalues --    0.30173   0.31658   0.32784   0.36252   0.46279
 Alpha virt. eigenvalues --    0.48498

 Mulliken charges:
               1
     1  C   -0.139582
     2  C   -1.922818
     3  O    3.183198
     4  C   -1.873876
     5  C   -0.149356
     6  H    0.168575
     7  H    0.270408
     8  H    0.296752
     9  H    0.166699
 Sum of Mulliken charges =   0.00000

 Dipole moment (field-independent basis, Debye):
    X=             -3.5254    Y=            -11.0189    Z=             -0.4583  Tot=             11.5782
 N-N= 1.040924960371D+02 E-N=-1.694786906446D+02  KE=-1.478281105130D+01
 Orbital energies and kinetic energies (alpha):
                                 1                 2
   1         O                -1.710973         -1.201469
   2         O                -1.124099         -1.005295
   3         O                -0.917227         -0.860092
   4         O                -0.787841         -0.588447
   5         O                -0.744518         -0.670202
   6         O                -0.662186         -0.562934
   7         O                -0.631997         -0.526596

 Normal termination of Gaussian 09 at Tue Dec 15 17:05:58 2015.
