 Gaussian 09, Revision D.01,
 Gaussian 09:  ES64L-G09RevD.01 24-Apr-2013

 ------------------------------------------------------------
 #P AM1(Input,print) CIS(Singlets,NStates=15) pop(full) force
 ------------------------------------------------------------

 -----------------
 AM1-Reparam Input
 -----------------
 Symbolic Z-matrix:
 Charge =  0 Multiplicity = 1

                         Standard orientation:
 ---------------------------------------------------------------------
 Center     Atomic      Atomic             Coordinates (Angstroms)
 Number     Number       Type             X           Y           Z
 ---------------------------------------------------------------------
      1          6           0       -0.604638    1.068931   -0.015413
      2          6           0       -1.152340   -0.264023    0.032375
      3          8           0       -0.149541   -1.118586   -0.035039
      4          6           0        1.069541   -0.492961    0.036707
      5          6           0        0.853211    0.849429   -0.018215
      6          1           0        1.528250    1.653489    0.034645
      7          1           0        1.939498   -1.071980    0.000474
      8          1           0       -2.163899   -0.586992    0.032373
      9          1           0       -1.102162    1.985913    0.000107
 ---------------------------------------------------------------------

 SCF Done:  E(RAM1) =   2.07903399728     A.U. after   13 cycles

 Excitation energies and oscillator strengths:

 Excited State   1:      Singlet-A      5.4090 eV  229.22 nm  f=0.3801  <S**2>=0.000
      13 -> 14         0.69718
 This state for optimization and/or second-order correction.
 Total Energy, E(CIS) =   2.27781229232
 Copying the excited state density for this state as the 1-particle RhoCI density.

 Excited State   2:      Singlet-A      6.6926 eV  185.26 nm  f=0.0056  <S**2>=0.000
      13 -> 15         0.66518
      13 -> 17        -0.19068

 Excited State   3:      Singlet-A      7.0028 eV  177.05 nm  f=0.0011  <S**2>=0.000
      12 -> 14         0.69889

 Excited State   4:      Singlet-A      7.0494 eV  175.88 nm  f=0.0013  <S**2>=0.000
      13 -> 16         0.65046
      13 -> 18        -0.18943
      13 -> 19         0.10577
      13 -> 20        -0.10418

 Excited State   5:      Singlet-A      8.0573 eV  153.88 nm  f=0.0001  <S**2>=0.000
      11 -> 15         0.10324
      13 -> 16         0.15635
      13 -> 17        -0.27200
      13 -> 18         0.50064
      13 -> 20         0.18510
      13 -> 21        -0.27510

 Excited State   6:      Singlet-A      8.2101 eV  151.01 nm  f=0.0056  <S**2>=0.000
      10 -> 14         0.68585
      13 -> 18        -0.11605

 Excited State   7:      Singlet-A      8.7569 eV  141.58 nm  f=0.0917  <S**2>=0.000
      11 -> 14         0.61632
      13 -> 17        -0.25763
      13 -> 18        -0.14082

 Excited State   8:      Singlet-A      8.8042 eV  140.82 nm  f=0.0349  <S**2>=0.000
      10 -> 14         0.11524
      11 -> 14         0.29774
      11 -> 16         0.10632
      13 -> 15         0.11762
      13 -> 17         0.52973
      13 -> 18         0.25752

 Excited State   9:      Singlet-A      9.3621 eV  132.43 nm  f=0.0015  <S**2>=0.000
      11 -> 15        -0.13715
      13 -> 19         0.61099
      13 -> 20        -0.27596

 Excited State  10:      Singlet-A      9.5948 eV  129.22 nm  f=0.0073  <S**2>=0.000
      13 -> 17         0.12725
      13 -> 18        -0.29378
      13 -> 19         0.22058
      13 -> 20         0.44551
      13 -> 21        -0.36474

 Excited State  11:      Singlet-A      9.9153 eV  125.04 nm  f=0.0477  <S**2>=0.000
      10 -> 15        -0.13569
      10 -> 16        -0.11693
      10 -> 17         0.15840
      10 -> 18         0.11685
      12 -> 15         0.30628
      12 -> 16        -0.29658
      12 -> 17        -0.21398
      12 -> 18         0.29327
      13 -> 20         0.14888
      13 -> 21         0.12357

 Excited State  12:      Singlet-A      9.9769 eV  124.27 nm  f=0.0894  <S**2>=0.000
      11 -> 15        -0.12352
      11 -> 16         0.10963
      12 -> 16         0.10439
      13 -> 18         0.10007
      13 -> 19         0.14630
      13 -> 20         0.37301
      13 -> 21         0.49583

 Excited State  13:      Singlet-A     10.2617 eV  120.82 nm  f=0.0079  <S**2>=0.000
      10 -> 15        -0.10751
      11 -> 15         0.50027
      12 -> 15        -0.33786
      12 -> 16        -0.17135
      13 -> 15         0.10619
      13 -> 19         0.10517

 Excited State  14:      Singlet-A     10.2710 eV  120.71 nm  f=0.0234  <S**2>=0.000
      10 -> 15         0.10508
      11 -> 15         0.37282
      12 -> 15         0.38250
      12 -> 16         0.33543
      12 -> 18        -0.11199

 Excited State  15:      Singlet-A     10.5335 eV  117.70 nm  f=0.2133  <S**2>=0.000
       9 -> 16        -0.11137
      10 -> 15        -0.38717
      10 -> 17         0.17221
      12 -> 15        -0.16550
      12 -> 16         0.41736
      12 -> 18         0.15012
      12 -> 19         0.15984

 The electronic state is 1-A.
 Alpha  occ. eigenvalues --   -1.94218  -1.17035  -0.93383  -0.81327  -0.78909
 Alpha  occ. eigenvalues --   -0.69987  -0.65724  -0.57712  -0.54321  -0.47146
 Alpha  occ. eigenvalues --   -0.45401  -0.43120  -0.30615
 Alpha virt. eigenvalues --    0.09353   0.17486   0.18861   0.25130   0.26433
 Alpha virt. eigenvalues --    0.28295   0.29480   0.30003   0.33079   0.40434
 Alpha virt. eigenvalues --    0.46161

 Mulliken charges:
               1
     1  C   -0.185653
     2  C   -1.941736
     3  O    3.231845
     4  C   -1.892378
     5  C   -0.098170
     6  H    0.161156
     7  H    0.272231
     8  H    0.285668
     9  H    0.167037
 Sum of Mulliken charges =   0.00000

 Dipole moment (field-independent basis, Debye):
    X=             -1.1632    Y=             -9.6039    Z=             -0.9532  Tot=              9.7209
 N-N= 1.038089529573D+02 E-N=-1.685770488162D+02  KE=-1.530482832579D+01
 Orbital energies and kinetic energies (alpha):
                                 1                 2
   1         O                -1.942184         -1.370749
   2         O                -1.170352         -1.025149
   3         O                -0.933827         -0.864985
   4         O                -0.813273         -0.575908
   5         O                -0.789087         -0.698042
   6         O                -0.699869         -0.597301
   7         O                -0.657243         -0.515645

 Normal termination of Gaussian 09 at Tue Dec 15 17:09:18 2015.
