 Gaussian 09, Revision D.01,
 Gaussian 09:  ES64L-G09RevD.01 24-Apr-2013

 ------------------------------------------------------------
 #P AM1(Input,print) CIS(Singlets,NStates=15) pop(full) force
 ------------------------------------------------------------

 -----------------
 AM1-Reparam Input
 -----------------
 Symbolic Z-matrix:
 Charge =  0 Multiplicity = 1

                         Standard orientation:
 ---------------------------------------------------------------------
 Center     Atomic      Atomic             Coordinates (Angstroms)
 Number     Number       Type             X           Y           Z
 ---------------------------------------------------------------------
      1          6           0        0.804052    0.840071    0.001280
      2          6           0        1.027364   -0.520018   -0.011118
      3          8           0       -0.188200   -1.107461    0.028342
      4          6           0       -1.102251   -0.202701   -0.025629
      5          6           0       -0.527351    1.054121   -0.014606
      6          1           0       -1.063821    1.971322    0.073959
      7          1           0       -2.176746   -0.569906    0.004219
      8          1           0        1.924076   -1.135306   -0.049914
      9          1           0        1.611208    1.564739    0.045441
 ---------------------------------------------------------------------

 SCF Done:  E(RAM1) =   1.69125719721     A.U. after   13 cycles

 Excitation energies and oscillator strengths:

 Excited State   1:      Singlet-A      5.7984 eV  213.83 nm  f=0.3043  <S**2>=0.000
      10 -> 17        -0.11472
      13 -> 14         0.68673
 This state for optimization and/or second-order correction.
 Total Energy, E(CIS) =   1.90434371378
 Copying the excited state density for this state as the 1-particle RhoCI density.

 Excited State   2:      Singlet-A      6.4930 eV  190.95 nm  f=0.0044  <S**2>=0.000
      11 -> 15        -0.10912
      13 -> 15         0.63281
      13 -> 16         0.12807
      13 -> 17         0.22737

 Excited State   3:      Singlet-A      7.0909 eV  174.85 nm  f=0.0052  <S**2>=0.000
      11 -> 16         0.10045
      13 -> 15        -0.14204
      13 -> 16         0.61631
      13 -> 17         0.14131
      13 -> 18        -0.14203
      13 -> 21        -0.11762

 Excited State   4:      Singlet-A      7.4645 eV  166.10 nm  f=0.0009  <S**2>=0.000
       9 -> 14         0.10513
      11 -> 14        -0.38322
      12 -> 14         0.54677
      13 -> 21         0.16213

 Excited State   5:      Singlet-A      7.9157 eV  156.63 nm  f=0.0211  <S**2>=0.000
      10 -> 14         0.35761
      12 -> 14        -0.13217
      13 -> 15        -0.15095
      13 -> 16        -0.10761
      13 -> 17         0.46976
      13 -> 21         0.28084

 Excited State   6:      Singlet-A      8.0574 eV  153.88 nm  f=0.0034  <S**2>=0.000
      10 -> 14         0.50480
      12 -> 14        -0.14289
      13 -> 17        -0.40653

 Excited State   7:      Singlet-A      8.0957 eV  153.15 nm  f=0.0025  <S**2>=0.000
      10 -> 14        -0.27271
      11 -> 14         0.13419
      13 -> 17        -0.12128
      13 -> 20         0.17128
      13 -> 21         0.57192

 Excited State   8:      Singlet-A      8.6997 eV  142.52 nm  f=0.0010  <S**2>=0.000
      13 -> 16         0.15126
      13 -> 18         0.57598
      13 -> 19         0.26698
      13 -> 20        -0.10928

 Excited State   9:      Singlet-A      8.7239 eV  142.12 nm  f=0.0887  <S**2>=0.000
      10 -> 14         0.16280
      11 -> 14         0.55088
      12 -> 14         0.36736

 Excited State  10:      Singlet-A      9.0332 eV  137.25 nm  f=0.0001  <S**2>=0.000
      13 -> 18        -0.33531
      13 -> 19         0.54553
      13 -> 20        -0.27721

 Excited State  11:      Singlet-A      9.3205 eV  133.02 nm  f=0.0169  <S**2>=0.000
       7 -> 15         0.10668
      11 -> 15         0.45576
      11 -> 17         0.11035
      12 -> 15         0.38277
      12 -> 17         0.12072
      13 -> 15         0.17110
      13 -> 16        -0.10907
      13 -> 20         0.14823
      13 -> 21        -0.11294

 Excited State  12:      Singlet-A      9.3884 eV  132.06 nm  f=0.0149  <S**2>=0.000
       8 -> 15        -0.14207
       9 -> 15        -0.12922
      10 -> 15         0.23180
      10 -> 16         0.24983
      10 -> 17         0.30312
      11 -> 15         0.27819
      11 -> 21         0.11237
      12 -> 15        -0.16394
      12 -> 17        -0.11398
      12 -> 21        -0.13843
      13 -> 14         0.11253

 Excited State  13:      Singlet-A      9.4466 eV  131.25 nm  f=0.0825  <S**2>=0.000
      13 -> 19         0.32802
      13 -> 20         0.57905

 Excited State  14:      Singlet-A      9.7827 eV  126.74 nm  f=0.1371  <S**2>=0.000
       8 -> 15         0.12299
      10 -> 15         0.40524
      10 -> 17         0.15978
      11 -> 15        -0.29219
      12 -> 15         0.37282
      12 -> 19         0.10097

 Excited State  15:      Singlet-A     10.0122 eV  123.83 nm  f=0.1329  <S**2>=0.000
       8 -> 15        -0.14200
       9 -> 15        -0.14141
      10 -> 16        -0.15230
      10 -> 19         0.12954
      11 -> 17        -0.10136
      12 -> 15        -0.14062
      12 -> 16         0.46991
      12 -> 17         0.22829
      12 -> 18        -0.10313
      12 -> 19        -0.13769

 The electronic state is 1-A.
 Alpha  occ. eigenvalues --   -1.93437  -1.24390  -0.99330  -0.82776  -0.80414
 Alpha  occ. eigenvalues --   -0.68730  -0.65047  -0.55061  -0.51844  -0.43663
 Alpha  occ. eigenvalues --   -0.42459  -0.41982  -0.30408
 Alpha virt. eigenvalues --    0.12787   0.15924   0.19293   0.23225   0.26171
 Alpha virt. eigenvalues --    0.27694   0.28420   0.29187   0.39733   0.48078
 Alpha virt. eigenvalues --    0.53548

 Mulliken charges:
               1
     1  C   -0.080142
     2  C   -1.976955
     3  O    3.188289
     4  C   -1.983616
     5  C   -0.138283
     6  H    0.183905
     7  H    0.318000
     8  H    0.311469
     9  H    0.177334
 Sum of Mulliken charges =   0.00000

 Dipole moment (field-independent basis, Debye):
    X=             -1.9257    Y=             -9.1995    Z=              0.7105  Tot=              9.4257
 N-N= 1.047285014385D+02 E-N=-1.706744195233D+02  KE=-1.580926207284D+01
 Orbital energies and kinetic energies (alpha):
                                 1                 2
   1         O                -1.934367         -1.427080
   2         O                -1.243899         -1.112298
   3         O                -0.993302         -0.900161
   4         O                -0.827757         -0.636173
   5         O                -0.804144         -0.695119
   6         O                -0.687302         -0.598453
   7         O                -0.650467         -0.523546

 Normal termination of Gaussian 09 at Tue Dec 15 17:06:55 2015.
