 Gaussian 09, Revision D.01,
 Gaussian 09:  ES64L-G09RevD.01 24-Apr-2013

 ------------------------------------------------------------
 #P AM1(Input,print) CIS(Singlets,NStates=15) pop(full) force
 ------------------------------------------------------------

 -----------------
 AM1-Reparam Input
 -----------------
 Symbolic Z-matrix:
 Charge =  0 Multiplicity = 1

                         Standard orientation:
 ---------------------------------------------------------------------
 Center     Atomic      Atomic             Coordinates (Angstroms)
 Number     Number       Type             X           Y           Z
 ---------------------------------------------------------------------
      1          6           0        0.406120    1.091959    0.018226
      2          6           0        1.107284   -0.035841   -0.014882
      3          8           0        0.368895   -1.105081    0.022608
      4          6           0       -1.010431   -0.604028   -0.009463
      5          6           0       -0.913724    0.696158   -0.028902
      6          1           0       -1.827221    1.383583    0.078202
      7          1           0       -1.730922   -1.319018   -0.010736
      8          1           0        2.231231   -0.249486   -0.051530
      9          1           0        0.840253    2.136077    0.013329
 ---------------------------------------------------------------------

 SCF Done:  E(RAM1) =  0.459508727804E-01 A.U. after   14 cycles

 Excitation energies and oscillator strengths:

 Excited State   1:      Singlet-A      4.4209 eV  280.45 nm  f=0.0894  <S**2>=0.000
      12 -> 15         0.15227
      13 -> 14         0.67402
 This state for optimization and/or second-order correction.
 Total Energy, E(CIS) =  0.208415193245
 Copying the excited state density for this state as the 1-particle RhoCI density.

 Excited State   2:      Singlet-A      4.7615 eV  260.39 nm  f=0.0022  <S**2>=0.000
      13 -> 15        -0.14025
      13 -> 16         0.66535
      13 -> 20        -0.11761

 Excited State   3:      Singlet-A      5.3102 eV  233.48 nm  f=0.0181  <S**2>=0.000
      12 -> 14        -0.37931
      13 -> 15         0.57684
      13 -> 16         0.12802

 Excited State   4:      Singlet-A      5.9705 eV  207.66 nm  f=0.0005  <S**2>=0.000
      12 -> 22        -0.12342
      13 -> 17         0.36944
      13 -> 18        -0.19391
      13 -> 19         0.28141
      13 -> 20        -0.15950
      13 -> 22         0.35589
      13 -> 23         0.14156

 Excited State   5:      Singlet-A      6.0506 eV  204.91 nm  f=0.0011  <S**2>=0.000
       7 -> 16        -0.15172
      12 -> 15        -0.14187
      12 -> 16         0.63557
      12 -> 17         0.10246
      12 -> 20        -0.11624

 Excited State   6:      Singlet-A      6.3264 eV  195.98 nm  f=0.0009  <S**2>=0.000
      12 -> 18         0.14239
      12 -> 21        -0.17364
      12 -> 23        -0.11746
      13 -> 18         0.38547
      13 -> 19         0.30379
      13 -> 21        -0.19218
      13 -> 22         0.18747
      13 -> 23        -0.25245

 Excited State   7:      Singlet-A      6.4291 eV  192.85 nm  f=0.1850  <S**2>=0.000
      10 -> 16        -0.10777
      12 -> 14         0.40774
      13 -> 15         0.26181
      13 -> 17         0.27809
      13 -> 18         0.23954
      13 -> 19        -0.24990
      13 -> 21        -0.11192

 Excited State   8:      Singlet-A      6.5067 eV  190.55 nm  f=0.1760  <S**2>=0.000
      10 -> 16        -0.10767
      12 -> 14         0.36818
      13 -> 15         0.24047
      13 -> 17        -0.29676
      13 -> 18        -0.24886
      13 -> 19         0.28123
      13 -> 21         0.10203

 Excited State   9:      Singlet-A      6.8928 eV  179.88 nm  f=0.0800  <S**2>=0.000
      11 -> 14         0.12885
      12 -> 15         0.64713
      12 -> 16         0.13721
      13 -> 14        -0.13502

 Excited State  10:      Singlet-A      7.0327 eV  176.30 nm  f=0.0143  <S**2>=0.000
       9 -> 14         0.12263
      10 -> 14        -0.23149
      11 -> 14         0.54637
      11 -> 15        -0.26063
      12 -> 15        -0.13092

 Excited State  11:      Singlet-A      7.3001 eV  169.84 nm  f=0.0044  <S**2>=0.000
       9 -> 14         0.10639
      10 -> 14        -0.25415
      10 -> 15        -0.11706
      11 -> 14        -0.11337
      12 -> 18         0.29276
      12 -> 23        -0.10068
      13 -> 17        -0.15837
      13 -> 18        -0.24617
      13 -> 19        -0.27420
      13 -> 21        -0.23430
      13 -> 22         0.20694
      13 -> 24         0.10509

 Excited State  12:      Singlet-A      7.3561 eV  168.55 nm  f=0.0010  <S**2>=0.000
      12 -> 18        -0.14175
      12 -> 19        -0.23575
      13 -> 17        -0.26124
      13 -> 18         0.20003
      13 -> 20         0.24014
      13 -> 21         0.13241
      13 -> 22         0.37628
      13 -> 23         0.16648
      13 -> 24        -0.12501

 Excited State  13:      Singlet-A      7.4816 eV  165.72 nm  f=0.0039  <S**2>=0.000
       8 -> 14        -0.10374
       9 -> 14        -0.19271
       9 -> 15        -0.20910
      10 -> 14         0.44113
      11 -> 14         0.23826
      12 -> 18         0.14100
      13 -> 18        -0.11946
      13 -> 19        -0.11003
      13 -> 21        -0.16357
      13 -> 22         0.14507

 Excited State  14:      Singlet-A      7.5490 eV  164.24 nm  f=0.0082  <S**2>=0.000
      12 -> 18        -0.12380
      12 -> 19         0.44371
      12 -> 20        -0.10486
      12 -> 21         0.16489
      12 -> 23        -0.13754
      13 -> 19         0.15841
      13 -> 20         0.29556
      13 -> 21        -0.13919
      13 -> 23         0.23509

 Excited State  15:      Singlet-A      7.7494 eV  159.99 nm  f=0.0006  <S**2>=0.000
       9 -> 14        -0.16348
      10 -> 14        -0.24425
      12 -> 17         0.29286
      12 -> 20         0.21583
      12 -> 22         0.14093
      13 -> 17         0.19483
      13 -> 20         0.32998
      13 -> 23        -0.23011
      13 -> 24         0.11169

 The electronic state is 1-A.
 Alpha  occ. eigenvalues --   -1.57985  -1.25312  -1.10233  -0.81828  -0.80825
 Alpha  occ. eigenvalues --   -0.68350  -0.60292  -0.55888  -0.50894  -0.49731
 Alpha  occ. eigenvalues --   -0.49187  -0.40907  -0.34680
 Alpha virt. eigenvalues --    0.03268   0.07275   0.08846   0.13454   0.14918
 Alpha virt. eigenvalues --    0.15087   0.17074   0.18621   0.19229   0.20896
 Alpha virt. eigenvalues --    0.22332

 Mulliken charges:
               1
     1  C   -0.249318
     2  C   -0.060358
     3  O   -0.105491
     4  C   -0.114822
     5  C   -0.158785
     6  H    0.157519
     7  H    0.182561
     8  H    0.185154
     9  H    0.163540
 Sum of Mulliken charges =   0.00000

 Dipole moment (field-independent basis, Debye):
    X=             -0.0439    Y=              0.5281    Z=              0.0092  Tot=              0.5300
 N-N= 1.038500594592D+02 E-N=-1.717118437364D+02  KE=-1.657414513865D+01
 Orbital energies and kinetic energies (alpha):
                                 1                 2
   1         O                -1.579852         -1.333069
   2         O                -1.253122         -1.054501
   3         O                -1.102333         -0.961686
   4         O                -0.818283         -0.723212
   5         O                -0.808246         -0.690396
   6         O                -0.683497         -0.604611
   7         O                -0.602918         -0.491409

 Normal termination of Gaussian 09 at Tue Dec 15 16:20:33 2015.
