 Gaussian 09, Revision D.01,
 Gaussian 09:  ES64L-G09RevD.01 24-Apr-2013

 ------------------------------------------------------------
 #P AM1(Input,print) CIS(Singlets,NStates=15) pop(full) force
 ------------------------------------------------------------

 -----------------
 AM1-Reparam Input
 -----------------
 Symbolic Z-matrix:
 Charge =  0 Multiplicity = 1

                         Standard orientation:
 ---------------------------------------------------------------------
 Center     Atomic      Atomic             Coordinates (Angstroms)
 Number     Number       Type             X           Y           Z
 ---------------------------------------------------------------------
      1          6           0       -0.409688    1.107866    0.020502
      2          6           0       -1.136864   -0.016702   -0.004374
      3          8           0       -0.361389   -1.094562    0.000825
      4          6           0        0.901189   -0.638383    0.008814
      5          6           0        1.003535    0.698559   -0.022100
      6          1           0        1.949464    1.271398    0.049859
      7          1           0        1.671334   -1.509186   -0.021189
      8          1           0       -2.193206   -0.109073   -0.007104
      9          1           0       -0.685512    2.195320   -0.045213
 ---------------------------------------------------------------------

 SCF Done:  E(RAM1) =   1.80477465476     A.U. after   14 cycles

 Excitation energies and oscillator strengths:

 Excited State   1:      Singlet-A      5.3319 eV  232.53 nm  f=0.3651  <S**2>=0.000
      13 -> 14         0.69432
 This state for optimization and/or second-order correction.
 Total Energy, E(CIS) =   2.00071869349
 Copying the excited state density for this state as the 1-particle RhoCI density.

 Excited State   2:      Singlet-A      6.2835 eV  197.32 nm  f=0.0017  <S**2>=0.000
      13 -> 15         0.67401
      13 -> 17        -0.15794

 Excited State   3:      Singlet-A      6.6629 eV  186.08 nm  f=0.0057  <S**2>=0.000
      13 -> 16         0.67681
      13 -> 18        -0.12781
      13 -> 19        -0.11110

 Excited State   4:      Singlet-A      7.2209 eV  171.70 nm  f=0.0005  <S**2>=0.000
      12 -> 14         0.70200

 Excited State   5:      Singlet-A      7.8949 eV  157.04 nm  f=0.0008  <S**2>=0.000
      13 -> 15         0.12337
      13 -> 17         0.52525
      13 -> 18        -0.37769
      13 -> 21        -0.22415

 Excited State   6:      Singlet-A      8.3520 eV  148.45 nm  f=0.0074  <S**2>=0.000
      10 -> 14        -0.31285
      11 -> 14         0.60932
      13 -> 18         0.13788

 Excited State   7:      Singlet-A      8.7336 eV  141.96 nm  f=0.0064  <S**2>=0.000
      11 -> 14        -0.13198
      13 -> 17         0.40670
      13 -> 18         0.51399
      13 -> 21         0.10408

 Excited State   8:      Singlet-A      9.0778 eV  136.58 nm  f=0.0903  <S**2>=0.000
      10 -> 14         0.59610
      11 -> 14         0.30267
      12 -> 15         0.11370

 Excited State   9:      Singlet-A      9.2853 eV  133.53 nm  f=0.0003  <S**2>=0.000
      13 -> 16         0.10227
      13 -> 19         0.67609

 Excited State  10:      Singlet-A      9.5078 eV  130.40 nm  f=0.0422  <S**2>=0.000
       8 -> 15        -0.13147
      11 -> 16        -0.10692
      11 -> 17         0.10879
      11 -> 18         0.12811
      12 -> 15         0.47666
      12 -> 16        -0.20251
      12 -> 17        -0.25718
      12 -> 18         0.19657

 Excited State  11:      Singlet-A     10.0878 eV  122.90 nm  f=0.0712  <S**2>=0.000
      11 -> 15        -0.25977
      12 -> 15        -0.19535
      12 -> 17        -0.10593
      12 -> 18         0.11402
      13 -> 17         0.10725
      13 -> 18        -0.16265
      13 -> 20        -0.21703
      13 -> 21         0.48318

 Excited State  12:      Singlet-A     10.1187 eV  122.53 nm  f=0.0980  <S**2>=0.000
      11 -> 15         0.31916
      11 -> 17        -0.11062
      12 -> 15         0.30243
      12 -> 16         0.15561
      12 -> 17         0.12987
      12 -> 18        -0.17867
      13 -> 18        -0.13397
      13 -> 21         0.38270

 Excited State  13:      Singlet-A     10.1389 eV  122.29 nm  f=0.1340  <S**2>=0.000
      10 -> 16         0.12000
      11 -> 16        -0.16962
      12 -> 16         0.59988
      12 -> 17        -0.16091
      12 -> 19        -0.12793

 Excited State  14:      Singlet-A     10.2679 eV  120.75 nm  f=0.0787  <S**2>=0.000
      10 -> 15         0.44035
      11 -> 15         0.15560
      12 -> 17        -0.11397
      13 -> 20         0.40813
      13 -> 21         0.19511

 Excited State  15:      Singlet-A     10.3016 eV  120.35 nm  f=0.0456  <S**2>=0.000
      10 -> 15        -0.34043
      10 -> 16        -0.18123
      11 -> 15        -0.23724
      11 -> 16        -0.10459
      13 -> 15         0.10268
      13 -> 20         0.49104

 The electronic state is 1-A.
 Alpha  occ. eigenvalues --   -2.00681  -1.26505  -1.00198  -0.89859  -0.83626
 Alpha  occ. eigenvalues --   -0.76090  -0.75159  -0.62518  -0.60967  -0.52353
 Alpha  occ. eigenvalues --   -0.52160  -0.48683  -0.35838
 Alpha virt. eigenvalues --    0.04360   0.09586   0.11866   0.19359   0.20621
 Alpha virt. eigenvalues --    0.22906   0.25423   0.26933   0.30897   0.39036
 Alpha virt. eigenvalues --    0.44021

 Mulliken charges:
               1
     1  C   -0.154661
     2  C   -1.896181
     3  O    3.156215
     4  C   -1.885540
     5  C   -0.112913
     6  H    0.149883
     7  H    0.290008
     8  H    0.296078
     9  H    0.157112
 Sum of Mulliken charges =   0.00000

 Dipole moment (field-independent basis, Debye):
    X=             -2.9928    Y=            -10.1404    Z=             -0.0821  Tot=             10.5731
 N-N= 1.057101795050D+02 E-N=-1.708874863692D+02  KE=-1.563057483657D+01
 Orbital energies and kinetic energies (alpha):
                                 1                 2
   1         O                -2.006810         -1.400244
   2         O                -1.265053         -1.043808
   3         O                -1.001976         -0.874810
   4         O                -0.898586         -0.585904
   5         O                -0.836256         -0.698823
   6         O                -0.760898         -0.585143
   7         O                -0.751592         -0.547148

 Normal termination of Gaussian 09 at Tue Dec 15 17:09:06 2015.
