 Gaussian 09, Revision D.01,
 Gaussian 09:  ES64L-G09RevD.01 24-Apr-2013

 ------------------------------------------------------------
 #P AM1(Input,print) CIS(Singlets,NStates=15) pop(full) force
 ------------------------------------------------------------

 -----------------
 AM1-Reparam Input
 -----------------
 Symbolic Z-matrix:
 Charge =  0 Multiplicity = 1

                         Standard orientation:
 ---------------------------------------------------------------------
 Center     Atomic      Atomic             Coordinates (Angstroms)
 Number     Number       Type             X           Y           Z
 ---------------------------------------------------------------------
      1          6           0       -0.937434    0.729833   -0.021719
      2          6           0       -0.962978   -0.593631    0.027571
      3          8           0        0.283689   -1.138888   -0.009341
      4          6           0        1.131678   -0.042859    0.014813
      5          6           0        0.467148    1.095240   -0.003600
      6          1           0        0.883264    2.063284    0.038627
      7          1           0        2.221465   -0.377353   -0.046116
      8          1           0       -1.789787   -1.219029   -0.025289
      9          1           0       -1.774941    1.512701    0.005117
 ---------------------------------------------------------------------

 SCF Done:  E(RAM1) =   1.74465179186     A.U. after   14 cycles

 Excitation energies and oscillator strengths:

 Excited State   1:      Singlet-A      5.2156 eV  237.72 nm  f=0.3436  <S**2>=0.000
      13 -> 14         0.69574
 This state for optimization and/or second-order correction.
 Total Energy, E(CIS) =   1.93632193747
 Copying the excited state density for this state as the 1-particle RhoCI density.

 Excited State   2:      Singlet-A      5.8178 eV  213.11 nm  f=0.0002  <S**2>=0.000
      11 -> 15        -0.12141
      13 -> 15         0.67359
      13 -> 17        -0.10690
      13 -> 19        -0.12120

 Excited State   3:      Singlet-A      6.1799 eV  200.62 nm  f=0.0029  <S**2>=0.000
      11 -> 16         0.10626
      13 -> 16         0.66050
      13 -> 18        -0.12462
      13 -> 19         0.13824

 Excited State   4:      Singlet-A      6.8640 eV  180.63 nm  f=0.0003  <S**2>=0.000
      12 -> 14         0.68024
      13 -> 21        -0.10354

 Excited State   5:      Singlet-A      7.2749 eV  170.43 nm  f=0.0032  <S**2>=0.000
      12 -> 14         0.14673
      13 -> 15         0.11140
      13 -> 17         0.29640
      13 -> 19         0.38064
      13 -> 20        -0.26977
      13 -> 21         0.38222

 Excited State   6:      Singlet-A      7.4754 eV  165.86 nm  f=0.0097  <S**2>=0.000
      13 -> 16         0.13485
      13 -> 17         0.60291
      13 -> 19        -0.13264
      13 -> 20         0.14593
      13 -> 21        -0.21385

 Excited State   7:      Singlet-A      8.1072 eV  152.93 nm  f=0.0177  <S**2>=0.000
      10 -> 14        -0.15866
      13 -> 18         0.66827

 Excited State   8:      Singlet-A      8.2047 eV  151.11 nm  f=0.0018  <S**2>=0.000
      10 -> 14         0.61907
      13 -> 18         0.12816
      13 -> 19        -0.20103
      13 -> 20        -0.16564
      13 -> 21         0.10555

 Excited State   9:      Singlet-A      8.2599 eV  150.10 nm  f=0.0052  <S**2>=0.000
      10 -> 14         0.23862
      13 -> 19         0.48648
      13 -> 21        -0.40968

 Excited State  10:      Singlet-A      8.6806 eV  142.83 nm  f=0.0504  <S**2>=0.000
       8 -> 15         0.11800
      11 -> 14         0.60903
      12 -> 15         0.26181

 Excited State  11:      Singlet-A      8.8144 eV  140.66 nm  f=0.0766  <S**2>=0.000
      10 -> 14         0.11771
      13 -> 20         0.59194
      13 -> 21         0.33722

 Excited State  12:      Singlet-A      9.0685 eV  136.72 nm  f=0.1494  <S**2>=0.000
       8 -> 15         0.16246
      10 -> 17        -0.15722
      11 -> 14        -0.20804
      12 -> 15         0.42773
      12 -> 16        -0.30950
      12 -> 18         0.10318
      12 -> 19        -0.17523
      12 -> 21        -0.15324

 Excited State  13:      Singlet-A      9.4930 eV  130.61 nm  f=0.0822  <S**2>=0.000
      10 -> 17         0.15172
      11 -> 14        -0.15345
      11 -> 15         0.45916
      12 -> 15         0.26359
      12 -> 16         0.25766
      12 -> 18        -0.14815
      13 -> 15         0.10080

 Excited State  14:      Singlet-A      9.5954 eV  129.21 nm  f=0.1156  <S**2>=0.000
      10 -> 17        -0.12603
      11 -> 14         0.17408
      11 -> 15         0.46108
      12 -> 15        -0.26215
      12 -> 16        -0.25633
      12 -> 18         0.13857

 Excited State  15:      Singlet-A      9.9212 eV  124.97 nm  f=0.1351  <S**2>=0.000
       8 -> 16        -0.11386
      10 -> 16         0.13267
      10 -> 17        -0.20859
      12 -> 16         0.40274
      12 -> 17        -0.17707
      12 -> 19        -0.15450
      12 -> 21        -0.34721

 The electronic state is 1-A.
 Alpha  occ. eigenvalues --   -1.91030  -1.22367  -0.99422  -0.81571  -0.80240
 Alpha  occ. eigenvalues --   -0.68491  -0.63165  -0.52992  -0.51402  -0.43129
 Alpha  occ. eigenvalues --   -0.42026  -0.39002  -0.26102
 Alpha virt. eigenvalues --    0.13480   0.17084   0.19472   0.26029   0.27562
 Alpha virt. eigenvalues --    0.29396   0.29945   0.30412   0.35803   0.45254
 Alpha virt. eigenvalues --    0.49095

 Mulliken charges:
               1
     1  C   -0.155341
     2  C   -1.923104
     3  O    3.168383
     4  C   -1.885689
     5  C   -0.128720
     6  H    0.171480
     7  H    0.275336
     8  H    0.305801
     9  H    0.171853
 Sum of Mulliken charges =   0.00000

 Dipole moment (field-independent basis, Debye):
    X=              2.6136    Y=            -10.6477    Z=             -0.5579  Tot=             10.9779
 N-N= 1.039766593195D+02 E-N=-1.695161831066D+02  KE=-1.572905125750D+01
 Orbital energies and kinetic energies (alpha):
                                 1                 2
   1         O                -1.910304         -1.373308
   2         O                -1.223668         -1.105452
   3         O                -0.994220         -0.924701
   4         O                -0.815708         -0.624650
   5         O                -0.802405         -0.699402
   6         O                -0.684910         -0.576006
   7         O                -0.631652         -0.517092

 Normal termination of Gaussian 09 at Tue Dec 15 17:07:09 2015.
