 Gaussian 09, Revision D.01,
 Gaussian 09:  ES64L-G09RevD.01 24-Apr-2013

 ------------------------------------------------------------
 #P AM1(Input,print) CIS(Singlets,NStates=15) pop(full) force
 ------------------------------------------------------------

 -----------------
 AM1-Reparam Input
 -----------------
 Symbolic Z-matrix:
 Charge =  0 Multiplicity = 1

                         Standard orientation:
 ---------------------------------------------------------------------
 Center     Atomic      Atomic             Coordinates (Angstroms)
 Number     Number       Type             X           Y           Z
 ---------------------------------------------------------------------
      1          6           0       -1.019134    0.700298   -0.028078
      2          6           0       -0.896149   -0.702093    0.005899
      3          8           0        0.366618   -1.083516   -0.012352
      4          6           0        1.164285   -0.002440    0.015332
      5          6           0        0.363164    1.140054    0.027278
      6          1           0        0.743042    2.129363   -0.022659
      7          1           0        2.214252   -0.156025   -0.065589
      8          1           0       -1.697125   -1.438065    0.071687
      9          1           0       -1.866105    1.317940   -0.007204
 ---------------------------------------------------------------------

 SCF Done:  E(RAM1) =   1.35217008785     A.U. after   13 cycles

 Excitation energies and oscillator strengths:

 Excited State   1:      Singlet-A      6.0320 eV  205.54 nm  f=0.3252  <S**2>=0.000
      13 -> 14         0.68965
 This state for optimization and/or second-order correction.
 Total Energy, E(CIS) =   1.57384149543
 Copying the excited state density for this state as the 1-particle RhoCI density.

 Excited State   2:      Singlet-A      6.5053 eV  190.59 nm  f=0.0095  <S**2>=0.000
      13 -> 15         0.64926
      13 -> 17         0.20602

 Excited State   3:      Singlet-A      6.9535 eV  178.30 nm  f=0.0001  <S**2>=0.000
      12 -> 15        -0.14660
      13 -> 16         0.63404
      13 -> 18        -0.11955
      13 -> 21        -0.13435
      13 -> 22        -0.13237

 Excited State   4:      Singlet-A      7.3819 eV  167.96 nm  f=0.0020  <S**2>=0.000
       9 -> 14        -0.10003
      11 -> 14         0.65610
      12 -> 14         0.20800

 Excited State   5:      Singlet-A      7.9428 eV  156.10 nm  f=0.0119  <S**2>=0.000
      10 -> 14         0.13248
      12 -> 15        -0.11734
      13 -> 15        -0.17140
      13 -> 17         0.59920
      13 -> 22         0.23718

 Excited State   6:      Singlet-A      8.1511 eV  152.11 nm  f=0.0013  <S**2>=0.000
      12 -> 15        -0.17432
      12 -> 16        -0.12025
      13 -> 16         0.12596
      13 -> 17        -0.22641
      13 -> 18         0.29296
      13 -> 22         0.52586

 Excited State   7:      Singlet-A      8.3166 eV  149.08 nm  f=0.0554  <S**2>=0.000
      10 -> 14        -0.40831
      11 -> 14        -0.19455
      12 -> 14         0.50458
      13 -> 17         0.11497
      13 -> 19        -0.11530

 Excited State   8:      Singlet-A      8.4144 eV  147.35 nm  f=0.0383  <S**2>=0.000
      10 -> 14         0.54236
      12 -> 14         0.40266

 Excited State   9:      Singlet-A      8.8318 eV  140.38 nm  f=0.0016  <S**2>=0.000
      12 -> 15        -0.36125
      13 -> 18        -0.22096
      13 -> 19        -0.25273
      13 -> 20         0.25121
      13 -> 21         0.41839

 Excited State  10:      Singlet-A      8.8821 eV  139.59 nm  f=0.0027  <S**2>=0.000
      13 -> 18         0.57725
      13 -> 21         0.19646
      13 -> 22        -0.30597

 Excited State  11:      Singlet-A      9.1070 eV  136.14 nm  f=0.0025  <S**2>=0.000
      12 -> 15         0.49230
      12 -> 17         0.12644
      13 -> 15        -0.12108
      13 -> 16         0.20952
      13 -> 19        -0.10100
      13 -> 20         0.13212
      13 -> 21         0.30603
      13 -> 22         0.18244

 Excited State  12:      Singlet-A      9.3009 eV  133.30 nm  f=0.0699  <S**2>=0.000
      12 -> 16         0.35243
      13 -> 19        -0.35094
      13 -> 20         0.33337
      13 -> 21        -0.33900

 Excited State  13:      Singlet-A      9.6530 eV  128.44 nm  f=0.0227  <S**2>=0.000
      11 -> 15        -0.13285
      12 -> 16         0.50215
      13 -> 15         0.13234
      13 -> 16         0.11764
      13 -> 19         0.26527
      13 -> 20        -0.11097
      13 -> 21         0.20940

 Excited State  14:      Singlet-A      9.8166 eV  126.30 nm  f=0.1035  <S**2>=0.000
       8 -> 15         0.11238
       9 -> 15         0.13253
      10 -> 17        -0.10429
      11 -> 15        -0.34066
      11 -> 16         0.11997
      12 -> 14         0.13038
      12 -> 16        -0.16797
      13 -> 19         0.26016
      13 -> 20         0.38042

 Excited State  15:      Singlet-A      9.9882 eV  124.13 nm  f=0.0867  <S**2>=0.000
       8 -> 15        -0.15463
      10 -> 15         0.16667
      10 -> 16         0.19231
      10 -> 17         0.22243
      11 -> 15         0.19344
      11 -> 16        -0.21070
      11 -> 18         0.14254
      11 -> 22         0.10145
      12 -> 14         0.10060
      13 -> 19         0.30003
      13 -> 20         0.28516

 The electronic state is 1-A.
 Alpha  occ. eigenvalues --   -1.90083  -1.17177  -0.95481  -0.79342  -0.77053
 Alpha  occ. eigenvalues --   -0.67783  -0.61982  -0.51039  -0.47839  -0.41940
 Alpha  occ. eigenvalues --   -0.39074  -0.37089  -0.26154
 Alpha virt. eigenvalues --    0.16117   0.20883   0.22672   0.28214   0.30400
 Alpha virt. eigenvalues --    0.32034   0.32389   0.32992   0.34037   0.41831
 Alpha virt. eigenvalues --    0.48074

 Mulliken charges:
               1
     1  C   -0.059345
     2  C   -1.609429
     3  O    2.810085
     4  C   -1.586757
     5  C   -0.043631
     6  H    0.066467
     7  H    0.168276
     8  H    0.183814
     9  H    0.070521
 Sum of Mulliken charges =   0.00000

 Dipole moment (field-independent basis, Debye):
    X=              2.6533    Y=             -8.4802    Z=             -0.2946  Tot=              8.8905
 N-N= 1.034835260617D+02 E-N=-1.697565517711D+02  KE=-1.586546410859D+01
 Orbital energies and kinetic energies (alpha):
                                 1                 2
   1         O                -1.900833         -1.401008
   2         O                -1.171767         -1.061947
   3         O                -0.954807         -0.860722
   4         O                -0.793421         -0.640442
   5         O                -0.770526         -0.702197
   6         O                -0.677833         -0.627338
   7         O                -0.619816         -0.535332

 Normal termination of Gaussian 09 at Tue Dec 15 17:07:52 2015.
