 Gaussian 09, Revision D.01,
 Gaussian 09:  ES64L-G09RevD.01 24-Apr-2013

 ------------------------------------------------------------
 #P AM1(Input,print) CIS(Singlets,NStates=15) pop(full) force
 ------------------------------------------------------------

 -----------------
 AM1-Reparam Input
 -----------------
 Symbolic Z-matrix:
 Charge =  0 Multiplicity = 1

                         Standard orientation:
 ---------------------------------------------------------------------
 Center     Atomic      Atomic             Coordinates (Angstroms)
 Number     Number       Type             X           Y           Z
 ---------------------------------------------------------------------
      1          6           0        0.784739    0.890012    0.024979
      2          6           0        1.094651   -0.427110   -0.003319
      3          8           0       -0.098608   -1.146301   -0.008261
      4          6           0       -1.154740   -0.277523    0.017410
      5          6           0       -0.611548    1.025134   -0.026362
      6          1           0       -1.258019    1.925486   -0.014861
      7          1           0       -2.069470   -0.704131    0.026416
      8          1           0        1.965159   -1.006822   -0.021285
      9          1           0        1.472580    1.692791   -0.000433
 ---------------------------------------------------------------------

 SCF Done:  E(RAM1) =   2.03202018938     A.U. after   13 cycles

 Excitation energies and oscillator strengths:

 Excited State   1:      Singlet-A      5.5062 eV  225.17 nm  f=0.3354  <S**2>=0.000
      13 -> 14         0.69278
 This state for optimization and/or second-order correction.
 Total Energy, E(CIS) =   2.23436981377
 Copying the excited state density for this state as the 1-particle RhoCI density.

 Excited State   2:      Singlet-A      6.9798 eV  177.63 nm  f=0.0160  <S**2>=0.000
      12 -> 14         0.12081
      13 -> 15         0.64730
      13 -> 16        -0.12857
      13 -> 17        -0.17817

 Excited State   3:      Singlet-A      7.0142 eV  176.76 nm  f=0.0017  <S**2>=0.000
      12 -> 14         0.67919
      13 -> 15        -0.12800

 Excited State   4:      Singlet-A      7.2829 eV  170.24 nm  f=0.0009  <S**2>=0.000
      13 -> 15         0.12527
      13 -> 16         0.60755
      13 -> 18        -0.27504

 Excited State   5:      Singlet-A      7.5873 eV  163.41 nm  f=0.0064  <S**2>=0.000
      11 -> 14         0.69766

 Excited State   6:      Singlet-A      8.1598 eV  151.95 nm  f=0.0003  <S**2>=0.000
      10 -> 15         0.10383
      13 -> 16         0.18930
      13 -> 18         0.21863
      13 -> 19         0.59076
      13 -> 20        -0.15208
      13 -> 21         0.15152

 Excited State   7:      Singlet-A      8.7613 eV  141.51 nm  f=0.1106  <S**2>=0.000
      10 -> 14         0.68822

 Excited State   8:      Singlet-A      9.0466 eV  137.05 nm  f=0.0162  <S**2>=0.000
      10 -> 16         0.19067
      13 -> 15         0.14155
      13 -> 17         0.63338
      13 -> 18         0.11597

 Excited State   9:      Singlet-A      9.3453 eV  132.67 nm  f=0.0002  <S**2>=0.000
      10 -> 15         0.18905
      13 -> 16         0.18351
      13 -> 17        -0.11623
      13 -> 18         0.52233
      13 -> 19        -0.32936
      13 -> 20        -0.11281

 Excited State  10:      Singlet-A      9.6260 eV  128.80 nm  f=0.0577  <S**2>=0.000
       9 -> 16         0.14340
       9 -> 18        -0.10239
      11 -> 15         0.43142
      11 -> 17        -0.23638
      12 -> 16         0.17951
      12 -> 18        -0.18718
      12 -> 19        -0.31249

 Excited State  11:      Singlet-A      9.8009 eV  126.50 nm  f=0.0112  <S**2>=0.000
      13 -> 18         0.22409
      13 -> 19         0.13917
      13 -> 20         0.59820
      13 -> 21        -0.23848

 Excited State  12:      Singlet-A     10.1010 eV  122.74 nm  f=0.0360  <S**2>=0.000
      11 -> 15         0.17463
      11 -> 16        -0.25439
      11 -> 18         0.13339
      12 -> 15         0.44014
      12 -> 16        -0.15144
      12 -> 17        -0.15653
      13 -> 20         0.14197
      13 -> 21         0.30507

 Excited State  13:      Singlet-A     10.1431 eV  122.23 nm  f=0.0538  <S**2>=0.000
      11 -> 16         0.15322
      12 -> 15        -0.28624
      12 -> 17         0.10102
      13 -> 20         0.23045
      13 -> 21         0.53696

 Excited State  14:      Singlet-A     10.2829 eV  120.57 nm  f=0.2153  <S**2>=0.000
      11 -> 15        -0.29054
      12 -> 15         0.22274
      12 -> 16         0.48780
      12 -> 18        -0.23965
      12 -> 20         0.10578

 Excited State  15:      Singlet-A     10.4081 eV  119.12 nm  f=0.0069  <S**2>=0.000
      10 -> 15         0.59203
      10 -> 17        -0.11794
      11 -> 16         0.11802
      13 -> 16        -0.15634
      13 -> 18        -0.11005
      13 -> 21        -0.12247

 The electronic state is 1-A.
 Alpha  occ. eigenvalues --   -1.93724  -1.19715  -0.96261  -0.82166  -0.80001
 Alpha  occ. eigenvalues --   -0.68822  -0.64597  -0.56445  -0.54769  -0.44487
 Alpha  occ. eigenvalues --   -0.43839  -0.42485  -0.30717
 Alpha virt. eigenvalues --    0.10495   0.19460   0.20573   0.25375   0.27136
 Alpha virt. eigenvalues --    0.27929   0.29475   0.30493   0.34277   0.42824
 Alpha virt. eigenvalues --    0.47947

 Mulliken charges:
               1
     1  C   -0.180491
     2  C   -2.002459
     3  O    3.198956
     4  C   -2.023364
     5  C   -0.229460
     6  H    0.265925
     7  H    0.353471
     8  H    0.358815
     9  H    0.258606
 Sum of Mulliken charges =   0.00000

 Dipole moment (field-independent basis, Debye):
    X=             -0.6817    Y=             -9.9175    Z=             -0.2330  Tot=              9.9437
 N-N= 1.041414642395D+02 E-N=-1.691652598348D+02  KE=-1.549306374163D+01
 Orbital energies and kinetic energies (alpha):
                                 1                 2
   1         O                -1.937241         -1.372759
   2         O                -1.197153         -1.060063
   3         O                -0.962606         -0.864170
   4         O                -0.821665         -0.616224
   5         O                -0.800007         -0.687655
   6         O                -0.688224         -0.576203
   7         O                -0.645966         -0.516855

 Normal termination of Gaussian 09 at Tue Dec 15 17:07:19 2015.
