 Gaussian 09, Revision D.01,
 Gaussian 09:  ES64L-G09RevD.01 24-Apr-2013

 ------------------------------------------------------------
 #P AM1(Input,print) CIS(Singlets,NStates=15) pop(full) force
 ------------------------------------------------------------

 -----------------
 AM1-Reparam Input
 -----------------
 Symbolic Z-matrix:
 Charge =  0 Multiplicity = 1

                         Standard orientation:
 ---------------------------------------------------------------------
 Center     Atomic      Atomic             Coordinates (Angstroms)
 Number     Number       Type             X           Y           Z
 ---------------------------------------------------------------------
      1          6           0        0.476524    1.086467    0.033147
      2          6           0        1.157561   -0.080477   -0.016795
      3          8           0        0.259620   -1.161541   -0.013717
      4          6           0       -0.983331   -0.547575    0.051192
      5          6           0       -0.933816    0.784504   -0.032855
      6          1           0       -1.724804    1.440999   -0.075685
      7          1           0       -1.811747   -1.292232   -0.027602
      8          1           0        2.184792   -0.385207   -0.014027
      9          1           0        0.973178    2.071253    0.018917
 ---------------------------------------------------------------------

 SCF Done:  E(RAM1) =   1.73399353854     A.U. after   14 cycles

 Excitation energies and oscillator strengths:

 Excited State   1:      Singlet-A      5.2388 eV  236.67 nm  f=0.3295  <S**2>=0.000
      13 -> 14         0.69389
 This state for optimization and/or second-order correction.
 Total Energy, E(CIS) =   1.92651558519
 Copying the excited state density for this state as the 1-particle RhoCI density.

 Excited State   2:      Singlet-A      5.8682 eV  211.28 nm  f=0.0007  <S**2>=0.000
      11 -> 15         0.12378
      13 -> 15         0.67149
      13 -> 17         0.11825
      13 -> 19         0.11579

 Excited State   3:      Singlet-A      6.3483 eV  195.30 nm  f=0.0015  <S**2>=0.000
      11 -> 16        -0.12107
      13 -> 16         0.65053
      13 -> 17         0.14995
      13 -> 19        -0.13164
      13 -> 20        -0.10142

 Excited State   4:      Singlet-A      7.0404 eV  176.10 nm  f=0.0003  <S**2>=0.000
      12 -> 14         0.66538
      13 -> 20        -0.12367

 Excited State   5:      Singlet-A      7.3550 eV  168.57 nm  f=0.0123  <S**2>=0.000
      12 -> 14         0.16257
      13 -> 15        -0.12021
      13 -> 17         0.41581
      13 -> 19         0.30554
      13 -> 20         0.33804
      13 -> 21         0.23762

 Excited State   6:      Singlet-A      7.5528 eV  164.16 nm  f=0.0170  <S**2>=0.000
      12 -> 14        -0.11432
      13 -> 16        -0.17096
      13 -> 17         0.52579
      13 -> 19        -0.20059
      13 -> 20        -0.25515
      13 -> 21        -0.22502

 Excited State   7:      Singlet-A      8.1806 eV  151.56 nm  f=0.0024  <S**2>=0.000
      10 -> 14         0.43231
      11 -> 14        -0.14579
      13 -> 18         0.30752
      13 -> 19        -0.36490
      13 -> 20         0.13900
      13 -> 21         0.15841

 Excited State   8:      Singlet-A      8.2229 eV  150.78 nm  f=0.0032  <S**2>=0.000
      10 -> 14         0.48654
      11 -> 14        -0.17124
      13 -> 18        -0.31906
      13 -> 19         0.26209
      13 -> 21        -0.20429

 Excited State   9:      Singlet-A      8.4702 eV  146.38 nm  f=0.0083  <S**2>=0.000
      13 -> 18         0.51593
      13 -> 19         0.28661
      13 -> 20        -0.14105
      13 -> 21        -0.33705

 Excited State  10:      Singlet-A      8.6516 eV  143.31 nm  f=0.0667  <S**2>=0.000
      10 -> 14         0.21091
      11 -> 14         0.61296
      12 -> 15         0.15216
      13 -> 22        -0.11208

 Excited State  11:      Singlet-A      8.9407 eV  138.67 nm  f=0.0758  <S**2>=0.000
      10 -> 14        -0.11020
      13 -> 19        -0.16943
      13 -> 20         0.48016
      13 -> 21        -0.43442

 Excited State  12:      Singlet-A      9.2050 eV  134.69 nm  f=0.1443  <S**2>=0.000
       8 -> 15        -0.15146
       9 -> 15        -0.14664
      10 -> 17         0.13954
      11 -> 14        -0.11798
      12 -> 15         0.49784
      12 -> 16        -0.21832
      12 -> 19         0.12971
      12 -> 20         0.10115
      12 -> 21         0.10275
      13 -> 20        -0.10744
      13 -> 21         0.10324

 Excited State  13:      Singlet-A      9.4838 eV  130.73 nm  f=0.0108  <S**2>=0.000
       7 -> 15        -0.12373
      11 -> 15         0.58860
      11 -> 17         0.12237
      12 -> 16         0.18410
      12 -> 20        -0.10411
      13 -> 15        -0.13046

 Excited State  14:      Singlet-A      9.7482 eV  127.19 nm  f=0.1664  <S**2>=0.000
       8 -> 15        -0.10867
       8 -> 16         0.13032
      10 -> 17        -0.15120
      11 -> 14        -0.16244
      11 -> 15        -0.26300
      12 -> 15         0.27373
      12 -> 16         0.33467
      12 -> 17        -0.12003
      12 -> 18         0.14124
      12 -> 20        -0.20136

 Excited State  15:      Singlet-A      9.8830 eV  125.45 nm  f=0.0481  <S**2>=0.000
       7 -> 16         0.11782
      10 -> 16         0.17544
      10 -> 17         0.14908
      11 -> 16         0.52905
      12 -> 16         0.18636
      12 -> 17         0.15258
      12 -> 20         0.10037
      12 -> 21         0.12271
      13 -> 16         0.13858

 The electronic state is 1-A.
 Alpha  occ. eigenvalues --   -1.89789  -1.21827  -0.98314  -0.81667  -0.80303
 Alpha  occ. eigenvalues --   -0.68277  -0.61946  -0.52630  -0.51468  -0.43218
 Alpha  occ. eigenvalues --   -0.41431  -0.39441  -0.26235
 Alpha virt. eigenvalues --    0.13584   0.17425   0.19431   0.26114   0.28498
 Alpha virt. eigenvalues --    0.29246   0.30536   0.30718   0.34342   0.43925
 Alpha virt. eigenvalues --    0.47538

 Mulliken charges:
               1
     1  C   -0.123670
     2  C   -1.904762
     3  O    3.166847
     4  C   -1.898835
     5  C   -0.141344
     6  H    0.174579
     7  H    0.278773
     8  H    0.280017
     9  H    0.168394
 Sum of Mulliken charges =   0.00000

 Dipole moment (field-independent basis, Debye):
    X=              2.2511    Y=            -11.1822    Z=             -0.5932  Tot=             11.4220
 N-N= 1.035123178377D+02 E-N=-1.687285701927D+02  KE=-1.569715749620D+01
 Orbital energies and kinetic energies (alpha):
                                 1                 2
   1         O                -1.897887         -1.345895
   2         O                -1.218265         -1.109050
   3         O                -0.983143         -0.919621
   4         O                -0.816674         -0.637279
   5         O                -0.803032         -0.689039
   6         O                -0.682772         -0.587443
   7         O                -0.619459         -0.510071

 Normal termination of Gaussian 09 at Tue Dec 15 17:07:08 2015.
