 Gaussian 09, Revision D.01,
 Gaussian 09:  ES64L-G09RevD.01 24-Apr-2013

 ------------------------------------------------------------
 #P AM1(Input,print) CIS(Singlets,NStates=15) pop(full) force
 ------------------------------------------------------------

 -----------------
 AM1-Reparam Input
 -----------------
 Symbolic Z-matrix:
 Charge =  0 Multiplicity = 1

                         Standard orientation:
 ---------------------------------------------------------------------
 Center     Atomic      Atomic             Coordinates (Angstroms)
 Number     Number       Type             X           Y           Z
 ---------------------------------------------------------------------
      1          6           0        0.784739    0.890012    0.024979
      2          6           0        1.094651   -0.427110   -0.003319
      3          8           0       -0.098608   -1.146301   -0.008261
      4          6           0       -1.154740   -0.277523    0.017410
      5          6           0       -0.611548    1.025134   -0.026362
      6          1           0       -1.258019    1.925486   -0.014861
      7          1           0       -2.069470   -0.704131    0.026416
      8          1           0        1.965159   -1.006822   -0.021285
      9          1           0        1.472580    1.692791   -0.000433
 ---------------------------------------------------------------------

 SCF Done:  E(RAM1) =   1.82131559193     A.U. after   14 cycles

 Excitation energies and oscillator strengths:

 Excited State   1:      Singlet-A      5.7814 eV  214.45 nm  f=0.3137  <S**2>=0.000
      11 -> 17         0.11435
      13 -> 14         0.68698
 This state for optimization and/or second-order correction.
 Total Energy, E(CIS) =   2.03377804466
 Copying the excited state density for this state as the 1-particle RhoCI density.

 Excited State   2:      Singlet-A      6.8622 eV  180.68 nm  f=0.0063  <S**2>=0.000
      10 -> 16        -0.10834
      13 -> 15         0.60631
      13 -> 16         0.25208
      13 -> 17        -0.21286

 Excited State   3:      Singlet-A      6.9168 eV  179.25 nm  f=0.0002  <S**2>=0.000
      12 -> 14         0.69828

 Excited State   4:      Singlet-A      7.0691 eV  175.39 nm  f=0.0001  <S**2>=0.000
      10 -> 15        -0.14051
      13 -> 15        -0.25974
      13 -> 16         0.60343
      13 -> 18         0.10970
      13 -> 19        -0.16545

 Excited State   5:      Singlet-A      7.6445 eV  162.19 nm  f=0.0050  <S**2>=0.000
      11 -> 14         0.69829

 Excited State   6:      Singlet-A      8.4089 eV  147.44 nm  f=0.0019  <S**2>=0.000
      10 -> 15         0.10201
      13 -> 17         0.24630
      13 -> 18         0.56085
      13 -> 21        -0.30060

 Excited State   7:      Singlet-A      8.4972 eV  145.91 nm  f=0.0087  <S**2>=0.000
      10 -> 16        -0.16917
      13 -> 15         0.13805
      13 -> 16         0.10167
      13 -> 17         0.60738
      13 -> 18        -0.21173
      13 -> 21         0.10944

 Excited State   8:      Singlet-A      8.9790 eV  138.08 nm  f=0.0495  <S**2>=0.000
      10 -> 14         0.60084
      11 -> 15         0.12812
      11 -> 17        -0.12444
      12 -> 15         0.12706
      12 -> 16        -0.11076
      12 -> 18        -0.15247

 Excited State   9:      Singlet-A      9.2315 eV  134.31 nm  f=0.0546  <S**2>=0.000
       9 -> 16         0.11287
      10 -> 14         0.28577
      11 -> 15        -0.26528
      11 -> 17         0.25515
      12 -> 16         0.26472
      12 -> 18         0.29066
      12 -> 21        -0.12070
      13 -> 14        -0.10169
      13 -> 19         0.16283

 Excited State  10:      Singlet-A      9.2412 eV  134.17 nm  f=0.0053  <S**2>=0.000
      10 -> 15        -0.12945
      13 -> 16         0.12091
      13 -> 19         0.63837

 Excited State  11:      Singlet-A      9.7038 eV  127.77 nm  f=0.0066  <S**2>=0.000
      11 -> 16         0.26110
      11 -> 19        -0.11326
      12 -> 15         0.41260
      12 -> 16         0.17058
      12 -> 17        -0.18555
      13 -> 18        -0.20073
      13 -> 20         0.17426
      13 -> 21        -0.27628

 Excited State  12:      Singlet-A      9.7225 eV  127.52 nm  f=0.0249  <S**2>=0.000
      11 -> 16         0.21622
      12 -> 15         0.23646
      12 -> 16         0.17897
      12 -> 17        -0.11846
      13 -> 18         0.25838
      13 -> 20        -0.30032
      13 -> 21         0.38743

 Excited State  13:      Singlet-A      9.7453 eV  127.22 nm  f=0.2397  <S**2>=0.000
      11 -> 15         0.32319
      11 -> 16         0.11377
      11 -> 17        -0.12159
      12 -> 15        -0.32401
      12 -> 16         0.43840
      12 -> 19        -0.14611

 Excited State  14:      Singlet-A     10.0222 eV  123.71 nm  f=0.0726  <S**2>=0.000
      10 -> 16        -0.18191
      13 -> 20         0.56441
      13 -> 21         0.33422

 Excited State  15:      Singlet-A     10.1558 eV  122.08 nm  f=0.0756  <S**2>=0.000
       8 -> 16         0.18059
       9 -> 15         0.17979
      10 -> 14        -0.14906
      10 -> 15         0.13610
      11 -> 15         0.12608
      11 -> 16        -0.24001
      11 -> 18         0.19958
      11 -> 19         0.25872
      12 -> 15         0.21189
      12 -> 16         0.17797
      12 -> 17         0.20300
      12 -> 19        -0.11763
      12 -> 20        -0.14827

 The electronic state is 1-A.
 Alpha  occ. eigenvalues --   -1.93833  -1.21175  -0.98377  -0.81491  -0.81369
 Alpha  occ. eigenvalues --   -0.68350  -0.67085  -0.53461  -0.50410  -0.42595
 Alpha  occ. eigenvalues --   -0.41023  -0.38932  -0.28858
 Alpha virt. eigenvalues --    0.13561   0.20126   0.20525   0.25938   0.28046
 Alpha virt. eigenvalues --    0.30185   0.31642   0.34218   0.34812   0.43442
 Alpha virt. eigenvalues --    0.48594

 Mulliken charges:
               1
     1  C   -0.065279
     2  C   -1.923618
     3  O    3.143208
     4  C   -1.947455
     5  C   -0.124176
     6  H    0.162296
     7  H    0.299845
     8  H    0.298958
     9  H    0.156222
 Sum of Mulliken charges =   0.00000

 Dipole moment (field-independent basis, Debye):
    X=             -0.6705    Y=            -10.0904    Z=             -0.2195  Tot=             10.1151
 N-N= 1.039340817992D+02 E-N=-1.692281862227D+02  KE=-1.565815959179D+01
 Orbital energies and kinetic energies (alpha):
                                 1                 2
   1         O                -1.938331         -1.399529
   2         O                -1.211750         -1.074787
   3         O                -0.983767         -0.902794
   4         O                -0.814910         -0.705037
   5         O                -0.813691         -0.630892
   6         O                -0.683503         -0.567668
   7         O                -0.670849         -0.586421

 Normal termination of Gaussian 09 at Tue Dec 15 17:10:00 2015.
