 Gaussian 09, Revision D.01,
 Gaussian 09:  ES64L-G09RevD.01 24-Apr-2013

 ------------------------------------------------------------
 #P AM1(Input,print) CIS(Singlets,NStates=15) pop(full) force
 ------------------------------------------------------------

 -----------------
 AM1-Reparam Input
 -----------------
 Symbolic Z-matrix:
 Charge =  0 Multiplicity = 1

                         Standard orientation:
 ---------------------------------------------------------------------
 Center     Atomic      Atomic             Coordinates (Angstroms)
 Number     Number       Type             X           Y           Z
 ---------------------------------------------------------------------
      1          6           0        0.569653    1.043992    0.004934
      2          6           0        1.183941   -0.220889   -0.006324
      3          8           0        0.135734   -1.131821   -0.002770
      4          6           0       -1.038320   -0.454336    0.013365
      5          6           0       -0.867145    0.820923   -0.009065
      6          1           0       -1.586914    1.554453   -0.018553
      7          1           0       -1.864804   -1.070508   -0.002558
      8          1           0        2.119918   -0.536569    0.003201
      9          1           0        1.157157    1.969053    0.022617
 ---------------------------------------------------------------------

 SCF Done:  E(RAM1) =   2.86564686781     A.U. after   14 cycles

 Excitation energies and oscillator strengths:

 Excited State   1:      Singlet-A      5.1427 eV  241.09 nm  f=0.3401  <S**2>=0.000
      13 -> 14         0.69553
 This state for optimization and/or second-order correction.
 Total Energy, E(CIS) =   3.05463878588
 Copying the excited state density for this state as the 1-particle RhoCI density.

 Excited State   2:      Singlet-A      6.3212 eV  196.14 nm  f=0.0033  <S**2>=0.000
      11 -> 15         0.10744
      13 -> 15         0.65913
      13 -> 17         0.16758
      13 -> 18         0.12630

 Excited State   3:      Singlet-A      6.6693 eV  185.90 nm  f=0.0004  <S**2>=0.000
       9 -> 14        -0.11447
      12 -> 14         0.65752
      13 -> 16        -0.19489

 Excited State   4:      Singlet-A      6.7471 eV  183.76 nm  f=0.0062  <S**2>=0.000
      12 -> 14         0.21565
      13 -> 16         0.61477
      13 -> 17         0.10362
      13 -> 18        -0.21599

 Excited State   5:      Singlet-A      7.5872 eV  163.41 nm  f=0.0052  <S**2>=0.000
      13 -> 15        -0.14339
      13 -> 16         0.11935
      13 -> 17         0.25137
      13 -> 18         0.41657
      13 -> 19        -0.29445
      13 -> 20        -0.27417
      13 -> 21         0.21466

 Excited State   6:      Singlet-A      7.7232 eV  160.54 nm  f=0.0047  <S**2>=0.000
      10 -> 14         0.68791

 Excited State   7:      Singlet-A      8.1434 eV  152.25 nm  f=0.0083  <S**2>=0.000
      10 -> 14        -0.10500
      11 -> 16         0.10814
      13 -> 15        -0.13084
      13 -> 17         0.57298
      13 -> 19         0.29944
      13 -> 20         0.15836

 Excited State   8:      Singlet-A      8.6139 eV  143.94 nm  f=0.1044  <S**2>=0.000
      11 -> 14         0.67806
      12 -> 15        -0.12420

 Excited State   9:      Singlet-A      8.6899 eV  142.68 nm  f=0.0008  <S**2>=0.000
      11 -> 16        -0.12511
      13 -> 16         0.15673
      13 -> 17        -0.20767
      13 -> 18         0.34758
      13 -> 19         0.51981

 Excited State  10:      Singlet-A      9.0745 eV  136.63 nm  f=0.0059  <S**2>=0.000
      13 -> 18         0.33440
      13 -> 19        -0.19871
      13 -> 20         0.51942
      13 -> 21        -0.25094

 Excited State  11:      Singlet-A      9.3628 eV  132.42 nm  f=0.0619  <S**2>=0.000
       8 -> 15        -0.11849
       9 -> 18        -0.10202
      10 -> 16        -0.16608
      10 -> 17        -0.16009
      11 -> 14         0.12998
      12 -> 15         0.48834
      12 -> 16        -0.14553
      12 -> 17         0.11520
      12 -> 18         0.24087
      12 -> 19        -0.14026

 Excited State  12:      Singlet-A      9.4728 eV  130.88 nm  f=0.0844  <S**2>=0.000
      13 -> 20         0.32087
      13 -> 21         0.60355

 Excited State  13:      Singlet-A      9.6675 eV  128.25 nm  f=0.0817  <S**2>=0.000
       9 -> 15         0.13173
      10 -> 15         0.30789
      10 -> 16         0.17532
      10 -> 17         0.22476
      12 -> 15         0.38608
      12 -> 16         0.12120
      12 -> 18        -0.17944
      12 -> 19         0.24041

 Excited State  14:      Singlet-A      9.8471 eV  125.91 nm  f=0.0031  <S**2>=0.000
       9 -> 14         0.67329
      12 -> 14         0.11882

 Excited State  15:      Singlet-A      9.9169 eV  125.02 nm  f=0.1097  <S**2>=0.000
       9 -> 14        -0.11666
      10 -> 16        -0.29597
      10 -> 18         0.10028
      12 -> 16         0.55387
      12 -> 17         0.17379

 The electronic state is 1-A.
 Alpha  occ. eigenvalues --   -1.72125  -1.11991  -0.94544  -0.79955  -0.76381
 Alpha  occ. eigenvalues --   -0.66803  -0.64016  -0.55371  -0.50200  -0.43970
 Alpha  occ. eigenvalues --   -0.43744  -0.40364  -0.28411
 Alpha virt. eigenvalues --    0.10739   0.17900   0.20986   0.25107   0.27257
 Alpha virt. eigenvalues --    0.28109   0.29095   0.30439   0.36148   0.44860
 Alpha virt. eigenvalues --    0.49388

 Mulliken charges:
               1
     1  C   -0.160388
     2  C   -1.968282
     3  O    3.223011
     4  C   -1.923320
     5  C   -0.131913
     6  H    0.182073
     7  H    0.295869
     8  H    0.297252
     9  H    0.185699
 Sum of Mulliken charges =   0.00000

 Dipole moment (field-independent basis, Debye):
    X=              0.4620    Y=            -10.2944    Z=             -0.0880  Tot=             10.3051
 N-N= 1.041915062480D+02 E-N=-1.692821856956D+02  KE=-1.481203350778D+01
 Orbital energies and kinetic energies (alpha):
                                 1                 2
   1         O                -1.721248         -1.209510
   2         O                -1.119914         -0.979895
   3         O                -0.945443         -0.860046
   4         O                -0.799547         -0.603018
   5         O                -0.763811         -0.694301
   6         O                -0.668031         -0.561591
   7         O                -0.640161         -0.519722

 Normal termination of Gaussian 09 at Tue Dec 15 17:05:57 2015.
