 Gaussian 09, Revision D.01,
 Gaussian 09:  ES64L-G09RevD.01 24-Apr-2013

 ------------------------------------------------------------
 #P AM1(Input,print) CIS(Singlets,NStates=15) pop(full) force
 ------------------------------------------------------------

 -----------------
 AM1-Reparam Input
 -----------------
 Symbolic Z-matrix:
 Charge =  0 Multiplicity = 1

                         Standard orientation:
 ---------------------------------------------------------------------
 Center     Atomic      Atomic             Coordinates (Angstroms)
 Number     Number       Type             X           Y           Z
 ---------------------------------------------------------------------
      1          6           0       -0.539353    1.061019   -0.012649
      2          6           0       -1.170045   -0.182549    0.028961
      3          8           0       -0.201308   -1.090727   -0.017120
      4          6           0        1.014732   -0.522020   -0.001889
      5          6           0        0.911592    0.780923   -0.009582
      6          1           0        1.622497    1.557458    0.076031
      7          1           0        1.845513   -1.197540    0.044122
      8          1           0       -2.155868   -0.461706    0.015911
      9          1           0       -1.003236    2.003364   -0.028147
 ---------------------------------------------------------------------

 SCF Done:  E(RAM1) =  -5.39833590842     A.U. after   14 cycles

 Excitation energies and oscillator strengths:

 Excited State   1:      Singlet-A      5.6406 eV  219.81 nm  f=0.0043  <S**2>=0.000
      13 -> 14        -0.10769
      13 -> 15         0.69219
 This state for optimization and/or second-order correction.
 Total Energy, E(CIS) =  -5.19104689056
 Copying the excited state density for this state as the 1-particle RhoCI density.

 Excited State   2:      Singlet-A      6.4910 eV  191.01 nm  f=0.2697  <S**2>=0.000
      13 -> 14         0.67821
      13 -> 15         0.10535

 Excited State   3:      Singlet-A      7.4525 eV  166.37 nm  f=0.0753  <S**2>=0.000
      11 -> 15         0.10217
      12 -> 14         0.22975
      13 -> 16         0.65421

 Excited State   4:      Singlet-A      7.8493 eV  157.96 nm  f=0.0005  <S**2>=0.000
      11 -> 14         0.20454
      13 -> 17         0.64990
      13 -> 19         0.12607

 Excited State   5:      Singlet-A      8.3409 eV  148.65 nm  f=0.0002  <S**2>=0.000
      11 -> 14         0.39158
      12 -> 15         0.56210
      13 -> 17        -0.13817

 Excited State   6:      Singlet-A      8.3987 eV  147.62 nm  f=0.0021  <S**2>=0.000
      11 -> 14         0.52035
      12 -> 14         0.14632
      12 -> 15        -0.40042
      13 -> 17        -0.17289

 Excited State   7:      Singlet-A      9.1173 eV  135.99 nm  f=0.0174  <S**2>=0.000
      10 -> 14         0.67206
      12 -> 14        -0.12717

 Excited State   8:      Singlet-A      9.2929 eV  133.42 nm  f=0.2742  <S**2>=0.000
      10 -> 14         0.13774
      11 -> 15        -0.23499
      12 -> 14         0.59288
      12 -> 15         0.10236
      13 -> 16        -0.17299

 Excited State   9:      Singlet-A      9.6548 eV  128.42 nm  f=0.0181  <S**2>=0.000
      13 -> 18         0.48564
      13 -> 19         0.32658
      13 -> 20        -0.10228
      13 -> 21         0.34545

 Excited State  10:      Singlet-A      9.8364 eV  126.05 nm  f=0.0213  <S**2>=0.000
      12 -> 16         0.17267
      13 -> 18         0.46992
      13 -> 19        -0.24664
      13 -> 20         0.19254
      13 -> 21        -0.33831

 Excited State  11:      Singlet-A      9.9411 eV  124.72 nm  f=0.1878  <S**2>=0.000
      10 -> 15        -0.10944
      11 -> 15        -0.35706
      12 -> 16         0.52904
      13 -> 18        -0.14629
      13 -> 21         0.10480

 Excited State  12:      Singlet-A      9.9864 eV  124.15 nm  f=0.2843  <S**2>=0.000
      10 -> 17         0.10195
      11 -> 15         0.50864
      12 -> 14         0.18502
      12 -> 16         0.37419
      13 -> 16        -0.14853

 Excited State  13:      Singlet-A     10.2523 eV  120.93 nm  f=0.0060  <S**2>=0.000
      13 -> 19         0.35645
      13 -> 20         0.58326

 Excited State  14:      Singlet-A     10.5720 eV  117.28 nm  f=0.0091  <S**2>=0.000
       8 -> 14        -0.11748
      11 -> 16         0.66862

 Excited State  15:      Singlet-A     10.8474 eV  114.30 nm  f=0.0617  <S**2>=0.000
      10 -> 15         0.51062
      11 -> 17         0.11991
      12 -> 17         0.33423
      13 -> 19        -0.14827
      13 -> 20         0.13106
      13 -> 21         0.18674

 The electronic state is 1-A.
 Alpha  occ. eigenvalues --   -3.73701  -1.26820  -0.96502  -0.93089  -0.92638
 Alpha  occ. eigenvalues --   -0.85765  -0.83058  -0.68282  -0.64633  -0.59454
 Alpha  occ. eigenvalues --   -0.57268  -0.53814  -0.43146
 Alpha virt. eigenvalues --   -0.00031   0.02718   0.05334   0.11529   0.17859
 Alpha virt. eigenvalues --    0.19370   0.19647   0.19970   0.22004   0.27014
 Alpha virt. eigenvalues --    0.27410

 Mulliken charges:
               1
     1  C   -0.425715
     2  C   -1.185188
     3  O    2.346558
     4  C   -1.166308
     5  C   -0.387743
     6  H    0.241893
     7  H    0.176572
     8  H    0.164215
     9  H    0.235716
 Sum of Mulliken charges =   0.00000

 Dipole moment (field-independent basis, Debye):
    X=             -1.0156    Y=             -7.6772    Z=             -0.1376  Tot=              7.7453
 N-N= 1.024044148306D+02 E-N=-1.672266953119D+02  KE=-2.241542811362D+01
 Orbital energies and kinetic energies (alpha):
                                 1                 2
   1         O                -3.737005         -3.050932
   2         O                -1.268203         -1.094039
   3         O                -0.965016         -0.776731
   4         O                -0.930890         -0.889928
   5         O                -0.926376         -0.837198
   6         O                -0.857646         -0.764146
   7         O                -0.830577         -0.686471

 Normal termination of Gaussian 09 at Fri Dec 11 13:41:27 2015.
