 Gaussian 09, Revision D.01,
 Gaussian 09:  ES64L-G09RevD.01 24-Apr-2013

 ------------------------------------------------------------
 #P AM1(Input,print) CIS(Singlets,NStates=15) pop(full) force
 ------------------------------------------------------------

 -----------------
 AM1-Reparam Input
 -----------------
 Symbolic Z-matrix:
 Charge =  0 Multiplicity = 1

                         Standard orientation:
 ---------------------------------------------------------------------
 Center     Atomic      Atomic             Coordinates (Angstroms)
 Number     Number       Type             X           Y           Z
 ---------------------------------------------------------------------
      1          6           0        0.620232    1.021634   -0.011508
      2          6           0       -0.753987    0.813278   -0.000132
      3          8           0       -1.092145   -0.443872    0.008531
      4          6           0        0.103143   -1.113403   -0.010312
      5          6           0        1.170354   -0.257542    0.001872
      6          1           0        2.244777   -0.537404    0.008794
      7          1           0        0.078390   -2.216367    0.013477
      8          1           0       -1.523544    1.522542   -0.021462
      9          1           0        1.099085    1.998400    0.051417
 ---------------------------------------------------------------------

 SCF Done:  E(RAM1) =   1.69230156527     A.U. after   14 cycles

 Excitation energies and oscillator strengths:

 Excited State   1:      Singlet-A      5.6629 eV  218.94 nm  f=0.3244  <S**2>=0.000
      10 -> 17         0.10429
      13 -> 14         0.69232
 This state for optimization and/or second-order correction.
 Total Energy, E(CIS) =   1.90041103383
 Copying the excited state density for this state as the 1-particle RhoCI density.

 Excited State   2:      Singlet-A      6.4630 eV  191.84 nm  f=0.0053  <S**2>=0.000
      13 -> 15         0.64464
      13 -> 17         0.24050

 Excited State   3:      Singlet-A      6.8065 eV  182.16 nm  f=0.0002  <S**2>=0.000
      11 -> 15        -0.11632
      11 -> 16        -0.11520
      13 -> 16         0.64746
      13 -> 20         0.15698

 Excited State   4:      Singlet-A      7.3308 eV  169.13 nm  f=0.0004  <S**2>=0.000
      12 -> 14         0.67668
      13 -> 21        -0.14187

 Excited State   5:      Singlet-A      7.8913 eV  157.11 nm  f=0.0199  <S**2>=0.000
      10 -> 14        -0.21807
      11 -> 16         0.11004
      13 -> 15        -0.20258
      13 -> 17         0.61336

 Excited State   6:      Singlet-A      7.9522 eV  155.91 nm  f=0.0000  <S**2>=0.000
      12 -> 14         0.16818
      13 -> 18         0.10744
      13 -> 19        -0.10516
      13 -> 20         0.25892
      13 -> 21         0.59290

 Excited State   7:      Singlet-A      8.1402 eV  152.31 nm  f=0.0004  <S**2>=0.000
      10 -> 14         0.65374
      13 -> 17         0.21331

 Excited State   8:      Singlet-A      8.5195 eV  145.53 nm  f=0.0001  <S**2>=0.000
      13 -> 16         0.11861
      13 -> 18         0.63575
      13 -> 19         0.18226
      13 -> 20        -0.14074

 Excited State   9:      Singlet-A      8.6773 eV  142.88 nm  f=0.0903  <S**2>=0.000
      11 -> 14         0.67307

 Excited State  10:      Singlet-A      8.7483 eV  141.72 nm  f=0.0017  <S**2>=0.000
      13 -> 18        -0.23708
      13 -> 19         0.44721
      13 -> 20        -0.35467
      13 -> 21         0.31012

 Excited State  11:      Singlet-A      9.1155 eV  136.01 nm  f=0.0904  <S**2>=0.000
      13 -> 19         0.45894
      13 -> 20         0.49020
      13 -> 21        -0.12305

 Excited State  12:      Singlet-A      9.4081 eV  131.78 nm  f=0.0166  <S**2>=0.000
       8 -> 15        -0.15840
       9 -> 15         0.13860
      10 -> 15         0.31258
      10 -> 16         0.10306
      10 -> 17         0.30443
      12 -> 15         0.15810
      12 -> 16        -0.29169
      12 -> 18         0.15440
      12 -> 21        -0.19276

 Excited State  13:      Singlet-A      9.4541 eV  131.14 nm  f=0.0030  <S**2>=0.000
      11 -> 15         0.62497
      11 -> 17         0.13904
      13 -> 15        -0.12488
      13 -> 16         0.13676
      13 -> 19         0.10401

 Excited State  14:      Singlet-A      9.8918 eV  125.34 nm  f=0.0767  <S**2>=0.000
       8 -> 16         0.13822
      10 -> 15        -0.11908
      10 -> 18        -0.11154
      10 -> 21         0.10789
      11 -> 14         0.11266
      11 -> 16        -0.22235
      12 -> 15         0.53444
      12 -> 16         0.10824
      12 -> 19         0.17645

 Excited State  15:      Singlet-A      9.9679 eV  124.38 nm  f=0.0238  <S**2>=0.000
       8 -> 16         0.11132
      10 -> 15         0.10099
      11 -> 16         0.54592
      12 -> 15         0.13705
      12 -> 16         0.18998
      13 -> 15         0.10316
      13 -> 16         0.12394

 The electronic state is 1-A.
 Alpha  occ. eigenvalues --   -1.91934  -1.22686  -0.98472  -0.81936  -0.80186
 Alpha  occ. eigenvalues --   -0.68648  -0.63753  -0.53082  -0.51463  -0.43161
 Alpha  occ. eigenvalues --   -0.41466  -0.41006  -0.28625
 Alpha virt. eigenvalues --    0.13481   0.18112   0.19289   0.24810   0.26789
 Alpha virt. eigenvalues --    0.28332   0.29099   0.30558   0.38607   0.47874
 Alpha virt. eigenvalues --    0.51781

 Mulliken charges:
               1
     1  C   -0.145875
     2  C   -1.967929
     3  O    3.170193
     4  C   -1.946761
     5  C   -0.060181
     6  H    0.167056
     7  H    0.300383
     8  H    0.308100
     9  H    0.175012
 Sum of Mulliken charges =   0.00000

 Dipole moment (field-independent basis, Debye):
    X=             -9.4124    Y=             -3.7771    Z=              0.2485  Tot=             10.1450
 N-N= 1.042064796197D+02 E-N=-1.699322275367D+02  KE=-1.576777193175D+01
 Orbital energies and kinetic energies (alpha):
                                 1                 2
   1         O                -1.919345         -1.400969
   2         O                -1.226861         -1.113114
   3         O                -0.984724         -0.905328
   4         O                -0.819359         -0.637744
   5         O                -0.801862         -0.692034
   6         O                -0.686482         -0.584854
   7         O                -0.637533         -0.516173

 Normal termination of Gaussian 09 at Tue Dec 15 17:07:02 2015.
