 Gaussian 09, Revision D.01,
 Gaussian 09:  ES64L-G09RevD.01 24-Apr-2013

 ------------------------------------------------------------
 #P AM1(Input,print) CIS(Singlets,NStates=15) pop(full) force
 ------------------------------------------------------------

 -----------------
 AM1-Reparam Input
 -----------------
 Symbolic Z-matrix:
 Charge =  0 Multiplicity = 1

                         Standard orientation:
 ---------------------------------------------------------------------
 Center     Atomic      Atomic             Coordinates (Angstroms)
 Number     Number       Type             X           Y           Z
 ---------------------------------------------------------------------
      1          6           0        0.924730    0.802116   -0.001519
      2          6           0        0.978904   -0.505533   -0.017753
      3          8           0       -0.216221   -1.150469    0.005277
      4          6           0       -1.100722   -0.163239    0.001189
      5          6           0       -0.573084    1.091656    0.000874
      6          1           0       -1.070051    1.991082   -0.016060
      7          1           0       -2.123968   -0.465702    0.005121
      8          1           0        1.856634   -1.238558    0.028856
      9          1           0        1.688186    1.566931    0.043121
 ---------------------------------------------------------------------

 SCF Done:  E(RAM1) =   2.07680797514     A.U. after   13 cycles

 Excitation energies and oscillator strengths:

 Excited State   1:      Singlet-A      4.9959 eV  248.17 nm  f=0.3589  <S**2>=0.000
      13 -> 14         0.69709
 This state for optimization and/or second-order correction.
 Total Energy, E(CIS) =   2.26040350038
 Copying the excited state density for this state as the 1-particle RhoCI density.

 Excited State   2:      Singlet-A      6.1565 eV  201.39 nm  f=0.0000  <S**2>=0.000
      13 -> 15         0.52763
      13 -> 16        -0.34937
      13 -> 17        -0.22891
      13 -> 18         0.19110

 Excited State   3:      Singlet-A      6.3743 eV  194.51 nm  f=0.0068  <S**2>=0.000
      13 -> 15         0.38845
      13 -> 16         0.53590
      13 -> 17         0.17901
      13 -> 18         0.12116

 Excited State   4:      Singlet-A      6.3884 eV  194.08 nm  f=0.0003  <S**2>=0.000
      12 -> 14         0.69964

 Excited State   5:      Singlet-A      7.4136 eV  167.24 nm  f=0.0013  <S**2>=0.000
      13 -> 15        -0.18539
      13 -> 16         0.17501
      13 -> 17        -0.36100
      13 -> 18         0.39542
      13 -> 19        -0.31955
      13 -> 20         0.18280

 Excited State   6:      Singlet-A      7.9744 eV  155.48 nm  f=0.0105  <S**2>=0.000
      10 -> 14         0.68205
      11 -> 14        -0.10260

 Excited State   7:      Singlet-A      8.2359 eV  150.54 nm  f=0.0246  <S**2>=0.000
      10 -> 14        -0.12279
      13 -> 16        -0.16945
      13 -> 17         0.44457
      13 -> 18         0.47986

 Excited State   8:      Singlet-A      8.5756 eV  144.58 nm  f=0.0004  <S**2>=0.000
      13 -> 16         0.10132
      13 -> 17        -0.25523
      13 -> 18         0.19708
      13 -> 19         0.59315
      13 -> 20        -0.12285

 Excited State   9:      Singlet-A      8.6700 eV  143.00 nm  f=0.1108  <S**2>=0.000
      10 -> 14         0.10499
      11 -> 14         0.66458
      12 -> 15         0.13773

 Excited State  10:      Singlet-A      9.2029 eV  134.72 nm  f=0.2548  <S**2>=0.000
       8 -> 15         0.10250
      10 -> 18         0.11355
      11 -> 14        -0.13516
      12 -> 15         0.43627
      12 -> 16        -0.30236
      12 -> 17        -0.25770
      12 -> 18         0.20899
      12 -> 19        -0.12770

 Excited State  11:      Singlet-A      9.3185 eV  133.05 nm  f=0.0098  <S**2>=0.000
      13 -> 19         0.18178
      13 -> 20         0.64697
      13 -> 21         0.16768

 Excited State  12:      Singlet-A      9.6666 eV  128.26 nm  f=0.0551  <S**2>=0.000
      13 -> 20        -0.14933
      13 -> 21         0.67309

 Excited State  13:      Singlet-A      9.7931 eV  126.60 nm  f=0.0326  <S**2>=0.000
       9 -> 15        -0.10094
      10 -> 18        -0.10699
      11 -> 14        -0.10164
      12 -> 15         0.44995
      12 -> 16         0.40731
      12 -> 17         0.21446

 Excited State  14:      Singlet-A     10.1173 eV  122.55 nm  f=0.0564  <S**2>=0.000
       8 -> 16        -0.10748
      10 -> 16         0.21475
      10 -> 17         0.13516
      12 -> 15        -0.14087
      12 -> 16         0.37014
      12 -> 17        -0.14553
      12 -> 18         0.30988
      12 -> 19        -0.32305

 Excited State  15:      Singlet-A     10.1852 eV  121.73 nm  f=0.0015  <S**2>=0.000
       7 -> 15        -0.12587
      11 -> 15         0.57739
      11 -> 16         0.31184
      11 -> 18         0.11405
      13 -> 15        -0.11064

 The electronic state is 1-A.
 Alpha  occ. eigenvalues --   -1.94757  -1.18540  -0.95597  -0.82869  -0.77490
 Alpha  occ. eigenvalues --   -0.69091  -0.65100  -0.53306  -0.52786  -0.44964
 Alpha  occ. eigenvalues --   -0.44148  -0.39756  -0.27286
 Alpha virt. eigenvalues --    0.10793   0.17765   0.19117   0.26681   0.27119
 Alpha virt. eigenvalues --    0.29995   0.30955   0.32398   0.36726   0.46071
 Alpha virt. eigenvalues --    0.49525

 Mulliken charges:
               1
     1  C   -0.179366
     2  C   -1.956338
     3  O    3.158818
     4  C   -1.993967
     5  C   -0.250927
     6  H    0.245977
     7  H    0.367646
     8  H    0.362438
     9  H    0.245721
 Sum of Mulliken charges =   0.00000

 Dipole moment (field-independent basis, Debye):
    X=             -1.6664    Y=            -10.7397    Z=              0.3121  Tot=             10.8727
 N-N= 1.044043542188D+02 E-N=-1.698545458178D+02  KE=-1.548674243241D+01
 Orbital energies and kinetic energies (alpha):
                                 1                 2
   1         O                -1.947569         -1.400486
   2         O                -1.185397         -1.063877
   3         O                -0.955972         -0.870658
   4         O                -0.828687         -0.606833
   5         O                -0.774897         -0.663425
   6         O                -0.690915         -0.558985
   7         O                -0.651001         -0.518945

 Normal termination of Gaussian 09 at Tue Dec 15 17:07:22 2015.
