 Gaussian 09, Revision D.01,
 Gaussian 09:  ES64L-G09RevD.01 24-Apr-2013

 ------------------------------------------------------------
 #P AM1(Input,print) CIS(Singlets,NStates=15) pop(full) force
 ------------------------------------------------------------

 -----------------
 AM1-Reparam Input
 -----------------
 Symbolic Z-matrix:
 Charge =  0 Multiplicity = 1

                         Standard orientation:
 ---------------------------------------------------------------------
 Center     Atomic      Atomic             Coordinates (Angstroms)
 Number     Number       Type             X           Y           Z
 ---------------------------------------------------------------------
      1          6           0       -1.020417    0.619512   -0.026118
      2          6           0       -0.891285   -0.654347    0.012216
      3          8           0        0.411707   -1.029125   -0.003098
      4          6           0        1.176884    0.035336   -0.000925
      5          6           0        0.295869    1.087925    0.013852
      6          1           0        0.646310    2.146935   -0.021383
      7          1           0        2.242712   -0.100238    0.002443
      8          1           0       -1.675040   -1.535533   -0.006018
      9          1           0       -1.873945    1.191277    0.055588
 ---------------------------------------------------------------------

 SCF Done:  E(RAM1) =   1.76645736595     A.U. after   14 cycles

 Excitation energies and oscillator strengths:

 Excited State   1:      Singlet-A      5.4644 eV  226.89 nm  f=0.3377  <S**2>=0.000
      13 -> 14         0.69177
 This state for optimization and/or second-order correction.
 Total Energy, E(CIS) =   1.96726998794
 Copying the excited state density for this state as the 1-particle RhoCI density.

 Excited State   2:      Singlet-A      6.7799 eV  182.87 nm  f=0.0011  <S**2>=0.000
      10 -> 15         0.11511
      13 -> 15         0.67756

 Excited State   3:      Singlet-A      6.9149 eV  179.30 nm  f=0.0004  <S**2>=0.000
      12 -> 14         0.69515

 Excited State   4:      Singlet-A      7.2545 eV  170.91 nm  f=0.0038  <S**2>=0.000
      13 -> 16         0.66326
      13 -> 17        -0.14756
      13 -> 18        -0.12333

 Excited State   5:      Singlet-A      7.9454 eV  156.04 nm  f=0.0070  <S**2>=0.000
      11 -> 14         0.70051

 Excited State   6:      Singlet-A      8.6805 eV  142.83 nm  f=0.0045  <S**2>=0.000
      13 -> 17        -0.45457
      13 -> 18         0.47497
      13 -> 21         0.16926
      13 -> 22        -0.10368

 Excited State   7:      Singlet-A      9.2143 eV  134.56 nm  f=0.0078  <S**2>=0.000
      10 -> 16        -0.12289
      13 -> 16         0.16837
      13 -> 17         0.49715
      13 -> 18         0.42001
      13 -> 21         0.10296

 Excited State   8:      Singlet-A      9.3690 eV  132.33 nm  f=0.0669  <S**2>=0.000
       8 -> 15         0.12753
      10 -> 14         0.42063
      11 -> 18        -0.11759
      12 -> 15         0.46812

 Excited State   9:      Singlet-A      9.7650 eV  126.97 nm  f=0.0477  <S**2>=0.000
      10 -> 14        -0.38698
      12 -> 15         0.25010
      12 -> 16        -0.18346
      12 -> 18         0.11501
      13 -> 19         0.45020

 Excited State  10:      Singlet-A      9.7704 eV  126.90 nm  f=0.0442  <S**2>=0.000
      10 -> 14         0.32847
      12 -> 15        -0.23369
      12 -> 16         0.15494
      13 -> 19         0.51728

 Excited State  11:      Singlet-A     10.0300 eV  123.61 nm  f=0.1823  <S**2>=0.000
       9 -> 16        -0.11253
      10 -> 14        -0.10868
      11 -> 16         0.25437
      11 -> 17        -0.13686
      12 -> 16         0.49864
      12 -> 17        -0.29082

 Excited State  12:      Singlet-A     10.1163 eV  122.56 nm  f=0.0999  <S**2>=0.000
      10 -> 14         0.12614
      11 -> 15         0.35413
      11 -> 16         0.11119
      11 -> 17        -0.17731
      12 -> 15        -0.23611
      12 -> 16        -0.31581
      12 -> 17        -0.12019
      12 -> 18         0.30542

 Excited State  13:      Singlet-A     10.5589 eV  117.42 nm  f=0.0576  <S**2>=0.000
      13 -> 18         0.20666
      13 -> 20         0.59756
      13 -> 21        -0.23641
      13 -> 22         0.14662

 Excited State  14:      Singlet-A     10.6685 eV  116.22 nm  f=0.0248  <S**2>=0.000
       9 -> 15         0.22042
      10 -> 14        -0.11000
      11 -> 15         0.48688
      11 -> 19         0.17606
      12 -> 15         0.14068
      12 -> 16         0.12301
      12 -> 17         0.21910
      12 -> 18        -0.18018

 Excited State  15:      Singlet-A     10.9860 eV  112.86 nm  f=0.0367  <S**2>=0.000
       9 -> 14        -0.23982
      10 -> 16        -0.14760
      13 -> 18        -0.15585
      13 -> 20         0.30307
      13 -> 21         0.45245
      13 -> 22        -0.28131

 The electronic state is 1-A.
 Alpha  occ. eigenvalues --   -1.93075  -1.20012  -0.93448  -0.83023  -0.78060
 Alpha  occ. eigenvalues --   -0.69768  -0.69546  -0.57987  -0.54848  -0.47912
 Alpha  occ. eigenvalues --   -0.44742  -0.41316  -0.30743
 Alpha virt. eigenvalues --    0.10873   0.16464   0.18895   0.26436   0.28336
 Alpha virt. eigenvalues --    0.30251   0.32451   0.35855   0.35925   0.44121
 Alpha virt. eigenvalues --    0.48697

 Mulliken charges:
               1
     1  C   -0.120011
     2  C   -2.009886
     3  O    3.303164
     4  C   -2.038453
     5  C   -0.249530
     6  H    0.221738
     7  H    0.338892
     8  H    0.347215
     9  H    0.206872
 Sum of Mulliken charges =   0.00000

 Dipole moment (field-independent basis, Debye):
    X=              3.0788    Y=             -9.8111    Z=             -0.1319  Tot=             10.2837
 N-N= 1.047734227741D+02 E-N=-1.707634602992D+02  KE=-1.556087352980D+01
 Orbital energies and kinetic energies (alpha):
                                 1                 2
   1         O                -1.930748         -1.412966
   2         O                -1.200118         -1.062669
   3         O                -0.934483         -0.889845
   4         O                -0.830233         -0.567745
   5         O                -0.780604         -0.690235
   6         O                -0.697681         -0.553198
   7         O                -0.695460         -0.585959

 Normal termination of Gaussian 09 at Tue Dec 15 17:09:37 2015.
