 Gaussian 09, Revision D.01,
 Gaussian 09:  ES64L-G09RevD.01 24-Apr-2013

 ------------------------------------------------------------
 #P AM1(Input,print) CIS(Singlets,NStates=15) pop(full) force
 ------------------------------------------------------------

 -----------------
 AM1-Reparam Input
 -----------------
 Symbolic Z-matrix:
 Charge =  0 Multiplicity = 1

                         Standard orientation:
 ---------------------------------------------------------------------
 Center     Atomic      Atomic             Coordinates (Angstroms)
 Number     Number       Type             X           Y           Z
 ---------------------------------------------------------------------
      1          6           0       -0.281351    1.148219   -0.011564
      2          6           0       -1.110725    0.093769    0.001486
      3          8           0       -0.445888   -1.085625   -0.008252
      4          6           0        0.885337   -0.704822   -0.005958
      5          6           0        1.004143    0.621537    0.018903
      6          1           0        1.947620    1.175873   -0.023501
      7          1           0        1.577096   -1.497072    0.026344
      8          1           0       -2.272191   -0.085348    0.053848
      9          1           0       -0.669843    2.139323   -0.007879
 ---------------------------------------------------------------------

 SCF Done:  E(RAM1) =   1.82813139685     A.U. after   14 cycles

 Excitation energies and oscillator strengths:

 Excited State   1:      Singlet-A      5.6110 eV  220.97 nm  f=0.3204  <S**2>=0.000
      11 -> 17        -0.10014
      13 -> 14         0.68775
 This state for optimization and/or second-order correction.
 Total Energy, E(CIS) =   2.03433117685
 Copying the excited state density for this state as the 1-particle RhoCI density.

 Excited State   2:      Singlet-A      6.3890 eV  194.06 nm  f=0.0019  <S**2>=0.000
      10 -> 15         0.11373
      13 -> 15         0.67513
      13 -> 17         0.13870

 Excited State   3:      Singlet-A      6.9217 eV  179.12 nm  f=0.0036  <S**2>=0.000
      10 -> 16        -0.10574
      13 -> 16         0.67416
      13 -> 19         0.11779

 Excited State   4:      Singlet-A      7.7960 eV  159.04 nm  f=0.0004  <S**2>=0.000
      12 -> 14         0.69937

 Excited State   5:      Singlet-A      8.2194 eV  150.84 nm  f=0.0077  <S**2>=0.000
      11 -> 14         0.67390
      13 -> 17         0.13874

 Excited State   6:      Singlet-A      8.3854 eV  147.86 nm  f=0.0004  <S**2>=0.000
      11 -> 14        -0.15165
      13 -> 17         0.31630
      13 -> 18         0.54818
      13 -> 21         0.22217

 Excited State   7:      Singlet-A      8.7628 eV  141.49 nm  f=0.0128  <S**2>=0.000
      10 -> 16         0.10354
      13 -> 17         0.56919
      13 -> 18        -0.33836

 Excited State   8:      Singlet-A      9.2274 eV  134.37 nm  f=0.0681  <S**2>=0.000
      10 -> 14         0.65884

 Excited State   9:      Singlet-A      9.5268 eV  130.14 nm  f=0.0002  <S**2>=0.000
      10 -> 16         0.12625
      13 -> 17         0.10428
      13 -> 19         0.66602

 Excited State  10:      Singlet-A      9.7098 eV  127.69 nm  f=0.0020  <S**2>=0.000
       8 -> 16        -0.12604
       9 -> 15         0.18389
      11 -> 16        -0.21887
      11 -> 17        -0.22417
      11 -> 18         0.10858
      12 -> 15         0.40904
      12 -> 16        -0.13815
      12 -> 17         0.13968
      12 -> 18         0.25928
      13 -> 14        -0.10406

 Excited State  11:      Singlet-A      9.9013 eV  125.22 nm  f=0.2158  <S**2>=0.000
      10 -> 14         0.10644
      11 -> 15         0.52472
      11 -> 16         0.11077
      11 -> 17         0.17328
      12 -> 15         0.34108
      12 -> 18        -0.11265

 Excited State  12:      Singlet-A     10.1089 eV  122.65 nm  f=0.0084  <S**2>=0.000
       7 -> 15        -0.11031
      10 -> 15         0.64740
      13 -> 15        -0.13938

 Excited State  13:      Singlet-A     10.3258 eV  120.07 nm  f=0.1521  <S**2>=0.000
      11 -> 15         0.12478
      11 -> 16        -0.27978
      11 -> 19        -0.13207
      12 -> 16         0.56544
      12 -> 17         0.14045
      12 -> 19         0.12248

 Excited State  14:      Singlet-A     10.5803 eV  117.18 nm  f=0.0065  <S**2>=0.000
      13 -> 18        -0.23676
      13 -> 21         0.63011

 Excited State  15:      Singlet-A     10.6323 eV  116.61 nm  f=0.0872  <S**2>=0.000
       8 -> 16         0.12512
       9 -> 15         0.20194
      10 -> 14         0.13288
      10 -> 16        -0.18940
      11 -> 15        -0.17370
      11 -> 16         0.12338
      11 -> 18         0.12453
      11 -> 19         0.15348
      12 -> 15         0.19455
      12 -> 16         0.25163
      12 -> 17        -0.14478
      12 -> 18        -0.17178
      13 -> 20         0.29887
      13 -> 21         0.13825

 The electronic state is 1-A.
 Alpha  occ. eigenvalues --   -1.99403  -1.29028  -0.99879  -0.89563  -0.84710
 Alpha  occ. eigenvalues --   -0.76141  -0.74742  -0.61855  -0.61484  -0.51483
 Alpha  occ. eigenvalues --   -0.50498  -0.49317  -0.36292
 Alpha virt. eigenvalues --    0.06021   0.09455   0.12732   0.19719   0.21685
 Alpha virt. eigenvalues --    0.23572   0.26860   0.28634   0.28792   0.37479
 Alpha virt. eigenvalues --    0.41596

 Mulliken charges:
               1
     1  C   -0.148595
     2  C   -1.880393
     3  O    3.158579
     4  C   -1.874984
     5  C   -0.108002
     6  H    0.149297
     7  H    0.269587
     8  H    0.284820
     9  H    0.149689
 Sum of Mulliken charges =   0.00000

 Dipole moment (field-independent basis, Debye):
    X=             -4.6250    Y=            -10.4110    Z=              0.0464  Tot=             11.3922
 N-N= 1.058837954567D+02 E-N=-1.711478540877D+02  KE=-1.567557872207D+01
 Orbital energies and kinetic energies (alpha):
                                 1                 2
   1         O                -1.994031         -1.375446
   2         O                -1.290284         -1.072247
   3         O                -0.998789         -0.894328
   4         O                -0.895631         -0.582528
   5         O                -0.847105         -0.681522
   6         O                -0.761408         -0.609134
   7         O                -0.747424         -0.555474

 Normal termination of Gaussian 09 at Tue Dec 15 17:09:00 2015.
