 Gaussian 09, Revision D.01,
 Gaussian 09:  ES64L-G09RevD.01 24-Apr-2013

 ------------------------------------------------------------
 #P AM1(Input,print) CIS(Singlets,NStates=15) pop(full) force
 ------------------------------------------------------------

 -----------------
 AM1-Reparam Input
 -----------------
 Symbolic Z-matrix:
 Charge =  0 Multiplicity = 1

                         Standard orientation:
 ---------------------------------------------------------------------
 Center     Atomic      Atomic             Coordinates (Angstroms)
 Number     Number       Type             X           Y           Z
 ---------------------------------------------------------------------
      1          6           0       -0.771177    0.857452   -0.007565
      2          6           0       -1.028867   -0.432706    0.000097
      3          8           0        0.101544   -1.122845   -0.009403
      4          6           0        1.127116   -0.225692    0.001740
      5          6           0        0.584698    0.984843    0.015259
      6          1           0        1.141704    1.894237   -0.041266
      7          1           0        2.137814   -0.626432    0.017541
      8          1           0       -1.978290   -1.078726    0.041361
      9          1           0       -1.584198    1.690297    0.000396
 ---------------------------------------------------------------------

 SCF Done:  E(RAM1) =   2.15185886936     A.U. after   13 cycles

 Excitation energies and oscillator strengths:

 Excited State   1:      Singlet-A      5.7189 eV  216.80 nm  f=0.3173  <S**2>=0.000
      13 -> 14         0.69057
 This state for optimization and/or second-order correction.
 Total Energy, E(CIS) =   2.36202459309
 Copying the excited state density for this state as the 1-particle RhoCI density.

 Excited State   2:      Singlet-A      6.2429 eV  198.60 nm  f=0.0025  <S**2>=0.000
      10 -> 15         0.13102
      13 -> 15         0.67513
      13 -> 17        -0.10025

 Excited State   3:      Singlet-A      6.7924 eV  182.53 nm  f=0.0013  <S**2>=0.000
      10 -> 16        -0.12847
      13 -> 16         0.66680
      13 -> 17        -0.12275
      13 -> 19        -0.10818

 Excited State   4:      Singlet-A      7.4454 eV  166.53 nm  f=0.0002  <S**2>=0.000
      12 -> 14         0.69611

 Excited State   5:      Singlet-A      7.9367 eV  156.22 nm  f=0.0087  <S**2>=0.000
      11 -> 14         0.66281
      13 -> 17        -0.21157

 Excited State   6:      Singlet-A      8.2410 eV  150.45 nm  f=0.0029  <S**2>=0.000
      11 -> 14         0.20448
      13 -> 17         0.62270
      13 -> 18        -0.14720
      13 -> 22        -0.12805

 Excited State   7:      Singlet-A      8.2962 eV  149.45 nm  f=0.0029  <S**2>=0.000
      13 -> 17         0.15965
      13 -> 18         0.58392
      13 -> 19        -0.10964
      13 -> 22         0.29542

 Excited State   8:      Singlet-A      9.1960 eV  134.82 nm  f=0.0313  <S**2>=0.000
       8 -> 15        -0.10312
      10 -> 14         0.59005
      12 -> 15         0.29212
      13 -> 21        -0.12340

 Excited State   9:      Singlet-A      9.2659 eV  133.81 nm  f=0.0012  <S**2>=0.000
      10 -> 16        -0.10492
      13 -> 18         0.22419
      13 -> 19         0.62027
      13 -> 22        -0.15723

 Excited State  10:      Singlet-A      9.4613 eV  131.04 nm  f=0.0648  <S**2>=0.000
       8 -> 15        -0.12205
      10 -> 14        -0.26249
      11 -> 17        -0.17746
      12 -> 15         0.50572
      12 -> 16        -0.19000
      12 -> 18        -0.19155

 Excited State  11:      Singlet-A      9.6798 eV  128.09 nm  f=0.1310  <S**2>=0.000
       9 -> 15        -0.15461
      10 -> 14         0.12205
      11 -> 15         0.46027
      11 -> 16         0.16058
      11 -> 17        -0.28932
      12 -> 15        -0.18607
      12 -> 17         0.12580
      12 -> 18        -0.19692

 Excited State  12:      Singlet-A      9.7327 eV  127.39 nm  f=0.0239  <S**2>=0.000
      13 -> 18        -0.26497
      13 -> 19         0.26313
      13 -> 20        -0.32568
      13 -> 22         0.48209

 Excited State  13:      Singlet-A      9.9653 eV  124.42 nm  f=0.0289  <S**2>=0.000
       7 -> 15        -0.10763
      10 -> 15         0.58736
      13 -> 15        -0.12836
      13 -> 20         0.27438
      13 -> 22         0.10943

 Excited State  14:      Singlet-A     10.0097 eV  123.86 nm  f=0.1492  <S**2>=0.000
      11 -> 16         0.33338
      12 -> 16         0.53905

 Excited State  15:      Singlet-A     10.1315 eV  122.37 nm  f=0.0567  <S**2>=0.000
      10 -> 15        -0.28373
      10 -> 16        -0.13134
      13 -> 20         0.50517
      13 -> 22         0.33181

 The electronic state is 1-A.
 Alpha  occ. eigenvalues --   -1.95770  -1.22350  -0.94067  -0.80964  -0.78596
 Alpha  occ. eigenvalues --   -0.68719  -0.68118  -0.55443  -0.53802  -0.44775
 Alpha  occ. eigenvalues --   -0.42884  -0.41501  -0.29612
 Alpha virt. eigenvalues --    0.12938   0.15768   0.18654   0.24715   0.27098
 Alpha virt. eigenvalues --    0.30284   0.31249   0.33189   0.33327   0.41355
 Alpha virt. eigenvalues --    0.45793

 Mulliken charges:
               1
     1  C   -0.166284
     2  C   -1.886380
     3  O    3.212167
     4  C   -1.886015
     5  C   -0.141001
     6  H    0.159498
     7  H    0.268881
     8  H    0.275281
     9  H    0.163854
 Sum of Mulliken charges =   0.00000

 Dipole moment (field-independent basis, Debye):
    X=              0.5032    Y=            -10.5609    Z=             -0.0717  Tot=             10.5731
 N-N= 1.050369070949D+02 E-N=-1.708405782845D+02  KE=-1.539746338585D+01
 Orbital energies and kinetic energies (alpha):
                                 1                 2
   1         O                -1.957700         -1.399000
   2         O                -1.223505         -1.065400
   3         O                -0.940671         -0.887335
   4         O                -0.809644         -0.557945
   5         O                -0.785963         -0.680354
   6         O                -0.687189         -0.591114
   7         O                -0.681176         -0.548122

 Normal termination of Gaussian 09 at Tue Dec 15 17:09:16 2015.
