 Gaussian 09, Revision D.01,
 Gaussian 09:  ES64L-G09RevD.01 24-Apr-2013

 ------------------------------------------------------------
 #P AM1(Input,print) CIS(Singlets,NStates=15) pop(full) force
 ------------------------------------------------------------

 -----------------
 AM1-Reparam Input
 -----------------
 Symbolic Z-matrix:
 Charge =  0 Multiplicity = 1

                         Standard orientation:
 ---------------------------------------------------------------------
 Center     Atomic      Atomic             Coordinates (Angstroms)
 Number     Number       Type             X           Y           Z
 ---------------------------------------------------------------------
      1          6           0       -0.281351    1.148219   -0.011564
      2          6           0       -1.110725    0.093769    0.001486
      3          8           0       -0.445888   -1.085625   -0.008252
      4          6           0        0.885337   -0.704822   -0.005958
      5          6           0        1.004143    0.621537    0.018903
      6          1           0        1.947620    1.175873   -0.023501
      7          1           0        1.577096   -1.497072    0.026344
      8          1           0       -2.272191   -0.085348    0.053848
      9          1           0       -0.669843    2.139323   -0.007879
 ---------------------------------------------------------------------

 SCF Done:  E(RAM1) =   2.07945225882     A.U. after   13 cycles

 Excitation energies and oscillator strengths:

 Excited State   1:      Singlet-A      5.5165 eV  224.75 nm  f=0.3247  <S**2>=0.000
      13 -> 14         0.69226
 This state for optimization and/or second-order correction.
 Total Energy, E(CIS) =   2.28218071472
 Copying the excited state density for this state as the 1-particle RhoCI density.

 Excited State   2:      Singlet-A      6.4825 eV  191.26 nm  f=0.0019  <S**2>=0.000
      10 -> 15         0.12479
      13 -> 15         0.65733
      13 -> 17         0.19201

 Excited State   3:      Singlet-A      7.0095 eV  176.88 nm  f=0.0070  <S**2>=0.000
      10 -> 16        -0.10095
      12 -> 14        -0.19199
      13 -> 16         0.62314
      13 -> 18         0.21511

 Excited State   4:      Singlet-A      7.0739 eV  175.27 nm  f=0.0002  <S**2>=0.000
      12 -> 14         0.67117
      13 -> 16         0.18499

 Excited State   5:      Singlet-A      7.6643 eV  161.77 nm  f=0.0077  <S**2>=0.000
      11 -> 14         0.69461

 Excited State   6:      Singlet-A      8.0656 eV  153.72 nm  f=0.0071  <S**2>=0.000
      10 -> 15        -0.11423
      13 -> 15        -0.16533
      13 -> 17         0.45039
      13 -> 18        -0.31334
      13 -> 19        -0.23929
      13 -> 20        -0.22889
      13 -> 21         0.17941

 Excited State   7:      Singlet-A      8.4139 eV  147.36 nm  f=0.0157  <S**2>=0.000
      10 -> 16         0.11373
      13 -> 16        -0.12799
      13 -> 17         0.46578
      13 -> 18         0.15783
      13 -> 19         0.35645
      13 -> 20         0.25316
      13 -> 21        -0.14947

 Excited State   8:      Singlet-A      8.8995 eV  139.32 nm  f=0.0887  <S**2>=0.000
      10 -> 14         0.67912

 Excited State   9:      Singlet-A      9.0177 eV  137.49 nm  f=0.0030  <S**2>=0.000
      10 -> 16         0.12071
      13 -> 16        -0.15663
      13 -> 17         0.12548
      13 -> 18         0.51090
      13 -> 19        -0.40700

 Excited State  10:      Singlet-A      9.4719 eV  130.90 nm  f=0.0066  <S**2>=0.000
       9 -> 15         0.18140
      11 -> 15        -0.11614
      11 -> 16        -0.20047
      11 -> 17        -0.24220
      12 -> 15         0.39998
      12 -> 16        -0.16260
      12 -> 17         0.12359
      12 -> 18        -0.18962
      12 -> 19        -0.18818
      12 -> 20        -0.10615

 Excited State  11:      Singlet-A      9.7231 eV  127.51 nm  f=0.0127  <S**2>=0.000
      10 -> 15         0.12387
      11 -> 15        -0.13505
      13 -> 18        -0.20191
      13 -> 19        -0.36027
      13 -> 20         0.39031
      13 -> 21        -0.34233

 Excited State  12:      Singlet-A      9.7436 eV  127.25 nm  f=0.1634  <S**2>=0.000
       8 -> 15        -0.10296
      11 -> 15         0.45117
      11 -> 17         0.21693
      12 -> 15         0.37829
      12 -> 19         0.11150
      13 -> 19        -0.10198
      13 -> 20         0.12120
      13 -> 21        -0.10027

 Excited State  13:      Singlet-A      9.9555 eV  124.54 nm  f=0.0051  <S**2>=0.000
       7 -> 15        -0.12308
      10 -> 15         0.62831
      10 -> 17         0.11546
      13 -> 15        -0.14826
      13 -> 21         0.11339

 Excited State  14:      Singlet-A     10.0639 eV  123.20 nm  f=0.0694  <S**2>=0.000
      13 -> 20         0.43243
      13 -> 21         0.53022

 Excited State  15:      Singlet-A     10.1282 eV  122.41 nm  f=0.1523  <S**2>=0.000
      11 -> 16        -0.31668
      11 -> 18        -0.17867
      12 -> 16         0.50532
      12 -> 17         0.18605
      12 -> 18         0.13886
      12 -> 19        -0.10974

 The electronic state is 1-A.
 Alpha  occ. eigenvalues --   -1.93903  -1.21573  -0.94895  -0.81968  -0.78603
 Alpha  occ. eigenvalues --   -0.68070  -0.65058  -0.53570  -0.53034  -0.43332
 Alpha  occ. eigenvalues --   -0.42191  -0.40641  -0.28812
 Alpha virt. eigenvalues --    0.12711   0.17140   0.20816   0.25958   0.28537
 Alpha virt. eigenvalues --    0.30013   0.31924   0.32211   0.35288   0.44762
 Alpha virt. eigenvalues --    0.48178

 Mulliken charges:
               1
     1  C   -0.227743
     2  C   -1.989622
     3  O    3.170515
     4  C   -1.989028
     5  C   -0.186525
     6  H    0.250893
     7  H    0.356206
     8  H    0.361902
     9  H    0.253401
 Sum of Mulliken charges =   0.00000

 Dipole moment (field-independent basis, Debye):
    X=             -4.4969    Y=            -10.0530    Z=              0.0613  Tot=             11.0131
 N-N= 1.046348044467D+02 E-N=-1.702865090815D+02  KE=-1.551123198910D+01
 Orbital energies and kinetic energies (alpha):
                                 1                 2
   1         O                -1.939034         -1.386085
   2         O                -1.215728         -1.088978
   3         O                -0.948952         -0.879508
   4         O                -0.819681         -0.594455
   5         O                -0.786026         -0.663180
   6         O                -0.680696         -0.574756
   7         O                -0.650584         -0.530579

 Normal termination of Gaussian 09 at Tue Dec 15 17:07:20 2015.
