 Gaussian 09, Revision D.01,
 Gaussian 09:  ES64L-G09RevD.01 24-Apr-2013

 ------------------------------------------------------------
 #P AM1(Input,print) CIS(Singlets,NStates=15) pop(full) force
 ------------------------------------------------------------

 -----------------
 AM1-Reparam Input
 -----------------
 Symbolic Z-matrix:
 Charge =  0 Multiplicity = 1

                         Standard orientation:
 ---------------------------------------------------------------------
 Center     Atomic      Atomic             Coordinates (Angstroms)
 Number     Number       Type             X           Y           Z
 ---------------------------------------------------------------------
      1          6           0       -0.619851    1.030034    0.007988
      2          6           0       -1.102430   -0.219413   -0.030448
      3          8           0       -0.134311   -1.166405    0.029321
      4          6           0        1.027502   -0.459811   -0.018884
      5          6           0        0.840039    0.864140    0.005937
      6          1           0        1.535831    1.716008   -0.021504
      7          1           0        1.951865   -1.049190   -0.017593
      8          1           0       -2.137643   -0.600521   -0.033458
      9          1           0       -1.147130    1.975245    0.050430
 ---------------------------------------------------------------------

 SCF Done:  E(RAM1) =   2.83351083040     A.U. after   13 cycles

 Excitation energies and oscillator strengths:

 Excited State   1:      Singlet-A      5.1331 eV  241.54 nm  f=0.3505  <S**2>=0.000
      13 -> 14         0.69724
 This state for optimization and/or second-order correction.
 Total Energy, E(CIS) =   3.02214913495
 Copying the excited state density for this state as the 1-particle RhoCI density.

 Excited State   2:      Singlet-A      6.1671 eV  201.04 nm  f=0.0003  <S**2>=0.000
      11 -> 15        -0.10239
      13 -> 15         0.55217
      13 -> 16        -0.34966
      13 -> 18         0.19290
      13 -> 19         0.10252

 Excited State   3:      Singlet-A      6.2834 eV  197.32 nm  f=0.0026  <S**2>=0.000
      11 -> 16         0.10505
      13 -> 15         0.36321
      13 -> 16         0.55750
      13 -> 17         0.16521

 Excited State   4:      Singlet-A      6.5144 eV  190.32 nm  f=0.0003  <S**2>=0.000
      12 -> 14         0.69771

 Excited State   5:      Singlet-A      7.5068 eV  165.16 nm  f=0.0002  <S**2>=0.000
      13 -> 15        -0.13589
      13 -> 16         0.13650
      13 -> 17         0.15091
      13 -> 18         0.52352
      13 -> 21         0.38378

 Excited State   6:      Singlet-A      7.7512 eV  159.95 nm  f=0.0200  <S**2>=0.000
      10 -> 14         0.30257
      13 -> 15        -0.11281
      13 -> 16        -0.11428
      13 -> 17         0.59092
      13 -> 18        -0.13467

 Excited State   7:      Singlet-A      7.9693 eV  155.58 nm  f=0.0010  <S**2>=0.000
      10 -> 14         0.62725
      13 -> 17        -0.29144

 Excited State   8:      Singlet-A      8.4482 eV  146.76 nm  f=0.0002  <S**2>=0.000
      13 -> 18         0.13314
      13 -> 19         0.60663
      13 -> 21        -0.29092

 Excited State   9:      Singlet-A      8.5455 eV  145.09 nm  f=0.0878  <S**2>=0.000
      11 -> 14         0.67147

 Excited State  10:      Singlet-A      8.7819 eV  141.18 nm  f=0.0023  <S**2>=0.000
      13 -> 18        -0.36704
      13 -> 19         0.32726
      13 -> 21         0.49849

 Excited State  11:      Singlet-A      9.0742 eV  136.63 nm  f=0.1407  <S**2>=0.000
       8 -> 15        -0.13245
       8 -> 16        -0.10087
      10 -> 17         0.16888
      12 -> 15        -0.37365
      12 -> 16         0.40531
      12 -> 18        -0.28650
      12 -> 21        -0.12804

 Excited State  12:      Singlet-A      9.0907 eV  136.39 nm  f=0.0913  <S**2>=0.000
      13 -> 20         0.68394

 Excited State  13:      Singlet-A      9.5732 eV  129.51 nm  f=0.0832  <S**2>=0.000
       8 -> 16        -0.10156
      11 -> 14        -0.15610
      11 -> 15        -0.10715
      12 -> 15         0.47720
      12 -> 16         0.40402

 Excited State  14:      Singlet-A      9.8306 eV  126.12 nm  f=0.0360  <S**2>=0.000
      10 -> 17        -0.14929
      11 -> 15         0.48563
      11 -> 16         0.20388
      11 -> 17         0.10110
      12 -> 16         0.20746
      12 -> 18         0.21228
      12 -> 21         0.14897

 Excited State  15:      Singlet-A      9.8765 eV  125.53 nm  f=0.0663  <S**2>=0.000
      10 -> 15         0.19695
      10 -> 16         0.14662
      10 -> 17         0.22166
      11 -> 15         0.28445
      11 -> 16         0.25252
      12 -> 15         0.18839
      12 -> 16        -0.21449
      12 -> 18        -0.22063
      12 -> 19         0.13707
      12 -> 21        -0.16323

 The electronic state is 1-A.
 Alpha  occ. eigenvalues --   -1.71547  -1.11085  -0.91472  -0.78626  -0.74550
 Alpha  occ. eigenvalues --   -0.65905  -0.63215  -0.52266  -0.49093  -0.43541
 Alpha  occ. eigenvalues --   -0.42479  -0.38871  -0.26984
 Alpha virt. eigenvalues --    0.11974   0.18192   0.18525   0.26214   0.27356
 Alpha virt. eigenvalues --    0.29209   0.30078   0.31281   0.37564   0.47023
 Alpha virt. eigenvalues --    0.50221

 Mulliken charges:
               1
     1  C   -0.145828
     2  C   -1.929777
     3  O    3.197104
     4  C   -1.929490
     5  C   -0.133774
     6  H    0.171976
     7  H    0.299649
     8  H    0.298138
     9  H    0.172001
 Sum of Mulliken charges =   0.00000

 Dipole moment (field-independent basis, Debye):
    X=             -1.2437    Y=            -10.7135    Z=              0.7291  Tot=             10.8101
 N-N= 1.038334156001D+02 E-N=-1.690571566657D+02  KE=-1.475000344209D+01
 Orbital energies and kinetic energies (alpha):
                                 1                 2
   1         O                -1.715472         -1.212108
   2         O                -1.110852         -0.988072
   3         O                -0.914715         -0.842726
   4         O                -0.786258         -0.591230
   5         O                -0.745498         -0.677826
   6         O                -0.659051         -0.566191
   7         O                -0.632149         -0.522405

 Normal termination of Gaussian 09 at Tue Dec 15 17:05:49 2015.
