 Gaussian 09, Revision D.01,
 Gaussian 09:  ES64L-G09RevD.01 24-Apr-2013

 ------------------------------------------------------------
 #P AM1(Input,print) CIS(Singlets,NStates=15) pop(full) force
 ------------------------------------------------------------

 -----------------
 AM1-Reparam Input
 -----------------
 Symbolic Z-matrix:
 Charge =  0 Multiplicity = 1

                         Standard orientation:
 ---------------------------------------------------------------------
 Center     Atomic      Atomic             Coordinates (Angstroms)
 Number     Number       Type             X           Y           Z
 ---------------------------------------------------------------------
      1          6           0        0.924730    0.802116   -0.001519
      2          6           0        0.978904   -0.505533   -0.017753
      3          8           0       -0.216221   -1.150469    0.005277
      4          6           0       -1.100722   -0.163239    0.001189
      5          6           0       -0.573084    1.091656    0.000874
      6          1           0       -1.070051    1.991082   -0.016060
      7          1           0       -2.123968   -0.465702    0.005121
      8          1           0        1.856634   -1.238558    0.028856
      9          1           0        1.688186    1.566931    0.043121
 ---------------------------------------------------------------------

 SCF Done:  E(RAM1) =   1.12002969085     A.U. after   13 cycles

 Excitation energies and oscillator strengths:

 Excited State   1:      Singlet-A      5.2233 eV  237.37 nm  f=0.2379  <S**2>=0.000
      12 -> 17        -0.11967
      13 -> 14         0.68684
 This state for optimization and/or second-order correction.
 Total Energy, E(CIS) =   1.31198300508
 Copying the excited state density for this state as the 1-particle RhoCI density.

 Excited State   2:      Singlet-A      6.2116 eV  199.60 nm  f=0.0008  <S**2>=0.000
      13 -> 15         0.50529
      13 -> 16        -0.42317
      13 -> 17         0.11852
      13 -> 18        -0.17904

 Excited State   3:      Singlet-A      6.3663 eV  194.75 nm  f=0.0030  <S**2>=0.000
      13 -> 15         0.42946
      13 -> 16         0.51895
      13 -> 19         0.17825

 Excited State   4:      Singlet-A      6.8615 eV  180.69 nm  f=0.0167  <S**2>=0.000
      12 -> 14         0.39776
      13 -> 17         0.56296

 Excited State   5:      Singlet-A      7.0402 eV  176.11 nm  f=0.0004  <S**2>=0.000
       9 -> 14         0.10546
      11 -> 14         0.69314

 Excited State   6:      Singlet-A      7.7851 eV  159.26 nm  f=0.0010  <S**2>=0.000
      13 -> 15         0.17514
      13 -> 18         0.63451
      13 -> 19        -0.12618
      13 -> 22        -0.17884

 Excited State   7:      Singlet-A      8.0417 eV  154.18 nm  f=0.3014  <S**2>=0.000
      12 -> 14         0.55652
      13 -> 17        -0.36962

 Excited State   8:      Singlet-A      8.2139 eV  150.95 nm  f=0.0105  <S**2>=0.000
      10 -> 14         0.66982
      11 -> 17        -0.10574

 Excited State   9:      Singlet-A      8.5445 eV  145.10 nm  f=0.0007  <S**2>=0.000
      12 -> 15        -0.21780
      13 -> 16        -0.11255
      13 -> 19         0.43649
      13 -> 20        -0.27169
      13 -> 21        -0.37320
      13 -> 23         0.10944

 Excited State  10:      Singlet-A      8.7636 eV  141.48 nm  f=0.0037  <S**2>=0.000
       7 -> 16         0.10323
      11 -> 15         0.10104
      12 -> 15        -0.26250
      12 -> 16         0.46693
      13 -> 19         0.17603
      13 -> 20         0.15356
      13 -> 21         0.31513

 Excited State  11:      Singlet-A      8.8056 eV  140.80 nm  f=0.0179  <S**2>=0.000
       8 -> 16        -0.12769
       9 -> 15         0.15294
      11 -> 15         0.28230
      11 -> 18        -0.19596
      12 -> 16        -0.13492
      12 -> 17         0.50567

 Excited State  12:      Singlet-A      8.8230 eV  140.52 nm  f=0.0011  <S**2>=0.000
      12 -> 15         0.37791
      12 -> 16         0.42164
      13 -> 19        -0.15261
      13 -> 20        -0.30376
      13 -> 21        -0.10665

 Excited State  13:      Singlet-A      9.0908 eV  136.38 nm  f=0.0134  <S**2>=0.000
       6 -> 17         0.10626
       9 -> 14         0.10662
       9 -> 17        -0.27143
      10 -> 14         0.13880
      11 -> 15        -0.11685
      11 -> 16         0.10600
      11 -> 17         0.48724
      12 -> 15        -0.20211
      13 -> 19        -0.18113
      13 -> 21        -0.10892

 Excited State  14:      Singlet-A      9.1319 eV  135.77 nm  f=0.0001  <S**2>=0.000
       9 -> 14         0.19484
      12 -> 15         0.16660
      12 -> 16         0.13422
      13 -> 15        -0.11421
      13 -> 20         0.49664
      13 -> 21        -0.35698

 Excited State  15:      Singlet-A      9.1898 eV  134.92 nm  f=0.0039  <S**2>=0.000
       9 -> 17        -0.14232
      11 -> 17         0.25513
      12 -> 15         0.37471
      12 -> 16        -0.11122
      13 -> 16        -0.12089
      13 -> 19         0.39422
      13 -> 21         0.24148

 The electronic state is 1-A.
 Alpha  occ. eigenvalues --   -1.83517  -1.18424  -0.98826  -0.88167  -0.79188
 Alpha  occ. eigenvalues --   -0.74152  -0.71877  -0.58919  -0.55016  -0.53292
 Alpha  occ. eigenvalues --   -0.49197  -0.47564  -0.36475
 Alpha virt. eigenvalues --    0.03262   0.09838   0.10506   0.10690   0.18446
 Alpha virt. eigenvalues --    0.19377   0.21704   0.22082   0.27489   0.27799
 Alpha virt. eigenvalues --    0.27985

 Mulliken charges:
               1
     1  C   -0.104532
     2  C   -1.221303
     3  O    2.100878
     4  C   -1.227415
     5  C   -0.150020
     6  H    0.095471
     7  H    0.200446
     8  H    0.204014
     9  H    0.102460
 Sum of Mulliken charges =   0.00000

 Dipole moment (field-independent basis, Debye):
    X=             -1.1942    Y=             -7.5287    Z=              0.1915  Tot=              7.6252
 N-N= 1.043752778130D+02 E-N=-1.712335201041D+02  KE=-1.498470767457D+01
 Orbital energies and kinetic energies (alpha):
                                 1                 2
   1         O                -1.835167         -1.254703
   2         O                -1.184244         -0.969501
   3         O                -0.988258         -0.814339
   4         O                -0.881674         -0.636492
   5         O                -0.791876         -0.672213
   6         O                -0.741520         -0.579533
   7         O                -0.718771         -0.512398

 Normal termination of Gaussian 09 at Tue Dec 15 17:05:40 2015.
