 Gaussian 09, Revision D.01,
 Gaussian 09:  ES64L-G09RevD.01 24-Apr-2013

 ------------------------------------------------------------
 #P AM1(Input,print) CIS(Singlets,NStates=15) pop(full) force
 ------------------------------------------------------------

 -----------------
 AM1-Reparam Input
 -----------------
 Symbolic Z-matrix:
 Charge =  0 Multiplicity = 1

                         Standard orientation:
 ---------------------------------------------------------------------
 Center     Atomic      Atomic             Coordinates (Angstroms)
 Number     Number       Type             X           Y           Z
 ---------------------------------------------------------------------
      1          6           0       -0.680242    0.948863   -0.013063
      2          6           0       -1.083726   -0.310280    0.007307
      3          8           0       -0.016349   -1.107750    0.006145
      4          6           0        1.040856   -0.382702    0.006055
      5          6           0        0.727086    0.908568   -0.010395
      6          1           0        1.462002    1.801478    0.044368
      7          1           0        2.026513   -0.922641   -0.039495
      8          1           0       -2.094448   -0.811625   -0.032368
      9          1           0       -1.287123    1.808097    0.038915
 ---------------------------------------------------------------------

 SCF Done:  E(RAM1) =   2.07036379015     A.U. after   13 cycles

 Excitation energies and oscillator strengths:

 Excited State   1:      Singlet-A      5.4449 eV  227.71 nm  f=0.3398  <S**2>=0.000
      13 -> 14         0.69395
 This state for optimization and/or second-order correction.
 Total Energy, E(CIS) =   2.27046039952
 Copying the excited state density for this state as the 1-particle RhoCI density.

 Excited State   2:      Singlet-A      6.6182 eV  187.34 nm  f=0.0066  <S**2>=0.000
      13 -> 15         0.64791
      13 -> 17         0.21066
      13 -> 18        -0.13879

 Excited State   3:      Singlet-A      6.8295 eV  181.54 nm  f=0.0011  <S**2>=0.000
      12 -> 14         0.67671
      13 -> 16        -0.14062

 Excited State   4:      Singlet-A      6.9090 eV  179.45 nm  f=0.0038  <S**2>=0.000
      12 -> 14         0.16284
      13 -> 16         0.62354
      13 -> 17         0.10809
      13 -> 18         0.21941

 Excited State   5:      Singlet-A      7.6663 eV  161.73 nm  f=0.0070  <S**2>=0.000
      11 -> 14         0.69252

 Excited State   6:      Singlet-A      7.9645 eV  155.67 nm  f=0.0001  <S**2>=0.000
      13 -> 15         0.11409
      13 -> 16        -0.15124
      13 -> 18         0.41017
      13 -> 19        -0.32145
      13 -> 20        -0.37586
      13 -> 21        -0.18046

 Excited State   7:      Singlet-A      8.4318 eV  147.04 nm  f=0.0175  <S**2>=0.000
      13 -> 15        -0.18853
      13 -> 17         0.64670
      13 -> 19        -0.10429

 Excited State   8:      Singlet-A      8.8956 eV  139.38 nm  f=0.0913  <S**2>=0.000
      10 -> 14         0.62536
      13 -> 18        -0.16267
      13 -> 19        -0.18652

 Excited State   9:      Singlet-A      8.9091 eV  139.17 nm  f=0.0183  <S**2>=0.000
      10 -> 14         0.26120
      13 -> 16        -0.15570
      13 -> 18         0.39015
      13 -> 19         0.45186
      13 -> 20         0.13982

 Excited State  10:      Singlet-A      9.4251 eV  131.55 nm  f=0.0102  <S**2>=0.000
      11 -> 15        -0.16305
      11 -> 16        -0.11075
      11 -> 17        -0.21858
      12 -> 15        -0.25681
      12 -> 16         0.21616
      12 -> 18         0.27449
      12 -> 19        -0.15826
      12 -> 20        -0.13935
      13 -> 18         0.12870
      13 -> 19        -0.19366
      13 -> 20         0.23736

 Excited State  11:      Singlet-A      9.4569 eV  131.10 nm  f=0.0242  <S**2>=0.000
      11 -> 17         0.11950
      12 -> 15         0.16389
      12 -> 16        -0.11799
      12 -> 18        -0.15825
      13 -> 18         0.22542
      13 -> 19        -0.31357
      13 -> 20         0.44509
      13 -> 21         0.15094

 Excited State  12:      Singlet-A      9.7169 eV  127.60 nm  f=0.1055  <S**2>=0.000
      11 -> 15        -0.34503
      11 -> 17        -0.16005
      12 -> 15         0.50795
      12 -> 17         0.19928

 Excited State  13:      Singlet-A      9.9964 eV  124.03 nm  f=0.1655  <S**2>=0.000
      11 -> 15         0.12091
      11 -> 16         0.32882
      11 -> 17         0.12534
      11 -> 18         0.11364
      12 -> 16         0.50228
      12 -> 17         0.10112
      12 -> 19         0.15277
      13 -> 21         0.12113

 Excited State  14:      Singlet-A     10.0150 eV  123.80 nm  f=0.0562  <S**2>=0.000
      10 -> 15        -0.11259
      12 -> 16        -0.11706
      13 -> 20        -0.24083
      13 -> 21         0.62424

 Excited State  15:      Singlet-A     10.2237 eV  121.27 nm  f=0.0121  <S**2>=0.000
       7 -> 15        -0.11225
      10 -> 15         0.60161
      10 -> 16         0.18093
      10 -> 17         0.14108
      13 -> 15        -0.12012
      13 -> 21         0.14194

 The electronic state is 1-A.
 Alpha  occ. eigenvalues --   -1.97260  -1.21935  -0.96952  -0.83296  -0.77922
 Alpha  occ. eigenvalues --   -0.68363  -0.67676  -0.55398  -0.53394  -0.44982
 Alpha  occ. eigenvalues --   -0.43649  -0.41331  -0.29957
 Alpha virt. eigenvalues --    0.11085   0.17334   0.18786   0.24840   0.26674
 Alpha virt. eigenvalues --    0.28171   0.29459   0.31158   0.39353   0.47684
 Alpha virt. eigenvalues --    0.52761

 Mulliken charges:
               1
     1  C   -0.190318
     2  C   -2.011893
     3  O    3.181207
     4  C   -2.025483
     5  C   -0.248139
     6  H    0.266969
     7  H    0.390765
     8  H    0.381081
     9  H    0.255811
 Sum of Mulliken charges =   0.00000

 Dipole moment (field-independent basis, Debye):
    X=              0.1790    Y=             -9.5246    Z=             -0.0765  Tot=              9.5266
 N-N= 1.055311889631D+02 E-N=-1.717089017760D+02  KE=-1.557046325468D+01
 Orbital energies and kinetic energies (alpha):
                                 1                 2
   1         O                -1.972599         -1.452231
   2         O                -1.219350         -1.071890
   3         O                -0.969521         -0.867747
   4         O                -0.832957         -0.602346
   5         O                -0.779219         -0.675246
   6         O                -0.683630         -0.560290
   7         O                -0.676764         -0.539929

 Normal termination of Gaussian 09 at Tue Dec 15 17:07:13 2015.
