 Gaussian 09, Revision D.01,
 Gaussian 09:  ES64L-G09RevD.01 24-Apr-2013

 ------------------------------------------------------------
 #P AM1(Input,print) CIS(Singlets,NStates=15) pop(full) force
 ------------------------------------------------------------

 -----------------
 AM1-Reparam Input
 -----------------
 Symbolic Z-matrix:
 Charge =  0 Multiplicity = 1

                         Standard orientation:
 ---------------------------------------------------------------------
 Center     Atomic      Atomic             Coordinates (Angstroms)
 Number     Number       Type             X           Y           Z
 ---------------------------------------------------------------------
      1          6           0       -0.539353    1.061019   -0.012649
      2          6           0       -1.170045   -0.182549    0.028961
      3          8           0       -0.201308   -1.090727   -0.017120
      4          6           0        1.014732   -0.522020   -0.001889
      5          6           0        0.911592    0.780923   -0.009582
      6          1           0        1.622497    1.557458    0.076031
      7          1           0        1.845513   -1.197540    0.044122
      8          1           0       -2.155868   -0.461706    0.015911
      9          1           0       -1.003236    2.003364   -0.028147
 ---------------------------------------------------------------------

 SCF Done:  E(RAM1) =  -6.21516474170     A.U. after   13 cycles

 Excitation energies and oscillator strengths:

 Excited State   1:      Singlet-A      6.1547 eV  201.45 nm  f=0.0435  <S**2>=0.000
      13 -> 14         0.25699
      13 -> 15         0.18759
      13 -> 16         0.58331
      13 -> 17         0.11140
      13 -> 19         0.17199
 This state for optimization and/or second-order correction.
 Total Energy, E(CIS) =  -5.98898299432
 Copying the excited state density for this state as the 1-particle RhoCI density.

 Excited State   2:      Singlet-A      6.3185 eV  196.22 nm  f=0.2402  <S**2>=0.000
      13 -> 14         0.50699
      13 -> 15         0.34982
      13 -> 16        -0.27772
      13 -> 17        -0.13801

 Excited State   3:      Singlet-A      6.5240 eV  190.04 nm  f=0.2299  <S**2>=0.000
      13 -> 14        -0.39760
      13 -> 15         0.56356
      13 -> 17        -0.10435

 Excited State   4:      Singlet-A      7.8336 eV  158.27 nm  f=0.0001  <S**2>=0.000
      13 -> 17         0.48672
      13 -> 18        -0.38831
      13 -> 19        -0.31000

 Excited State   5:      Singlet-A      7.9880 eV  155.21 nm  f=0.0045  <S**2>=0.000
      12 -> 14         0.15468
      13 -> 15         0.11533
      13 -> 16        -0.22888
      13 -> 17         0.43621
      13 -> 18         0.31302
      13 -> 19         0.33638

 Excited State   6:      Singlet-A      8.2342 eV  150.57 nm  f=0.0030  <S**2>=0.000
      12 -> 14         0.68177
      13 -> 17        -0.10010
      13 -> 18        -0.11346

 Excited State   7:      Singlet-A      9.0895 eV  136.40 nm  f=0.0002  <S**2>=0.000
      10 -> 17         0.13586
      13 -> 16        -0.13185
      13 -> 18        -0.46062
      13 -> 19         0.48073

 Excited State   8:      Singlet-A      9.3633 eV  132.41 nm  f=0.0081  <S**2>=0.000
      11 -> 14         0.67236
      12 -> 16         0.15934

 Excited State   9:      Singlet-A      9.4894 eV  130.66 nm  f=0.1075  <S**2>=0.000
      11 -> 14        -0.17059
      11 -> 15         0.12029
      12 -> 16         0.60761
      12 -> 17         0.17321
      12 -> 19         0.17488

 Excited State  10:      Singlet-A     10.1723 eV  121.88 nm  f=0.0312  <S**2>=0.000
       9 -> 16         0.10645
      11 -> 19        -0.10104
      12 -> 15         0.66705

 Excited State  11:      Singlet-A     10.3311 eV  120.01 nm  f=0.0229  <S**2>=0.000
      13 -> 20         0.69048

 Excited State  12:      Singlet-A     10.6335 eV  116.60 nm  f=0.1518  <S**2>=0.000
      10 -> 14         0.56129
      10 -> 15         0.22500
      11 -> 15        -0.16828
      11 -> 16         0.22478
      11 -> 17         0.10362

 Excited State  13:      Singlet-A     10.7488 eV  115.35 nm  f=0.1517  <S**2>=0.000
       9 -> 15        -0.10375
      11 -> 15         0.49788
      11 -> 16         0.41417
      11 -> 18        -0.10279

 Excited State  14:      Singlet-A     10.8352 eV  114.43 nm  f=0.0050  <S**2>=0.000
      13 -> 21         0.68232

 Excited State  15:      Singlet-A     10.9397 eV  113.33 nm  f=0.0824  <S**2>=0.000
      10 -> 14         0.13246
      10 -> 15         0.36212
      10 -> 16         0.12823
      11 -> 15         0.30369
      11 -> 16        -0.35375
      11 -> 17        -0.19150
      13 -> 21        -0.10916

 The electronic state is 1-A.
 Alpha  occ. eigenvalues --   -4.02856  -1.39403  -1.09722  -1.09213  -1.01944
 Alpha  occ. eigenvalues --   -0.97648  -0.91172  -0.74700  -0.72458  -0.62492
 Alpha  occ. eigenvalues --   -0.61632  -0.58496  -0.43479
 Alpha virt. eigenvalues --   -0.00741   0.04547   0.04900   0.07435   0.11833
 Alpha virt. eigenvalues --    0.13011   0.17459   0.20537   0.27831   0.33025
 Alpha virt. eigenvalues --    0.39874

 Mulliken charges:
               1
     1  C   -0.467929
     2  C   -2.038278
     3  O    3.392119
     4  C   -1.980793
     5  C   -0.371181
     6  H    0.353319
     7  H    0.375348
     8  H    0.381757
     9  H    0.355638
 Sum of Mulliken charges =   0.00000

 Dipole moment (field-independent basis, Debye):
    X=             -1.2901    Y=            -10.5918    Z=             -0.2581  Tot=             10.6732
 N-N= 1.055277349041D+02 E-N=-1.696316235521D+02  KE=-2.534985377143D+01
 Orbital energies and kinetic energies (alpha):
                                 1                 2
   1         O                -4.028561         -2.996387
   2         O                -1.394027         -1.275186
   3         O                -1.097225         -1.048239
   4         O                -1.092129         -1.039918
   5         O                -1.019440         -0.847845
   6         O                -0.976478         -0.968839
   7         O                -0.911722         -0.849653

 Normal termination of Gaussian 09 at Fri Dec 11 13:41:35 2015.
