 Gaussian 09, Revision D.01,
 Gaussian 09:  ES64L-G09RevD.01 24-Apr-2013

 ------------------------------------------------------------
 #P AM1(Input,print) CIS(Singlets,NStates=15) pop(full) force
 ------------------------------------------------------------

 -----------------
 AM1-Reparam Input
 -----------------
 Symbolic Z-matrix:
 Charge =  0 Multiplicity = 1

                         Standard orientation:
 ---------------------------------------------------------------------
 Center     Atomic      Atomic             Coordinates (Angstroms)
 Number     Number       Type             X           Y           Z
 ---------------------------------------------------------------------
      1          6           0       -0.923480    0.800700    0.007144
      2          6           0       -1.009410   -0.554554   -0.002617
      3          8           0        0.229269   -1.121560    0.003120
      4          6           0        1.170285   -0.149929    0.002709
      5          6           0        0.523621    1.086046   -0.008737
      6          1           0        0.971874    2.054273    0.038401
      7          1           0        2.139677   -0.461506   -0.026468
      8          1           0       -1.856605   -1.193391    0.002057
      9          1           0       -1.655201    1.479529   -0.029949
 ---------------------------------------------------------------------

 SCF Done:  E(RAM1) =   1.79627444862     A.U. after   14 cycles

 Excitation energies and oscillator strengths:

 Excited State   1:      Singlet-A      5.3483 eV  231.82 nm  f=0.3752  <S**2>=0.000
      13 -> 14         0.69450
 This state for optimization and/or second-order correction.
 Total Energy, E(CIS) =   1.99282155056
 Copying the excited state density for this state as the 1-particle RhoCI density.

 Excited State   2:      Singlet-A      6.7812 eV  182.83 nm  f=0.0091  <S**2>=0.000
      13 -> 15         0.67493
      13 -> 17         0.12304

 Excited State   3:      Singlet-A      6.9244 eV  179.05 nm  f=0.0012  <S**2>=0.000
      13 -> 16         0.65605
      13 -> 17        -0.14377
      13 -> 18         0.14480
      13 -> 19        -0.11265

 Excited State   4:      Singlet-A      7.3663 eV  168.31 nm  f=0.0000  <S**2>=0.000
      12 -> 14         0.69938

 Excited State   5:      Singlet-A      8.0612 eV  153.80 nm  f=0.0002  <S**2>=0.000
      13 -> 16         0.15491
      13 -> 17         0.58645
      13 -> 18        -0.24628
      13 -> 19        -0.13023
      13 -> 21         0.16361

 Excited State   6:      Singlet-A      8.4231 eV  147.20 nm  f=0.0062  <S**2>=0.000
      10 -> 14         0.69987

 Excited State   7:      Singlet-A      8.9960 eV  137.82 nm  f=0.1283  <S**2>=0.000
      11 -> 14         0.68903

 Excited State   8:      Singlet-A      9.2419 eV  134.15 nm  f=0.0096  <S**2>=0.000
      11 -> 16         0.16042
      13 -> 15        -0.10816
      13 -> 17         0.27930
      13 -> 18         0.59691

 Excited State   9:      Singlet-A      9.6688 eV  128.23 nm  f=0.0005  <S**2>=0.000
      11 -> 15        -0.14424
      13 -> 16         0.11063
      13 -> 19         0.66142

 Excited State  10:      Singlet-A      9.8737 eV  125.57 nm  f=0.0040  <S**2>=0.000
       9 -> 16         0.11299
      10 -> 15        -0.20370
      10 -> 16        -0.14359
      10 -> 18        -0.19876
      12 -> 15         0.22883
      12 -> 16        -0.30284
      12 -> 17         0.38925
      12 -> 18        -0.14563

 Excited State  11:      Singlet-A     10.3478 eV  119.82 nm  f=0.0228  <S**2>=0.000
      13 -> 17         0.15316
      13 -> 18        -0.12114
      13 -> 20         0.53217
      13 -> 21        -0.39981

 Excited State  12:      Singlet-A     10.4307 eV  118.86 nm  f=0.0362  <S**2>=0.000
      10 -> 16        -0.22525
      12 -> 15         0.43021
      12 -> 16         0.44991
      12 -> 18         0.14093

 Excited State  13:      Singlet-A     10.5755 eV  117.24 nm  f=0.2340  <S**2>=0.000
      10 -> 15         0.35740
      12 -> 15         0.38569
      12 -> 16        -0.32005
      12 -> 17        -0.13571
      12 -> 19         0.14818
      13 -> 21         0.12529

 Excited State  14:      Singlet-A     10.6147 eV  116.80 nm  f=0.0552  <S**2>=0.000
      11 -> 15         0.35232
      11 -> 16         0.28679
      12 -> 16        -0.12303
      13 -> 20        -0.30368
      13 -> 21        -0.34377

 Excited State  15:      Singlet-A     10.6608 eV  116.30 nm  f=0.0371  <S**2>=0.000
      11 -> 15         0.47741
      13 -> 20         0.26148
      13 -> 21         0.39505

 The electronic state is 1-A.
 Alpha  occ. eigenvalues --   -1.99771  -1.25836  -1.01350  -0.90594  -0.85549
 Alpha  occ. eigenvalues --   -0.77518  -0.74267  -0.65043  -0.62145  -0.54125
 Alpha  occ. eigenvalues --   -0.52923  -0.50595  -0.37251
 Alpha virt. eigenvalues --    0.02917   0.11263   0.11989   0.19443   0.20087
 Alpha virt. eigenvalues --    0.22440   0.24949   0.26269   0.29142   0.36855
 Alpha virt. eigenvalues --    0.42708

 Mulliken charges:
               1
     1  C   -0.091636
     2  C   -1.903787
     3  O    3.177310
     4  C   -1.890186
     5  C   -0.139081
     6  H    0.153651
     7  H    0.267407
     8  H    0.288515
     9  H    0.137807
 Sum of Mulliken charges =   0.00000

 Dipole moment (field-independent basis, Debye):
    X=              1.7171    Y=            -10.1067    Z=              0.0095  Tot=             10.2516
 N-N= 1.054899461678D+02 E-N=-1.701757939590D+02  KE=-1.567225711982D+01
 Orbital energies and kinetic energies (alpha):
                                 1                 2
   1         O                -1.997707         -1.375443
   2         O                -1.258358         -1.037796
   3         O                -1.013497         -0.876024
   4         O                -0.905936         -0.606998
   5         O                -0.855489         -0.709979
   6         O                -0.775183         -0.612117
   7         O                -0.742666         -0.534342

 Normal termination of Gaussian 09 at Tue Dec 15 17:08:57 2015.
