 Gaussian 09, Revision D.01,
 Gaussian 09:  ES64L-G09RevD.01 24-Apr-2013

 ------------------------------------------------------------
 #P AM1(Input,print) CIS(Singlets,NStates=15) pop(full) force
 ------------------------------------------------------------

 -----------------
 AM1-Reparam Input
 -----------------
 Symbolic Z-matrix:
 Charge =  0 Multiplicity = 1

                         Standard orientation:
 ---------------------------------------------------------------------
 Center     Atomic      Atomic             Coordinates (Angstroms)
 Number     Number       Type             X           Y           Z
 ---------------------------------------------------------------------
      1          6           0       -1.130919    0.287243   -0.029313
      2          6           0       -0.637332   -0.884118    0.006210
      3          8           0        0.735099   -0.927321   -0.005206
      4          6           0        1.033423    0.377811   -0.009964
      5          6           0       -0.047682    1.198774    0.038390
      6          1           0        0.041450    2.270713   -0.035986
      7          1           0        2.146735    0.537052   -0.008008
      8          1           0       -1.150029   -1.903191    0.061767
      9          1           0       -2.223890    0.635741   -0.008065
 ---------------------------------------------------------------------

 SCF Done:  E(RAM1) =   1.79346148518     A.U. after   14 cycles

 Excitation energies and oscillator strengths:

 Excited State   1:      Singlet-A      5.4555 eV  227.27 nm  f=0.3492  <S**2>=0.000
      13 -> 14         0.69378
 This state for optimization and/or second-order correction.
 Total Energy, E(CIS) =   1.99394614646
 Copying the excited state density for this state as the 1-particle RhoCI density.

 Excited State   2:      Singlet-A      6.4679 eV  191.69 nm  f=0.0001  <S**2>=0.000
      13 -> 15         0.68174
      13 -> 19        -0.11520

 Excited State   3:      Singlet-A      6.6681 eV  185.94 nm  f=0.0014  <S**2>=0.000
      13 -> 16         0.68514

 Excited State   4:      Singlet-A      6.9953 eV  177.24 nm  f=0.0010  <S**2>=0.000
      12 -> 14         0.70264

 Excited State   5:      Singlet-A      7.9990 eV  155.00 nm  f=0.0070  <S**2>=0.000
      11 -> 14         0.69433

 Excited State   6:      Singlet-A      8.5203 eV  145.52 nm  f=0.0015  <S**2>=0.000
      13 -> 15         0.10133
      13 -> 17         0.61729
      13 -> 18        -0.15039
      13 -> 19         0.20624
      13 -> 22         0.15130

 Excited State   7:      Singlet-A      8.9503 eV  138.52 nm  f=0.0089  <S**2>=0.000
      13 -> 17         0.25022
      13 -> 18         0.56867
      13 -> 19        -0.25326
      13 -> 22        -0.16592

 Excited State   8:      Singlet-A      9.2425 eV  134.15 nm  f=0.0625  <S**2>=0.000
       9 -> 16         0.16209
      10 -> 14         0.31889
      11 -> 17        -0.10665
      12 -> 15         0.40350
      12 -> 16        -0.32484
      12 -> 17        -0.18282

 Excited State   9:      Singlet-A      9.3707 eV  132.31 nm  f=0.0032  <S**2>=0.000
      13 -> 17        -0.13289
      13 -> 18         0.33756
      13 -> 19         0.58885

 Excited State  10:      Singlet-A      9.5054 eV  130.43 nm  f=0.0642  <S**2>=0.000
       9 -> 15        -0.15908
      10 -> 14         0.48893
      11 -> 18         0.10323
      12 -> 15        -0.40672
      13 -> 20         0.11735

 Excited State  11:      Singlet-A      9.8675 eV  125.65 nm  f=0.0731  <S**2>=0.000
      10 -> 14         0.23150
      11 -> 16         0.15677
      11 -> 18        -0.10091
      12 -> 16         0.56235
      12 -> 17        -0.19901

 Excited State  12:      Singlet-A     10.1631 eV  121.99 nm  f=0.1901  <S**2>=0.000
       8 -> 15        -0.12358
      10 -> 14        -0.16084
      11 -> 15         0.40864
      11 -> 16         0.30545
      11 -> 17        -0.20146
      11 -> 18        -0.12945
      12 -> 15        -0.20868
      12 -> 17        -0.14201
      12 -> 18         0.18469

 Excited State  13:      Singlet-A     10.3912 eV  119.32 nm  f=0.0985  <S**2>=0.000
       8 -> 16        -0.14573
       9 -> 15         0.18148
      10 -> 14         0.21937
      11 -> 15         0.39955
      11 -> 16        -0.10507
      11 -> 19        -0.18955
      12 -> 15         0.16710
      12 -> 17         0.29961
      12 -> 18        -0.10692

 Excited State  14:      Singlet-A     10.5685 eV  117.32 nm  f=0.0857  <S**2>=0.000
       9 -> 14        -0.12901
      10 -> 15        -0.31948
      13 -> 21         0.59089

 Excited State  15:      Singlet-A     10.6188 eV  116.76 nm  f=0.0114  <S**2>=0.000
      10 -> 15         0.46904
      10 -> 16         0.24883
      13 -> 15         0.10839
      13 -> 19         0.11335
      13 -> 21         0.25995
      13 -> 22        -0.27318

 The electronic state is 1-A.
 Alpha  occ. eigenvalues --   -1.91235  -1.19083  -0.91560  -0.81278  -0.77219
 Alpha  occ. eigenvalues --   -0.69151  -0.68175  -0.54082  -0.53068  -0.45802
 Alpha  occ. eigenvalues --   -0.42740  -0.39486  -0.28254
 Alpha virt. eigenvalues --    0.13047   0.17615   0.18271   0.27797   0.30188
 Alpha virt. eigenvalues --    0.31575   0.34462   0.34819   0.38311   0.44084
 Alpha virt. eigenvalues --    0.46162

 Mulliken charges:
               1
     1  C   -0.119294
     2  C   -1.972450
     3  O    3.267454
     4  C   -1.993207
     5  C   -0.227405
     6  H    0.202902
     7  H    0.318544
     8  H    0.331670
     9  H    0.191787
 Sum of Mulliken charges =   0.00000

 Dipole moment (field-independent basis, Debye):
    X=              6.9805    Y=             -9.4601    Z=             -0.0087  Tot=             11.7568
 N-N= 1.042158359262D+02 E-N=-1.701147559620D+02  KE=-1.550737751848D+01
 Orbital energies and kinetic energies (alpha):
                                 1                 2
   1         O                -1.912346         -1.380621
   2         O                -1.190825         -1.077487
   3         O                -0.915597         -0.895125
   4         O                -0.812779         -0.558900
   5         O                -0.772194         -0.672980
   6         O                -0.691513         -0.579113
   7         O                -0.681745         -0.552422

 Normal termination of Gaussian 09 at Tue Dec 15 17:09:32 2015.
