 Gaussian 09, Revision D.01,
 Gaussian 09:  ES64L-G09RevD.01 24-Apr-2013

 ------------------------------------------------------------
 #P AM1(Input,print) CIS(Singlets,NStates=15) pop(full) force
 ------------------------------------------------------------

 -----------------
 AM1-Reparam Input
 -----------------
 Symbolic Z-matrix:
 Charge =  0 Multiplicity = 1

                         Standard orientation:
 ---------------------------------------------------------------------
 Center     Atomic      Atomic             Coordinates (Angstroms)
 Number     Number       Type             X           Y           Z
 ---------------------------------------------------------------------
      1          6           0        0.406120    1.091959    0.018226
      2          6           0        1.107284   -0.035841   -0.014882
      3          8           0        0.368895   -1.105081    0.022608
      4          6           0       -1.010431   -0.604028   -0.009463
      5          6           0       -0.913724    0.696158   -0.028902
      6          1           0       -1.827221    1.383583    0.078202
      7          1           0       -1.730922   -1.319018   -0.010736
      8          1           0        2.231231   -0.249486   -0.051530
      9          1           0        0.840253    2.136077    0.013329
 ---------------------------------------------------------------------

 SCF Done:  E(RAM1) =   2.63584037422     A.U. after   13 cycles

 Excitation energies and oscillator strengths:

 Excited State   1:      Singlet-A      5.1474 eV  240.87 nm  f=0.3319  <S**2>=0.000
      13 -> 14         0.69497
 This state for optimization and/or second-order correction.
 Total Energy, E(CIS) =   2.82500393969
 Copying the excited state density for this state as the 1-particle RhoCI density.

 Excited State   2:      Singlet-A      5.5778 eV  222.28 nm  f=0.0073  <S**2>=0.000
      10 -> 15         0.10788
      13 -> 15         0.67817

 Excited State   3:      Singlet-A      6.5575 eV  189.07 nm  f=0.0015  <S**2>=0.000
      12 -> 14         0.67613
      13 -> 16         0.14940

 Excited State   4:      Singlet-A      6.7959 eV  182.44 nm  f=0.0015  <S**2>=0.000
      11 -> 14         0.10635
      12 -> 14        -0.14623
      13 -> 16         0.65535

 Excited State   5:      Singlet-A      7.3172 eV  169.44 nm  f=0.0043  <S**2>=0.000
      11 -> 14         0.67508
      12 -> 14         0.11310

 Excited State   6:      Singlet-A      7.7429 eV  160.13 nm  f=0.0003  <S**2>=0.000
      13 -> 16        -0.12520
      13 -> 17         0.66166
      13 -> 21         0.11285

 Excited State   7:      Singlet-A      8.6353 eV  143.58 nm  f=0.0628  <S**2>=0.000
      10 -> 14         0.62073
      11 -> 15        -0.10406
      12 -> 15        -0.11228
      12 -> 17         0.18415
      13 -> 18         0.12660

 Excited State   8:      Singlet-A      8.6571 eV  143.22 nm  f=0.0086  <S**2>=0.000
      10 -> 14        -0.13915
      10 -> 15         0.19255
      13 -> 18         0.63373
      13 -> 19         0.10504

 Excited State   9:      Singlet-A      8.9222 eV  138.96 nm  f=0.0336  <S**2>=0.000
       9 -> 15         0.16069
      10 -> 14         0.13695
      11 -> 15        -0.22291
      11 -> 16         0.14408
      12 -> 15         0.53833
      12 -> 17        -0.16149

 Excited State  10:      Singlet-A      9.2108 eV  134.61 nm  f=0.2281  <S**2>=0.000
      10 -> 14         0.21470
      11 -> 15         0.56531
      11 -> 16         0.13054
      11 -> 18        -0.20439
      12 -> 17        -0.19318

 Excited State  11:      Singlet-A      9.5321 eV  130.07 nm  f=0.0098  <S**2>=0.000
       7 -> 15        -0.13231
      10 -> 15         0.58027
      12 -> 16        -0.10217
      13 -> 15        -0.14833
      13 -> 18        -0.14329
      13 -> 19        -0.24817

 Excited State  12:      Singlet-A      9.5475 eV  129.86 nm  f=0.0493  <S**2>=0.000
      10 -> 15         0.25069
      10 -> 16         0.17580
      11 -> 15        -0.11779
      11 -> 16         0.14930
      12 -> 16         0.32077
      12 -> 17        -0.17620
      13 -> 17        -0.11001
      13 -> 18        -0.10349
      13 -> 19         0.40699

 Excited State  13:      Singlet-A      9.6322 eV  128.72 nm  f=0.0992  <S**2>=0.000
      10 -> 16         0.18027
      11 -> 15         0.15313
      11 -> 16        -0.10160
      12 -> 15         0.13739
      12 -> 16        -0.34392
      12 -> 17         0.24649
      12 -> 19        -0.12619
      13 -> 19         0.39874

 Excited State  14:      Singlet-A      9.9960 eV  124.03 nm  f=0.0593  <S**2>=0.000
       9 -> 15         0.18402
      11 -> 16        -0.10236
      12 -> 15         0.19492
      12 -> 16         0.46436
      12 -> 17         0.36809
      12 -> 20        -0.10803

 Excited State  15:      Singlet-A     10.5295 eV  117.75 nm  f=0.4499  <S**2>=0.000
       9 -> 15         0.15380
      11 -> 15        -0.11427
      11 -> 16         0.23886
      11 -> 17         0.38484
      11 -> 18        -0.29567
      12 -> 15        -0.24350
      12 -> 17         0.13391
      12 -> 18         0.10804
      12 -> 19        -0.10938

 The electronic state is 1-A.
 Alpha  occ. eigenvalues --   -1.85171  -1.14400  -0.87942  -0.78815  -0.74728
 Alpha  occ. eigenvalues --   -0.66263  -0.63917  -0.55521  -0.53481  -0.44413
 Alpha  occ. eigenvalues --   -0.42677  -0.40476  -0.28839
 Alpha virt. eigenvalues --    0.10700   0.14144   0.20557   0.25439   0.27325
 Alpha virt. eigenvalues --    0.31004   0.37159   0.42037   0.47293   0.55126
 Alpha virt. eigenvalues --    0.58566

 Mulliken charges:
               1
     1  C   -0.303125
     2  C   -2.013356
     3  O    3.435973
     4  C   -1.937694
     5  C   -0.120011
     6  H    0.199785
     7  H    0.240372
     8  H    0.294601
     9  H    0.203456
 Sum of Mulliken charges =   0.00000

 Dipole moment (field-independent basis, Debye):
    X=              4.5665    Y=            -11.0676    Z=              0.4905  Tot=             11.9828
 N-N= 1.042919036752D+02 E-N=-1.702033796931D+02  KE=-1.437587152646D+01
 Orbital energies and kinetic energies (alpha):
                                 1                 2
   1         O                -1.851709         -1.244936
   2         O                -1.143999         -0.981053
   3         O                -0.879425         -0.806318
   4         O                -0.788150         -0.508453
   5         O                -0.747281         -0.630205
   6         O                -0.662634         -0.531106
   7         O                -0.639173         -0.502943

 Normal termination of Gaussian 09 at Tue Dec 15 17:07:40 2015.
