 Gaussian 09, Revision D.01,
 Gaussian 09:  ES64L-G09RevD.01 24-Apr-2013

 ------------------------------------------------------------
 #P AM1(Input,print) CIS(Singlets,NStates=15) pop(full) force
 ------------------------------------------------------------

 -----------------
 AM1-Reparam Input
 -----------------
 Symbolic Z-matrix:
 Charge =  0 Multiplicity = 1

                         Standard orientation:
 ---------------------------------------------------------------------
 Center     Atomic      Atomic             Coordinates (Angstroms)
 Number     Number       Type             X           Y           Z
 ---------------------------------------------------------------------
      1          6           0        0.666294    1.023339    0.017408
      2          6           0        1.136860   -0.249874   -0.014082
      3          8           0        0.089896   -1.178830   -0.004540
      4          6           0       -1.096074   -0.398709    0.011096
      5          6           0       -0.792337    0.873631   -0.015119
      6          1           0       -1.484298    1.786474   -0.001429
      7          1           0       -2.044421   -0.954456    0.016592
      8          1           0        2.101279   -0.747939    0.035972
      9          1           0        1.219823    1.856243   -0.010626
 ---------------------------------------------------------------------

 SCF Done:  E(RAM1) =   1.14555298314     A.U. after   14 cycles

 Excitation energies and oscillator strengths:

 Excited State   1:      Singlet-A      5.3120 eV  233.40 nm  f=0.2019  <S**2>=0.000
      12 -> 15        -0.15064
      13 -> 14         0.67992
 This state for optimization and/or second-order correction.
 Total Energy, E(CIS) =   1.34076542891
 Copying the excited state density for this state as the 1-particle RhoCI density.

 Excited State   2:      Singlet-A      6.2460 eV  198.50 nm  f=0.0027  <S**2>=0.000
      13 -> 15        -0.10480
      13 -> 16         0.64077
      13 -> 17         0.15630
      13 -> 19         0.19761

 Excited State   3:      Singlet-A      6.3562 eV  195.06 nm  f=0.0561  <S**2>=0.000
      12 -> 14         0.26709
      13 -> 15         0.62928
      13 -> 16         0.10601

 Excited State   4:      Singlet-A      6.5752 eV  188.56 nm  f=0.0002  <S**2>=0.000
      13 -> 16        -0.15735
      13 -> 17         0.64441
      13 -> 18         0.13828
      13 -> 21        -0.12969

 Excited State   5:      Singlet-A      7.1060 eV  174.48 nm  f=0.0008  <S**2>=0.000
       9 -> 14        -0.11318
      11 -> 14         0.68698

 Excited State   6:      Singlet-A      7.8907 eV  157.13 nm  f=0.0002  <S**2>=0.000
       9 -> 15        -0.10220
      10 -> 14        -0.32672
      11 -> 15        -0.24308
      13 -> 17        -0.12090
      13 -> 18         0.41895
      13 -> 19         0.30113
      13 -> 23         0.12552

 Excited State   7:      Singlet-A      7.9216 eV  156.51 nm  f=0.1939  <S**2>=0.000
      10 -> 14         0.14054
      11 -> 15         0.12062
      12 -> 14         0.58434
      13 -> 15        -0.22526
      13 -> 18         0.14201

 Excited State   8:      Singlet-A      7.9508 eV  155.94 nm  f=0.0335  <S**2>=0.000
       9 -> 15         0.11475
      10 -> 14         0.32648
      11 -> 15         0.27275
      12 -> 14        -0.23356
      13 -> 18         0.38122
      13 -> 20        -0.21035

 Excited State   9:      Singlet-A      8.0483 eV  154.05 nm  f=0.0013  <S**2>=0.000
      10 -> 14         0.17753
      11 -> 15         0.16791
      13 -> 16        -0.15488
      13 -> 18        -0.11964
      13 -> 19         0.45550
      13 -> 20         0.39158

 Excited State  10:      Singlet-A      8.3190 eV  149.04 nm  f=0.0195  <S**2>=0.000
       9 -> 15        -0.14647
      10 -> 14         0.46388
      10 -> 15         0.11248
      11 -> 15        -0.45725
      12 -> 15        -0.13107

 Excited State  11:      Singlet-A      8.4453 eV  146.81 nm  f=0.2022  <S**2>=0.000
       9 -> 17         0.10936
      11 -> 15        -0.11565
      11 -> 18        -0.10189
      12 -> 15         0.62707
      13 -> 14         0.13957

 Excited State  12:      Singlet-A      8.7480 eV  141.73 nm  f=0.0017  <S**2>=0.000
      12 -> 16         0.63862
      12 -> 19         0.13195
      13 -> 20        -0.11481
      13 -> 22        -0.14775

 Excited State  13:      Singlet-A      8.8480 eV  140.13 nm  f=0.0043  <S**2>=0.000
      12 -> 17         0.43577
      13 -> 18         0.23043
      13 -> 19        -0.23786
      13 -> 20         0.41076

 Excited State  14:      Singlet-A      9.1372 eV  135.69 nm  f=0.0004  <S**2>=0.000
      13 -> 21         0.62003
      13 -> 22         0.27635

 Excited State  15:      Singlet-A      9.3831 eV  132.14 nm  f=0.0673  <S**2>=0.000
      10 -> 16        -0.13023
      10 -> 17        -0.11873
      10 -> 20         0.15901
      11 -> 16        -0.18563
      11 -> 17         0.32546
      11 -> 18         0.30014
      12 -> 15         0.17735
      12 -> 17         0.25596
      13 -> 19         0.12572
      13 -> 20        -0.13644

 The electronic state is 1-A.
 Alpha  occ. eigenvalues --   -1.78598  -1.18326  -0.97784  -0.86503  -0.80297
 Alpha  occ. eigenvalues --   -0.73418  -0.69882  -0.59837  -0.55987  -0.52067
 Alpha  occ. eigenvalues --   -0.48464  -0.47024  -0.36619
 Alpha virt. eigenvalues --    0.03929   0.08019   0.10889   0.11434   0.17968
 Alpha virt. eigenvalues --    0.18815   0.20479   0.22208   0.25481   0.27383
 Alpha virt. eigenvalues --    0.28281

 Mulliken charges:
               1
     1  C   -0.144631
     2  C   -1.190296
     3  O    2.082164
     4  C   -1.199849
     5  C   -0.137309
     6  H    0.117573
     7  H    0.195852
     8  H    0.181258
     9  H    0.095239
 Sum of Mulliken charges =   0.00000

 Dipole moment (field-independent basis, Debye):
    X=              0.3540    Y=             -7.6977    Z=              0.0288  Tot=              7.7059
 N-N= 1.036688755277D+02 E-N=-1.700744057551D+02  KE=-1.487610423900D+01
 Orbital energies and kinetic energies (alpha):
                                 1                 2
   1         O                -1.785982         -1.199938
   2         O                -1.183260         -0.968333
   3         O                -0.977845         -0.832960
   4         O                -0.865030         -0.612476
   5         O                -0.802971         -0.672482
   6         O                -0.734180         -0.592577
   7         O                -0.698825         -0.506880

 Normal termination of Gaussian 09 at Tue Dec 15 17:05:32 2015.
