 Gaussian 09, Revision D.01,
 Gaussian 09:  ES64L-G09RevD.01 24-Apr-2013

 ------------------------------------------------------------
 #P AM1(Input,print) CIS(Singlets,NStates=15) pop(full) force
 ------------------------------------------------------------

 -----------------
 AM1-Reparam Input
 -----------------
 Symbolic Z-matrix:
 Charge =  0 Multiplicity = 1

                         Standard orientation:
 ---------------------------------------------------------------------
 Center     Atomic      Atomic             Coordinates (Angstroms)
 Number     Number       Type             X           Y           Z
 ---------------------------------------------------------------------
      1          6           0        0.189453    1.179624   -0.007322
      2          6           0        1.110218    0.098785   -0.010080
      3          8           0        0.524540   -1.018994    0.021351
      4          6           0       -0.864042   -0.752405   -0.027256
      5          6           0       -1.003499    0.533802    0.034799
      6          1           0       -2.008220    1.067352   -0.039839
      7          1           0       -1.475100   -1.599951   -0.033952
      8          1           0        2.209512    0.142955   -0.033423
      9          1           0        0.484703    2.182759   -0.004430
 ---------------------------------------------------------------------

 SCF Done:  E(RAM1) =   1.84044554710     A.U. after   14 cycles

 Excitation energies and oscillator strengths:

 Excited State   1:      Singlet-A      5.7908 eV  214.10 nm  f=0.3165  <S**2>=0.000
      13 -> 14         0.68536
 This state for optimization and/or second-order correction.
 Total Energy, E(CIS) =   2.05325441096
 Copying the excited state density for this state as the 1-particle RhoCI density.

 Excited State   2:      Singlet-A      6.4849 eV  191.19 nm  f=0.0061  <S**2>=0.000
      13 -> 15         0.66982
      13 -> 17        -0.16529

 Excited State   3:      Singlet-A      7.4035 eV  167.47 nm  f=0.0039  <S**2>=0.000
      12 -> 14         0.61104
      13 -> 16         0.32602

 Excited State   4:      Singlet-A      7.4720 eV  165.93 nm  f=0.0009  <S**2>=0.000
      12 -> 14        -0.34422
      13 -> 16         0.58723
      13 -> 19         0.11744

 Excited State   5:      Singlet-A      8.4530 eV  146.67 nm  f=0.0012  <S**2>=0.000
      10 -> 14         0.18644
      11 -> 14        -0.20332
      13 -> 17         0.42529
      13 -> 18         0.39607
      13 -> 19         0.12572
      13 -> 21         0.21872

 Excited State   6:      Singlet-A      8.5954 eV  144.24 nm  f=0.0029  <S**2>=0.000
      10 -> 14        -0.40523
      11 -> 14         0.49582
      13 -> 17         0.16419
      13 -> 18         0.19746

 Excited State   7:      Singlet-A      9.0825 eV  136.51 nm  f=0.0118  <S**2>=0.000
      10 -> 14        -0.14439
      10 -> 15         0.11503
      11 -> 14        -0.14080
      11 -> 16        -0.11549
      12 -> 15        -0.10405
      13 -> 15        -0.11148
      13 -> 17        -0.42249
      13 -> 18         0.43159

 Excited State   8:      Singlet-A      9.1166 eV  136.00 nm  f=0.0395  <S**2>=0.000
      10 -> 14         0.38965
      10 -> 16        -0.11477
      11 -> 14         0.27678
      11 -> 15         0.13251
      12 -> 15         0.21589
      12 -> 17        -0.23961
      12 -> 18        -0.13104
      13 -> 17        -0.19932
      13 -> 18         0.16148

 Excited State   9:      Singlet-A      9.6924 eV  127.92 nm  f=0.1695  <S**2>=0.000
       9 -> 15         0.17479
      10 -> 14        -0.27377
      10 -> 18        -0.10473
      11 -> 14        -0.26695
      11 -> 18         0.10345
      12 -> 15         0.44133
      12 -> 17        -0.11766
      13 -> 19         0.14047

 Excited State  10:      Singlet-A      9.7325 eV  127.39 nm  f=0.0129  <S**2>=0.000
      11 -> 15        -0.11977
      11 -> 16        -0.11252
      13 -> 17        -0.11011
      13 -> 18        -0.19907
      13 -> 19         0.59395
      13 -> 21         0.11168

 Excited State  11:      Singlet-A     10.0036 eV  123.94 nm  f=0.0092  <S**2>=0.000
      11 -> 15         0.61582
      12 -> 15        -0.14214
      13 -> 15         0.11855
      13 -> 19         0.10973

 Excited State  12:      Singlet-A     10.1334 eV  122.35 nm  f=0.0048  <S**2>=0.000
      10 -> 15         0.60208
      10 -> 17        -0.10860
      12 -> 15         0.13454
      12 -> 16         0.19457

 Excited State  13:      Singlet-A     10.1749 eV  121.85 nm  f=0.2266  <S**2>=0.000
      10 -> 15        -0.17125
      12 -> 15        -0.19221
      12 -> 16         0.57805
      12 -> 18        -0.15645
      12 -> 19         0.17638

 Excited State  14:      Singlet-A     10.3523 eV  119.77 nm  f=0.1217  <S**2>=0.000
       9 -> 15         0.12142
      10 -> 14         0.16442
      11 -> 14         0.15921
      11 -> 16        -0.10122
      12 -> 15         0.18077
      12 -> 16         0.25577
      12 -> 17         0.32197
      12 -> 18         0.38843
      12 -> 20         0.13101

 Excited State  15:      Singlet-A     10.6887 eV  116.00 nm  f=0.0114  <S**2>=0.000
      13 -> 18        -0.15368
      13 -> 19        -0.19585
      13 -> 20         0.28024
      13 -> 21         0.57881

 The electronic state is 1-A.
 Alpha  occ. eigenvalues --   -2.01797  -1.30026  -1.01243  -0.90204  -0.85659
 Alpha  occ. eigenvalues --   -0.76908  -0.76434  -0.64439  -0.61166  -0.52937
 Alpha  occ. eigenvalues --   -0.52533  -0.48637  -0.38076
 Alpha virt. eigenvalues --    0.05269   0.08982   0.13521   0.18015   0.20517
 Alpha virt. eigenvalues --    0.22338   0.26143   0.27567   0.30845   0.38626
 Alpha virt. eigenvalues --    0.43854

 Mulliken charges:
               1
     1  C   -0.195532
     2  C   -1.958765
     3  O    3.168299
     4  C   -1.859494
     5  C   -0.048388
     6  H    0.161312
     7  H    0.264147
     8  H    0.314302
     9  H    0.154119
 Sum of Mulliken charges =   0.00000

 Dipole moment (field-independent basis, Debye):
    X=              5.0300    Y=             -8.9237    Z=              0.4628  Tot=             10.2541
 N-N= 1.065092320931D+02 E-N=-1.719932060973D+02  KE=-1.574320299983D+01
 Orbital energies and kinetic energies (alpha):
                                 1                 2
   1         O                -2.017967         -1.410623
   2         O                -1.300256         -1.069742
   3         O                -1.012434         -0.888378
   4         O                -0.902044         -0.583301
   5         O                -0.856585         -0.698502
   6         O                -0.769079         -0.607846
   7         O                -0.764335         -0.555860

 Normal termination of Gaussian 09 at Tue Dec 15 17:09:08 2015.
