 Gaussian 09, Revision D.01,
 Gaussian 09:  ES64L-G09RevD.01 24-Apr-2013

 ------------------------------------------------------------
 #P AM1(Input,print) CIS(Singlets,NStates=15) pop(full) force
 ------------------------------------------------------------

 -----------------
 AM1-Reparam Input
 -----------------
 Symbolic Z-matrix:
 Charge =  0 Multiplicity = 1

                         Standard orientation:
 ---------------------------------------------------------------------
 Center     Atomic      Atomic             Coordinates (Angstroms)
 Number     Number       Type             X           Y           Z
 ---------------------------------------------------------------------
      1          6           0       -0.885270    0.787392    0.015701
      2          6           0       -1.065905   -0.472591   -0.015346
      3          8           0        0.213108   -1.146504    0.022311
      4          6           0        1.169657   -0.156108   -0.021829
      5          6           0        0.536669    1.068398   -0.009674
      6          1           0        1.077165    1.969415    0.057703
      7          1           0        2.133243   -0.528447   -0.004625
      8          1           0       -1.874166   -1.175156   -0.029939
      9          1           0       -1.572016    1.543671   -0.014736
 ---------------------------------------------------------------------

 SCF Done:  E(RAM1) =  -6.23511441881     A.U. after   13 cycles

 Excitation energies and oscillator strengths:

 Excited State   1:      Singlet-A      6.0182 eV  206.02 nm  f=0.0068  <S**2>=0.000
      13 -> 14        -0.11395
      13 -> 15        -0.32511
      13 -> 16         0.55467
      13 -> 18        -0.12127
      13 -> 19        -0.18656
      13 -> 21         0.10370
 This state for optimization and/or second-order correction.
 Total Energy, E(CIS) =  -6.01395090460
 Copying the excited state density for this state as the 1-particle RhoCI density.

 Excited State   2:      Singlet-A      6.3107 eV  196.47 nm  f=0.2318  <S**2>=0.000
      13 -> 14         0.48955
      13 -> 15        -0.40051
      13 -> 16        -0.18230
      13 -> 17         0.23080

 Excited State   3:      Singlet-A      6.4347 eV  192.68 nm  f=0.2600  <S**2>=0.000
      13 -> 14         0.47773
      13 -> 15         0.33334
      13 -> 16         0.32435
      13 -> 17        -0.20029

 Excited State   4:      Singlet-A      7.4504 eV  166.41 nm  f=0.0000  <S**2>=0.000
      13 -> 15         0.31754
      13 -> 17         0.61615

 Excited State   5:      Singlet-A      7.7643 eV  159.68 nm  f=0.0049  <S**2>=0.000
      13 -> 18        -0.34750
      13 -> 19         0.59213

 Excited State   6:      Singlet-A      8.2854 eV  149.64 nm  f=0.0015  <S**2>=0.000
      12 -> 14         0.65888
      13 -> 18         0.21183

 Excited State   7:      Singlet-A      8.5047 eV  145.78 nm  f=0.0004  <S**2>=0.000
      10 -> 17        -0.10733
      12 -> 14        -0.23241
      13 -> 16         0.15811
      13 -> 18         0.53820
      13 -> 19         0.31382

 Excited State   8:      Singlet-A      9.3782 eV  132.20 nm  f=0.0192  <S**2>=0.000
      11 -> 14         0.62254
      12 -> 15        -0.15441
      12 -> 16         0.21064

 Excited State   9:      Singlet-A      9.4117 eV  131.73 nm  f=0.0736  <S**2>=0.000
      11 -> 14        -0.29621
      11 -> 16        -0.10935
      12 -> 15        -0.33516
      12 -> 16         0.45479
      12 -> 17         0.10449
      12 -> 18        -0.15445
      12 -> 19        -0.13407

 Excited State  10:      Singlet-A     10.1300 eV  122.39 nm  f=0.0239  <S**2>=0.000
      12 -> 15         0.12323
      13 -> 20         0.65899

 Excited State  11:      Singlet-A     10.1669 eV  121.95 nm  f=0.0615  <S**2>=0.000
       9 -> 16         0.11702
      11 -> 15        -0.10257
      11 -> 19        -0.11415
      12 -> 15         0.45615
      12 -> 16         0.34190
      12 -> 17        -0.25614
      12 -> 19        -0.10646
      13 -> 20        -0.18565
      13 -> 22         0.11469

 Excited State  12:      Singlet-A     10.5694 eV  117.31 nm  f=0.0369  <S**2>=0.000
      10 -> 14         0.16476
      11 -> 16         0.59533
      11 -> 18        -0.19378
      12 -> 15        -0.12722

 Excited State  13:      Singlet-A     10.6545 eV  116.37 nm  f=0.0024  <S**2>=0.000
      13 -> 21         0.68181

 Excited State  14:      Singlet-A     10.7046 eV  115.82 nm  f=0.0869  <S**2>=0.000
      10 -> 14         0.38915
      11 -> 15        -0.22391
      11 -> 16        -0.16478
      11 -> 17         0.18984
      12 -> 16        -0.10997
      13 -> 22         0.42493

 Excited State  15:      Singlet-A     10.8937 eV  113.81 nm  f=0.2535  <S**2>=0.000
      10 -> 14         0.15273
      11 -> 15         0.45719
      11 -> 17        -0.30054
      12 -> 19        -0.12081
      13 -> 22         0.31515

 The electronic state is 1-A.
 Alpha  occ. eigenvalues --   -4.05625  -1.37763  -1.10105  -1.08988  -1.00559
 Alpha  occ. eigenvalues --   -0.96170  -0.89707  -0.73199  -0.70110  -0.61587
 Alpha  occ. eigenvalues --   -0.58962  -0.56159  -0.40992
 Alpha virt. eigenvalues --    0.01889   0.05787   0.06332   0.09014   0.13118
 Alpha virt. eigenvalues --    0.14399   0.19274   0.22427   0.23157   0.29250
 Alpha virt. eigenvalues --    0.34944

 Mulliken charges:
               1
     1  C   -0.336570
     2  C   -1.936167
     3  O    3.386234
     4  C   -2.023141
     5  C   -0.494316
     6  H    0.352043
     7  H    0.358650
     8  H    0.353702
     9  H    0.339567
 Sum of Mulliken charges =   0.00000

 Dipole moment (field-independent basis, Debye):
    X=              1.7875    Y=            -12.4739    Z=              0.6568  Tot=             12.6184
 N-N= 1.048764514919D+02 E-N=-1.687031194051D+02  KE=-2.532149895958D+01
 Orbital energies and kinetic energies (alpha):
                                 1                 2
   1         O                -4.056255         -2.979890
   2         O                -1.377633         -1.280435
   3         O                -1.101045         -1.058680
   4         O                -1.089876         -1.057188
   5         O                -1.005595         -0.847810
   6         O                -0.961699         -0.971525
   7         O                -0.897074         -0.858639

 Normal termination of Gaussian 09 at Fri Dec 11 13:41:35 2015.
