 Gaussian 09, Revision D.01,
 Gaussian 09:  ES64L-G09RevD.01 24-Apr-2013

 ------------------------------------------------------------
 #P AM1(Input,print) CIS(Singlets,NStates=15) pop(full) force
 ------------------------------------------------------------

 -----------------
 AM1-Reparam Input
 -----------------
 Symbolic Z-matrix:
 Charge =  0 Multiplicity = 1

                         Standard orientation:
 ---------------------------------------------------------------------
 Center     Atomic      Atomic             Coordinates (Angstroms)
 Number     Number       Type             X           Y           Z
 ---------------------------------------------------------------------
      1          6           0       -0.376584    1.124644   -0.024671
      2          6           0       -1.163767    0.018786   -0.011134
      3          8           0       -0.392425   -1.095488    0.009137
      4          6           0        0.940801   -0.648277   -0.018496
      5          6           0        1.003911    0.667765    0.015701
      6          1           0        1.949612    1.267863    0.039996
      7          1           0        1.649509   -1.489261    0.007927
      8          1           0       -2.235078   -0.102056    0.071992
      9          1           0       -0.650812    2.109852    0.038586
 ---------------------------------------------------------------------

 SCF Done:  E(RAM1) =   1.81099614196     A.U. after   14 cycles

 Excitation energies and oscillator strengths:

 Excited State   1:      Singlet-A      5.3095 eV  233.52 nm  f=0.3579  <S**2>=0.000
      13 -> 14         0.69370
 This state for optimization and/or second-order correction.
 Total Energy, E(CIS) =   2.00611556860
 Copying the excited state density for this state as the 1-particle RhoCI density.

 Excited State   2:      Singlet-A      6.5549 eV  189.15 nm  f=0.0028  <S**2>=0.000
      13 -> 15         0.58056
      13 -> 16         0.34072
      13 -> 17        -0.11175
      13 -> 19        -0.12772

 Excited State   3:      Singlet-A      6.5906 eV  188.12 nm  f=0.0031  <S**2>=0.000
      13 -> 15        -0.33270
      13 -> 16         0.58449
      13 -> 17        -0.10661
      13 -> 18        -0.13844

 Excited State   4:      Singlet-A      7.3935 eV  167.69 nm  f=0.0005  <S**2>=0.000
      12 -> 14         0.69861

 Excited State   5:      Singlet-A      7.9727 eV  155.51 nm  f=0.0003  <S**2>=0.000
      13 -> 15        -0.13085
      13 -> 17        -0.13059
      13 -> 18         0.63705
      13 -> 21         0.19483

 Excited State   6:      Singlet-A      8.2691 eV  149.94 nm  f=0.0079  <S**2>=0.000
      10 -> 14         0.16916
      11 -> 14         0.66935
      13 -> 17        -0.11252

 Excited State   7:      Singlet-A      8.7549 eV  141.62 nm  f=0.0095  <S**2>=0.000
      10 -> 15        -0.12062
      11 -> 14         0.11954
      13 -> 16         0.13480
      13 -> 17         0.65348
      13 -> 18         0.13305

 Excited State   8:      Singlet-A      9.1388 eV  135.67 nm  f=0.0790  <S**2>=0.000
      10 -> 14         0.64323
      11 -> 14        -0.15580

 Excited State   9:      Singlet-A      9.3434 eV  132.70 nm  f=0.0014  <S**2>=0.000
      13 -> 15         0.12136
      13 -> 19         0.67869

 Excited State  10:      Singlet-A      9.6974 eV  127.85 nm  f=0.0220  <S**2>=0.000
       8 -> 16         0.13045
       9 -> 15         0.10843
      10 -> 14         0.12047
      11 -> 16        -0.16867
      11 -> 17         0.19677
      12 -> 15         0.43803
      12 -> 17        -0.11114
      12 -> 18         0.35078

 Excited State  11:      Singlet-A     10.2399 eV  121.08 nm  f=0.2389  <S**2>=0.000
      11 -> 16         0.34193
      11 -> 17        -0.14406
      12 -> 15         0.36640
      12 -> 16        -0.34052
      12 -> 17         0.11297
      12 -> 18        -0.16823
      12 -> 19        -0.10066

 Excited State  12:      Singlet-A     10.2585 eV  120.86 nm  f=0.0224  <S**2>=0.000
      13 -> 18        -0.19903
      13 -> 20        -0.38967
      13 -> 21         0.51220

 Excited State  13:      Singlet-A     10.2719 eV  120.70 nm  f=0.0686  <S**2>=0.000
      11 -> 15         0.27255
      11 -> 16         0.16547
      12 -> 15         0.26466
      12 -> 16         0.48568
      13 -> 20         0.11307

 Excited State  14:      Singlet-A     10.4231 eV  118.95 nm  f=0.0836  <S**2>=0.000
      10 -> 15        -0.13290
      13 -> 20         0.53370
      13 -> 21         0.41546

 Excited State  15:      Singlet-A     10.6101 eV  116.85 nm  f=0.0035  <S**2>=0.000
       7 -> 15         0.11528
      10 -> 15         0.22620
      10 -> 16         0.55894
      11 -> 15        -0.16939
      11 -> 16        -0.16840
      13 -> 15         0.11453

 The electronic state is 1-A.
 Alpha  occ. eigenvalues --   -1.98836  -1.26790  -1.00324  -0.89433  -0.84779
 Alpha  occ. eigenvalues --   -0.76746  -0.73790  -0.63294  -0.61665  -0.52344
 Alpha  occ. eigenvalues --   -0.51730  -0.49009  -0.35597
 Alpha virt. eigenvalues --    0.04653   0.11553   0.11670   0.20021   0.20776
 Alpha virt. eigenvalues --    0.23212   0.26229   0.27717   0.28014   0.36343
 Alpha virt. eigenvalues --    0.41130

 Mulliken charges:
               1
     1  C   -0.179430
     2  C   -1.891471
     3  O    3.169466
     4  C   -1.857458
     5  C   -0.095371
     6  H    0.152431
     7  H    0.267689
     8  H    0.288131
     9  H    0.146011
 Sum of Mulliken charges =   0.00000

 Dipole moment (field-independent basis, Debye):
    X=             -3.4890    Y=            -10.5829    Z=              0.5848  Tot=             11.1585
 N-N= 1.053779556212D+02 E-N=-1.702128535609D+02  KE=-1.563434150647D+01
 Orbital energies and kinetic energies (alpha):
                                 1                 2
   1         O                -1.988361         -1.360851
   2         O                -1.267895         -1.049269
   3         O                -1.003243         -0.888226
   4         O                -0.894327         -0.586024
   5         O                -0.847785         -0.697434
   6         O                -0.767456         -0.602621
   7         O                -0.737903         -0.543782

 Normal termination of Gaussian 09 at Tue Dec 15 17:09:03 2015.
