 Gaussian 09, Revision D.01,
 Gaussian 09:  ES64L-G09RevD.01 24-Apr-2013

 ------------------------------------------------------------
 #P AM1(Input,print) CIS(Singlets,NStates=15) pop(full) force
 ------------------------------------------------------------

 -----------------
 AM1-Reparam Input
 -----------------
 Symbolic Z-matrix:
 Charge =  0 Multiplicity = 1

                         Standard orientation:
 ---------------------------------------------------------------------
 Center     Atomic      Atomic             Coordinates (Angstroms)
 Number     Number       Type             X           Y           Z
 ---------------------------------------------------------------------
      1          6           0        0.961004    0.714901    0.003316
      2          6           0        0.937369   -0.618462   -0.000946
      3          8           0       -0.343133   -1.143220   -0.015483
      4          6           0       -1.091747   -0.002208    0.030209
      5          6           0       -0.447050    1.116828   -0.006390
      6          1           0       -0.799831    2.085926   -0.007749
      7          1           0       -2.187945   -0.289368   -0.041894
      8          1           0        1.755621   -1.305255    0.050051
      9          1           0        1.819766    1.388099   -0.033679
 ---------------------------------------------------------------------

 SCF Done:  E(RAM1) =   1.77381184669     A.U. after   14 cycles

 Excitation energies and oscillator strengths:

 Excited State   1:      Singlet-A      5.1641 eV  240.09 nm  f=0.3384  <S**2>=0.000
      13 -> 14         0.69572
 This state for optimization and/or second-order correction.
 Total Energy, E(CIS) =   1.96358896014
 Copying the excited state density for this state as the 1-particle RhoCI density.

 Excited State   2:      Singlet-A      5.3551 eV  231.53 nm  f=0.0026  <S**2>=0.000
      11 -> 15         0.10812
      13 -> 15         0.68374

 Excited State   3:      Singlet-A      6.1177 eV  202.66 nm  f=0.0015  <S**2>=0.000
      11 -> 16        -0.10917
      13 -> 16         0.66099
      13 -> 17        -0.11920
      13 -> 18         0.12524
      13 -> 19        -0.10817

 Excited State   4:      Singlet-A      6.8240 eV  181.69 nm  f=0.0000  <S**2>=0.000
      12 -> 14         0.68469

 Excited State   5:      Singlet-A      7.2434 eV  171.17 nm  f=0.0031  <S**2>=0.000
      12 -> 14         0.13969
      13 -> 17        -0.21239
      13 -> 18        -0.14374
      13 -> 19         0.45847
      13 -> 20         0.17497
      13 -> 21        -0.38762

 Excited State   6:      Singlet-A      7.5233 eV  164.80 nm  f=0.0195  <S**2>=0.000
      13 -> 16         0.13556
      13 -> 17         0.64859
      13 -> 21        -0.16951

 Excited State   7:      Singlet-A      8.1459 eV  152.20 nm  f=0.0012  <S**2>=0.000
      13 -> 16        -0.11116
      13 -> 18         0.54854
      13 -> 19        -0.15900
      13 -> 21        -0.38372

 Excited State   8:      Singlet-A      8.2895 eV  149.57 nm  f=0.0029  <S**2>=0.000
      10 -> 14         0.51955
      13 -> 18         0.26829
      13 -> 19         0.29881
      13 -> 21         0.22045

 Excited State   9:      Singlet-A      8.3501 eV  148.48 nm  f=0.0064  <S**2>=0.000
      10 -> 14         0.42347
      13 -> 18        -0.28307
      13 -> 19        -0.31747
      13 -> 20        -0.14003
      13 -> 21        -0.31219

 Excited State  10:      Singlet-A      8.5214 eV  145.50 nm  f=0.0838  <S**2>=0.000
       9 -> 15         0.16755
      10 -> 14         0.10678
      11 -> 14         0.44789
      12 -> 15         0.45321

 Excited State  11:      Singlet-A      8.7978 eV  140.93 nm  f=0.0913  <S**2>=0.000
      10 -> 14         0.16047
      11 -> 14         0.19101
      12 -> 15        -0.12175
      13 -> 19        -0.15030
      13 -> 20         0.59354
      13 -> 21         0.11117

 Excited State  12:      Singlet-A      8.8613 eV  139.92 nm  f=0.1998  <S**2>=0.000
       9 -> 15        -0.10256
       9 -> 16        -0.10488
      11 -> 14         0.41388
      12 -> 15        -0.34990
      12 -> 16         0.22588
      13 -> 20        -0.26168

 Excited State  13:      Singlet-A      9.2121 eV  134.59 nm  f=0.0022  <S**2>=0.000
       7 -> 15        -0.14224
      11 -> 15         0.66738
      13 -> 15        -0.12567

 Excited State  14:      Singlet-A      9.4867 eV  130.69 nm  f=0.1179  <S**2>=0.000
       9 -> 16        -0.15743
      10 -> 15         0.10530
      10 -> 17        -0.17843
      11 -> 14        -0.22169
      12 -> 15         0.25905
      12 -> 16         0.44186
      12 -> 18         0.19512
      12 -> 21         0.16042

 Excited State  15:      Singlet-A      9.8159 eV  126.31 nm  f=0.0061  <S**2>=0.000
       7 -> 16         0.12229
      11 -> 16         0.61186
      12 -> 19         0.10129
      12 -> 21        -0.14943
      13 -> 16         0.12853

 The electronic state is 1-A.
 Alpha  occ. eigenvalues --   -1.90875  -1.22882  -0.98888  -0.81971  -0.79936
 Alpha  occ. eigenvalues --   -0.68678  -0.63033  -0.51459  -0.51251  -0.43253
 Alpha  occ. eigenvalues --   -0.41452  -0.38421  -0.25312
 Alpha virt. eigenvalues --    0.13981   0.16165   0.19682   0.27389   0.28857
 Alpha virt. eigenvalues --    0.29749   0.30936   0.31383   0.35659   0.45607
 Alpha virt. eigenvalues --    0.48530

 Mulliken charges:
               1
     1  C   -0.136781
     2  C   -1.907921
     3  O    3.153226
     4  C   -1.857100
     5  C   -0.146777
     6  H    0.169466
     7  H    0.264696
     8  H    0.294902
     9  H    0.166288
 Sum of Mulliken charges =   0.00000

 Dipole moment (field-independent basis, Debye):
    X=             -3.4824    Y=            -10.9402    Z=             -0.4543  Tot=             11.4901
 N-N= 1.041101875359D+02 E-N=-1.697741063406D+02  KE=-1.575045976733D+01
 Orbital energies and kinetic energies (alpha):
                                 1                 2
   1         O                -1.908745         -1.370022
   2         O                -1.228816         -1.119813
   3         O                -0.988879         -0.928854
   4         O                -0.819706         -0.632421
   5         O                -0.799362         -0.682930
   6         O                -0.686781         -0.584689
   7         O                -0.630325         -0.517746

 Normal termination of Gaussian 09 at Tue Dec 15 17:06:59 2015.
