 Gaussian 09, Revision D.01,
 Gaussian 09:  ES64L-G09RevD.01 24-Apr-2013

 ------------------------------------------------------------
 #P AM1(Input,print) CIS(Singlets,NStates=15) pop(full) force
 ------------------------------------------------------------

 -----------------
 AM1-Reparam Input
 -----------------
 Symbolic Z-matrix:
 Charge =  0 Multiplicity = 1

                         Standard orientation:
 ---------------------------------------------------------------------
 Center     Atomic      Atomic             Coordinates (Angstroms)
 Number     Number       Type             X           Y           Z
 ---------------------------------------------------------------------
      1          6           0       -0.520978    1.102256   -0.031309
      2          6           0       -1.158001   -0.172240   -0.009191
      3          8           0       -0.207656   -1.147392    0.007263
      4          6           0        1.042012   -0.528583   -0.022241
      5          6           0        0.868888    0.809823    0.035096
      6          1           0        1.608042    1.564539    0.007360
      7          1           0        1.895582   -1.141840   -0.003126
      8          1           0       -2.203763   -0.517997    0.079096
      9          1           0       -1.030141    2.006900    0.024441
 ---------------------------------------------------------------------

 SCF Done:  E(RAM1) =   1.68097831432     A.U. after   14 cycles

 Excitation energies and oscillator strengths:

 Excited State   1:      Singlet-A      5.4675 eV  226.77 nm  f=0.3459  <S**2>=0.000
      13 -> 14         0.69367
 This state for optimization and/or second-order correction.
 Total Energy, E(CIS) =   1.88190467971
 Copying the excited state density for this state as the 1-particle RhoCI density.

 Excited State   2:      Singlet-A      6.4917 eV  190.99 nm  f=0.0054  <S**2>=0.000
      13 -> 15         0.62000
      13 -> 16         0.11731
      13 -> 17         0.27549

 Excited State   3:      Singlet-A      6.8393 eV  181.28 nm  f=0.0019  <S**2>=0.000
      11 -> 16         0.10083
      13 -> 16         0.62427
      13 -> 18        -0.11347
      13 -> 20        -0.23553

 Excited State   4:      Singlet-A      7.1263 eV  173.98 nm  f=0.0011  <S**2>=0.000
      11 -> 14        -0.20220
      12 -> 14         0.64576

 Excited State   5:      Singlet-A      7.5931 eV  163.29 nm  f=0.0018  <S**2>=0.000
      11 -> 15         0.10213
      12 -> 14        -0.15161
      13 -> 15        -0.14508
      13 -> 17         0.21000
      13 -> 18        -0.19847
      13 -> 19        -0.31695
      13 -> 20         0.42600
      13 -> 21         0.24017

 Excited State   6:      Singlet-A      7.8485 eV  157.97 nm  f=0.0239  <S**2>=0.000
      11 -> 16        -0.10027
      13 -> 15        -0.20248
      13 -> 17         0.59193
      13 -> 20        -0.14516
      13 -> 21        -0.16000

 Excited State   7:      Singlet-A      8.1487 eV  152.15 nm  f=0.0014  <S**2>=0.000
      10 -> 14         0.68392
      13 -> 17        -0.11202

 Excited State   8:      Singlet-A      8.5191 eV  145.54 nm  f=0.0020  <S**2>=0.000
      13 -> 16         0.17056
      13 -> 18         0.57164
      13 -> 19         0.10720
      13 -> 20         0.30082

 Excited State   9:      Singlet-A      8.5874 eV  144.38 nm  f=0.0912  <S**2>=0.000
      11 -> 14         0.64710
      12 -> 14         0.20281

 Excited State  10:      Singlet-A      8.8305 eV  140.40 nm  f=0.0061  <S**2>=0.000
      13 -> 18        -0.30362
      13 -> 19         0.46188
      13 -> 20         0.33243
      13 -> 21        -0.26635

 Excited State  11:      Singlet-A      9.1903 eV  134.91 nm  f=0.0784  <S**2>=0.000
      13 -> 19         0.37310
      13 -> 21         0.55955

 Excited State  12:      Singlet-A      9.5185 eV  130.26 nm  f=0.0193  <S**2>=0.000
       8 -> 15         0.13930
      10 -> 15        -0.14780
      10 -> 16        -0.13663
      10 -> 17        -0.23153
      11 -> 15         0.13700
      12 -> 15         0.35672
      12 -> 16        -0.17245
      12 -> 17         0.15288
      12 -> 19        -0.14379
      12 -> 20         0.16538
      12 -> 21         0.14703
      13 -> 21        -0.12401

 Excited State  13:      Singlet-A      9.6348 eV  128.68 nm  f=0.0102  <S**2>=0.000
      10 -> 17         0.12882
      11 -> 15         0.52064
      11 -> 17         0.15190
      12 -> 15         0.18874
      12 -> 16         0.16280
      12 -> 19         0.15567
      13 -> 15         0.13698
      13 -> 16        -0.10444

 Excited State  14:      Singlet-A     10.0474 eV  123.40 nm  f=0.0691  <S**2>=0.000
       8 -> 16        -0.11946
      10 -> 19        -0.13611
      11 -> 14        -0.10198
      11 -> 15        -0.29172
      12 -> 15         0.34884
      12 -> 16         0.36792
      12 -> 19         0.19970

 Excited State  15:      Singlet-A     10.1943 eV  121.62 nm  f=0.1521  <S**2>=0.000
       8 -> 15        -0.12323
      10 -> 15        -0.14660
      10 -> 17        -0.13991
      11 -> 16         0.35088
      12 -> 15        -0.20520
      12 -> 16         0.38317
      12 -> 17         0.10783
      12 -> 19        -0.16674
      13 -> 16        -0.10905

 The electronic state is 1-A.
 Alpha  occ. eigenvalues --   -1.90035  -1.21539  -0.98389  -0.81882  -0.80894
 Alpha  occ. eigenvalues --   -0.68678  -0.62261  -0.54524  -0.52160  -0.44164
 Alpha  occ. eigenvalues --   -0.42104  -0.41076  -0.28481
 Alpha virt. eigenvalues --    0.12341   0.18059   0.19832   0.24451   0.27147
 Alpha virt. eigenvalues --    0.28527   0.28720   0.29574   0.35761   0.44599
 Alpha virt. eigenvalues --    0.49554

 Mulliken charges:
               1
     1  C   -0.152013
     2  C   -1.967762
     3  O    3.188820
     4  C   -1.936578
     5  C   -0.091388
     6  H    0.174773
     7  H    0.300460
     8  H    0.300331
     9  H    0.183357
 Sum of Mulliken charges =   0.00000

 Dipole moment (field-independent basis, Debye):
    X=             -1.7501    Y=            -10.1565    Z=              0.5651  Tot=             10.3217
 N-N= 1.034842175595D+02 E-N=-1.685757056240D+02  KE=-1.570706172905D+01
 Orbital energies and kinetic energies (alpha):
                                 1                 2
   1         O                -1.900348         -1.358334
   2         O                -1.215386         -1.100724
   3         O                -0.983886         -0.907298
   4         O                -0.818819         -0.639830
   5         O                -0.808943         -0.700222
   6         O                -0.686782         -0.595072
   7         O                -0.622606         -0.506125

 Normal termination of Gaussian 09 at Tue Dec 15 17:06:51 2015.
