 Gaussian 09, Revision D.01,
 Gaussian 09:  ES64L-G09RevD.01 24-Apr-2013

 ------------------------------------------------------------
 #P AM1(Input,print) CIS(Singlets,NStates=15) pop(full) force
 ------------------------------------------------------------

 -----------------
 AM1-Reparam Input
 -----------------
 Symbolic Z-matrix:
 Charge =  0 Multiplicity = 1

                         Standard orientation:
 ---------------------------------------------------------------------
 Center     Atomic      Atomic             Coordinates (Angstroms)
 Number     Number       Type             X           Y           Z
 ---------------------------------------------------------------------
      1          6           0        0.742803    0.936896   -0.010631
      2          6           0        1.121547   -0.390514   -0.001570
      3          8           0       -0.036720   -1.126727   -0.003046
      4          6           0       -1.137069   -0.293390   -0.004775
      5          6           0       -0.695913    0.939560    0.009100
      6          1           0       -1.292563    1.819857   -0.003905
      7          1           0       -2.080019   -0.819037    0.021126
      8          1           0        2.038956   -0.905150    0.038451
      9          1           0        1.439177    1.762834    0.015956
 ---------------------------------------------------------------------

 SCF Done:  E(RAM1) =  0.182496627664E-01 A.U. after   13 cycles

 Excitation energies and oscillator strengths:

 Excited State   1:      Singlet-A      4.5639 eV  271.66 nm  f=0.0914  <S**2>=0.000
      12 -> 15         0.21655
      13 -> 14         0.66424
 This state for optimization and/or second-order correction.
 Total Energy, E(CIS) =  0.185968614361
 Copying the excited state density for this state as the 1-particle RhoCI density.

 Excited State   2:      Singlet-A      4.9982 eV  248.06 nm  f=0.0003  <S**2>=0.000
      13 -> 16         0.69067

 Excited State   3:      Singlet-A      5.1668 eV  239.96 nm  f=0.0029  <S**2>=0.000
      12 -> 14        -0.45120
      13 -> 15         0.53746

 Excited State   4:      Singlet-A      5.7839 eV  214.36 nm  f=0.0020  <S**2>=0.000
       7 -> 16        -0.18646
      12 -> 16         0.65675
      12 -> 22        -0.12821

 Excited State   5:      Singlet-A      5.9223 eV  209.35 nm  f=0.0007  <S**2>=0.000
      12 -> 18         0.18987
      12 -> 22         0.10246
      13 -> 17         0.10605
      13 -> 18         0.52391
      13 -> 21         0.12595
      13 -> 22         0.27340
      13 -> 23        -0.19021

 Excited State   6:      Singlet-A      6.2117 eV  199.60 nm  f=0.3542  <S**2>=0.000
      11 -> 16        -0.13495
      12 -> 14         0.49769
      13 -> 15         0.43090

 Excited State   7:      Singlet-A      6.3063 eV  196.60 nm  f=0.0005  <S**2>=0.000
      12 -> 17        -0.15296
      12 -> 19        -0.21053
      12 -> 20         0.10354
      12 -> 22         0.11359
      12 -> 23         0.16313
      13 -> 17         0.40281
      13 -> 19         0.25822
      13 -> 22        -0.20394
      13 -> 23        -0.24378

 Excited State   8:      Singlet-A      6.4527 eV  192.14 nm  f=0.1418  <S**2>=0.000
      12 -> 15         0.65326
      13 -> 14        -0.19846

 Excited State   9:      Singlet-A      6.5805 eV  188.41 nm  f=0.0044  <S**2>=0.000
      12 -> 22         0.10266
      13 -> 17        -0.44067
      13 -> 19         0.47323
      13 -> 20        -0.14545

 Excited State  10:      Singlet-A      6.8787 eV  180.24 nm  f=0.0030  <S**2>=0.000
       9 -> 15        -0.15015
      10 -> 14         0.15884
      10 -> 15         0.15618
      11 -> 14         0.61753

 Excited State  11:      Singlet-A      7.0698 eV  175.37 nm  f=0.0000  <S**2>=0.000
      12 -> 17         0.48054
      12 -> 18        -0.15014
      12 -> 19        -0.30078
      12 -> 20         0.23404
      12 -> 21        -0.11049
      12 -> 23        -0.10528
      13 -> 18         0.12960
      13 -> 22        -0.14919

 Excited State  12:      Singlet-A      7.4029 eV  167.48 nm  f=0.0016  <S**2>=0.000
       9 -> 14         0.15248
      10 -> 14        -0.16144
      11 -> 15        -0.15919
      12 -> 17         0.15650
      12 -> 19         0.32551
      12 -> 20         0.11248
      13 -> 17         0.14564
      13 -> 18        -0.12832
      13 -> 19         0.33766
      13 -> 20         0.26374
      13 -> 24        -0.10761

 Excited State  13:      Singlet-A      7.5146 eV  164.99 nm  f=0.0008  <S**2>=0.000
       9 -> 14        -0.27186
       9 -> 15         0.16832
      10 -> 14         0.44919
      10 -> 15         0.15230
      11 -> 14        -0.12551
      11 -> 15         0.23455
      12 -> 19         0.14030
      13 -> 17         0.10923
      13 -> 22         0.10967

 Excited State  14:      Singlet-A      7.6579 eV  161.90 nm  f=0.0027  <S**2>=0.000
      12 -> 18         0.16990
      12 -> 21        -0.18007
      12 -> 22         0.17291
      12 -> 23        -0.11471
      13 -> 17        -0.10980
      13 -> 18        -0.31719
      13 -> 21        -0.11037
      13 -> 22         0.38150
      13 -> 23        -0.21690

 Excited State  15:      Singlet-A      7.7547 eV  159.88 nm  f=0.0030  <S**2>=0.000
       9 -> 14         0.21265
      10 -> 14         0.20532
      10 -> 15         0.15066
      11 -> 14        -0.10088
      11 -> 15        -0.12544
      12 -> 18         0.34681
      13 -> 21         0.27943
      13 -> 22        -0.28209
      13 -> 24         0.14526

 The electronic state is 1-A.
 Alpha  occ. eigenvalues --   -1.55818  -1.22720  -1.11235  -0.82179  -0.81399
 Alpha  occ. eigenvalues --   -0.68446  -0.59615  -0.56995  -0.51307  -0.50113
 Alpha  occ. eigenvalues --   -0.49211  -0.39489  -0.34947
 Alpha virt. eigenvalues --    0.03114   0.06559   0.09370   0.13729   0.14928
 Alpha virt. eigenvalues --    0.15775   0.17887   0.18496   0.19408   0.20744
 Alpha virt. eigenvalues --    0.22513

 Mulliken charges:
               1
     1  C   -0.214005
     2  C   -0.085046
     3  O   -0.120398
     4  C   -0.078003
     5  C   -0.195197
     6  H    0.149665
     7  H    0.192722
     8  H    0.192100
     9  H    0.158161
 Sum of Mulliken charges =   0.00000

 Dipole moment (field-independent basis, Debye):
    X=              0.0330    Y=              0.3338    Z=              0.0796  Tot=              0.3448
 N-N= 1.035341827832D+02 E-N=-1.712038900003D+02  KE=-1.655846816318D+01
 Orbital energies and kinetic energies (alpha):
                                 1                 2
   1         O                -1.558177         -1.313151
   2         O                -1.227202         -1.041056
   3         O                -1.112349         -0.971511
   4         O                -0.821794         -0.708521
   5         O                -0.813994         -0.724448
   6         O                -0.684464         -0.603837
   7         O                -0.596155         -0.485836

 Normal termination of Gaussian 09 at Tue Dec 15 16:18:50 2015.
