 Gaussian 09, Revision D.01,
 Gaussian 09:  ES64L-G09RevD.01 24-Apr-2013

 ------------------------------------------------------------
 #P AM1(Input,print) CIS(Singlets,NStates=15) pop(full) force
 ------------------------------------------------------------

 -----------------
 AM1-Reparam Input
 -----------------
 Symbolic Z-matrix:
 Charge =  0 Multiplicity = 1

                         Standard orientation:
 ---------------------------------------------------------------------
 Center     Atomic      Atomic             Coordinates (Angstroms)
 Number     Number       Type             X           Y           Z
 ---------------------------------------------------------------------
      1          6           0        0.666294    1.023339    0.017408
      2          6           0        1.136860   -0.249874   -0.014082
      3          8           0        0.089896   -1.178830   -0.004540
      4          6           0       -1.096074   -0.398709    0.011096
      5          6           0       -0.792337    0.873631   -0.015119
      6          1           0       -1.484298    1.786474   -0.001429
      7          1           0       -2.044421   -0.954456    0.016592
      8          1           0        2.101279   -0.747939    0.035972
      9          1           0        1.219823    1.856243   -0.010626
 ---------------------------------------------------------------------

 SCF Done:  E(RAM1) =   1.43888844344     A.U. after   13 cycles

 Excitation energies and oscillator strengths:

 Excited State   1:      Singlet-A      5.6944 eV  217.73 nm  f=0.3103  <S**2>=0.000
      13 -> 14         0.69209
 This state for optimization and/or second-order correction.
 Total Energy, E(CIS) =   1.64815235611
 Copying the excited state density for this state as the 1-particle RhoCI density.

 Excited State   2:      Singlet-A      5.9435 eV  208.60 nm  f=0.0010  <S**2>=0.000
      13 -> 15         0.66888
      13 -> 18        -0.12732

 Excited State   3:      Singlet-A      6.1179 eV  202.66 nm  f=0.0005  <S**2>=0.000
      11 -> 15         0.10380
      13 -> 16         0.66534
      13 -> 20         0.10287
      13 -> 21         0.11343

 Excited State   4:      Singlet-A      7.2324 eV  171.43 nm  f=0.0005  <S**2>=0.000
      11 -> 14        -0.12495
      12 -> 14         0.67600

 Excited State   5:      Singlet-A      7.3291 eV  169.17 nm  f=0.0040  <S**2>=0.000
      13 -> 15         0.12734
      13 -> 18         0.64387
      13 -> 22         0.18021

 Excited State   6:      Singlet-A      7.7520 eV  159.94 nm  f=0.0201  <S**2>=0.000
      11 -> 14         0.22652
      13 -> 17         0.50683
      13 -> 18         0.10743
      13 -> 19         0.23399
      13 -> 20        -0.13641
      13 -> 22        -0.27037

 Excited State   7:      Singlet-A      7.7750 eV  159.47 nm  f=0.0130  <S**2>=0.000
      11 -> 14         0.18996
      13 -> 17         0.36972
      13 -> 19        -0.32879
      13 -> 20         0.17976
      13 -> 22         0.38390

 Excited State   8:      Singlet-A      8.3227 eV  148.97 nm  f=0.0131  <S**2>=0.000
      11 -> 15        -0.10791
      13 -> 18        -0.15330
      13 -> 19         0.46661
      13 -> 20         0.40631
      13 -> 21         0.24167

 Excited State   9:      Singlet-A      8.4820 eV  146.17 nm  f=0.0014  <S**2>=0.000
      10 -> 14         0.67161
      13 -> 20         0.11888
      13 -> 22        -0.11202

 Excited State  10:      Singlet-A      8.6410 eV  143.48 nm  f=0.0011  <S**2>=0.000
      10 -> 14         0.15135
      13 -> 19         0.30292
      13 -> 20        -0.31582
      13 -> 21        -0.25170
      13 -> 22         0.44978

 Excited State  11:      Singlet-A      8.8444 eV  140.18 nm  f=0.0278  <S**2>=0.000
      10 -> 14         0.10718
      11 -> 16        -0.18959
      13 -> 20        -0.32192
      13 -> 21         0.54058
      13 -> 23         0.20280

 Excited State  12:      Singlet-A      8.9525 eV  138.49 nm  f=0.1853  <S**2>=0.000
      11 -> 14         0.59149
      12 -> 14         0.10798
      12 -> 18        -0.12209
      13 -> 17        -0.29284

 Excited State  13:      Singlet-A      9.2012 eV  134.75 nm  f=0.0008  <S**2>=0.000
      11 -> 15         0.62122
      12 -> 15         0.15311
      13 -> 16        -0.13455
      13 -> 22         0.10246

 Excited State  14:      Singlet-A      9.4483 eV  131.22 nm  f=0.1479  <S**2>=0.000
       8 -> 15        -0.21319
      10 -> 18         0.11836
      11 -> 17        -0.12286
      12 -> 16         0.56160
      12 -> 18         0.14090
      12 -> 19        -0.10903
      12 -> 22         0.10360

 Excited State  15:      Singlet-A      9.5387 eV  129.98 nm  f=0.0036  <S**2>=0.000
      11 -> 16         0.58417
      13 -> 15        -0.11315
      13 -> 20        -0.14063
      13 -> 21         0.19768
      13 -> 23        -0.18856

 The electronic state is 1-A.
 Alpha  occ. eigenvalues --   -1.86976  -1.18086  -0.95093  -0.78550  -0.76602
 Alpha  occ. eigenvalues --   -0.67198  -0.60452  -0.49159  -0.47973  -0.40394
 Alpha  occ. eigenvalues --   -0.36918  -0.36373  -0.22922
 Alpha virt. eigenvalues --    0.17909   0.21529   0.22359   0.27768   0.28980
 Alpha virt. eigenvalues --    0.32018   0.33910   0.34968   0.35606   0.39078
 Alpha virt. eigenvalues --    0.43466

 Mulliken charges:
               1
     1  C   -0.102251
     2  C   -1.498023
     3  O    2.746250
     4  C   -1.492888
     5  C   -0.054023
     6  H    0.053447
     7  H    0.148557
     8  H    0.132937
     9  H    0.065993
 Sum of Mulliken charges =   0.00000

 Dipole moment (field-independent basis, Debye):
    X=              0.5795    Y=            -10.2931    Z=              0.0199  Tot=             10.3095
 N-N= 1.029457895068D+02 E-N=-1.688994767232D+02  KE=-1.578039886525D+01
 Orbital energies and kinetic energies (alpha):
                                 1                 2
   1         O                -1.869756         -1.342908
   2         O                -1.180863         -1.073125
   3         O                -0.950928         -0.888657
   4         O                -0.785505         -0.654263
   5         O                -0.766018         -0.672423
   6         O                -0.671979         -0.623472
   7         O                -0.604524         -0.537592

 Normal termination of Gaussian 09 at Tue Dec 15 17:07:55 2015.
