 Gaussian 09, Revision D.01,
 Gaussian 09:  ES64L-G09RevD.01 24-Apr-2013

 ------------------------------------------------------------
 #P AM1(Input,print) CIS(Singlets,NStates=15) pop(full) force
 ------------------------------------------------------------

 -----------------
 AM1-Reparam Input
 -----------------
 Symbolic Z-matrix:
 Charge =  0 Multiplicity = 1

                         Standard orientation:
 ---------------------------------------------------------------------
 Center     Atomic      Atomic             Coordinates (Angstroms)
 Number     Number       Type             X           Y           Z
 ---------------------------------------------------------------------
      1          6           0        0.285540    1.128025   -0.022795
      2          6           0        1.182488    0.050844   -0.009044
      3          8           0        0.402109   -1.082291    0.000520
      4          6           0       -0.907967   -0.694371    0.000924
      5          6           0       -0.980951    0.676219    0.016464
      6          1           0       -1.943050    1.161635   -0.007027
      7          1           0       -1.636924   -1.524341   -0.014432
      8          1           0        2.254782   -0.096142    0.061871
      9          1           0        0.633659    2.152871    0.042130
 ---------------------------------------------------------------------

 SCF Done:  E(RAM1) =   1.71099284002     A.U. after   14 cycles

 Excitation energies and oscillator strengths:

 Excited State   1:      Singlet-A      5.8750 eV  211.04 nm  f=0.3062  <S**2>=0.000
      13 -> 14         0.68418
 This state for optimization and/or second-order correction.
 Total Energy, E(CIS) =   1.92689379080
 Copying the excited state density for this state as the 1-particle RhoCI density.

 Excited State   2:      Singlet-A      7.4140 eV  167.23 nm  f=0.0055  <S**2>=0.000
      12 -> 14         0.55152
      13 -> 15         0.39760
      13 -> 16         0.10189
      13 -> 17        -0.11371

 Excited State   3:      Singlet-A      7.4819 eV  165.71 nm  f=0.0017  <S**2>=0.000
      12 -> 14        -0.42679
      13 -> 15         0.51621
      13 -> 17        -0.11619

 Excited State   4:      Singlet-A      7.8195 eV  158.56 nm  f=0.0039  <S**2>=0.000
      10 -> 16        -0.11084
      11 -> 14         0.27982
      13 -> 15        -0.14795
      13 -> 16         0.58872
      13 -> 19        -0.13766

 Excited State   5:      Singlet-A      7.8869 eV  157.20 nm  f=0.0022  <S**2>=0.000
      11 -> 14         0.63583
      13 -> 16        -0.27508

 Excited State   6:      Singlet-A      9.3653 eV  132.39 nm  f=0.0136  <S**2>=0.000
      10 -> 15         0.12802
      13 -> 15         0.11812
      13 -> 17         0.56588
      13 -> 18        -0.31633
      13 -> 22        -0.15930

 Excited State   7:      Singlet-A      9.5327 eV  130.06 nm  f=0.0852  <S**2>=0.000
      10 -> 14         0.67933

 Excited State   8:      Singlet-A      9.5724 eV  129.52 nm  f=0.0070  <S**2>=0.000
      10 -> 16        -0.14099
      13 -> 17         0.33866
      13 -> 18         0.53389
      13 -> 22         0.23797

 Excited State   9:      Singlet-A      9.9351 eV  124.79 nm  f=0.1339  <S**2>=0.000
       9 -> 15         0.11017
      11 -> 15         0.18543
      11 -> 16         0.22793
      11 -> 17        -0.21428
      11 -> 18        -0.16340
      12 -> 15         0.38289
      12 -> 16         0.10437
      12 -> 17        -0.23542
      12 -> 18         0.18615
      13 -> 14         0.14644

 Excited State  10:      Singlet-A     10.1208 eV  122.50 nm  f=0.0003  <S**2>=0.000
      10 -> 16        -0.10423
      13 -> 18        -0.12993
      13 -> 19         0.65885

 Excited State  11:      Singlet-A     10.4642 eV  118.48 nm  f=0.0619  <S**2>=0.000
      11 -> 15        -0.18002
      11 -> 17         0.10289
      12 -> 16         0.60760
      12 -> 17        -0.12091
      12 -> 19        -0.18939

 Excited State  12:      Singlet-A     10.4926 eV  118.16 nm  f=0.1721  <S**2>=0.000
       8 -> 15        -0.12108
      11 -> 15         0.58793
      12 -> 15        -0.25917
      12 -> 16         0.16176

 Excited State  13:      Singlet-A     10.8786 eV  113.97 nm  f=0.0543  <S**2>=0.000
       8 -> 16         0.13376
       9 -> 15        -0.13633
      10 -> 14         0.11586
      11 -> 16         0.24583
      11 -> 19        -0.16667
      12 -> 15        -0.30969
      12 -> 16        -0.13483
      12 -> 17        -0.18093
      12 -> 18         0.31608
      12 -> 19        -0.13615
      12 -> 20         0.17972

 Excited State  14:      Singlet-A     11.0408 eV  112.30 nm  f=0.0210  <S**2>=0.000
      10 -> 15         0.41068
      10 -> 16         0.10687
      13 -> 18         0.21150
      13 -> 19         0.11384
      13 -> 20         0.29404
      13 -> 22        -0.34795

 Excited State  15:      Singlet-A     11.1051 eV  111.65 nm  f=0.0800  <S**2>=0.000
      10 -> 15        -0.13168
      10 -> 16        -0.25374
      13 -> 20         0.59822
      13 -> 22         0.14237

 The electronic state is 1-A.
 Alpha  occ. eigenvalues --   -1.90419  -1.18823  -0.91382  -0.81809  -0.78463
 Alpha  occ. eigenvalues --   -0.69470  -0.67589  -0.57082  -0.55809  -0.46429
 Alpha  occ. eigenvalues --   -0.43775  -0.42491  -0.32182
 Alpha virt. eigenvalues --    0.11692   0.18352   0.19756   0.26176   0.28790
 Alpha virt. eigenvalues --    0.29998   0.32507   0.33610   0.35996   0.42126
 Alpha virt. eigenvalues --    0.46120

 Mulliken charges:
               1
     1  C   -0.157288
     2  C   -2.042558
     3  O    3.306924
     4  C   -2.038847
     5  C   -0.150281
     6  H    0.211663
     7  H    0.331179
     8  H    0.327456
     9  H    0.211751
 Sum of Mulliken charges =   0.00000

 Dipole moment (field-independent basis, Debye):
    X=              3.2912    Y=            -10.1069    Z=              0.2162  Tot=             10.6315
 N-N= 1.037760006297D+02 E-N=-1.691188028742D+02  KE=-1.549674080640D+01
 Orbital energies and kinetic energies (alpha):
                                 1                 2
   1         O                -1.904190         -1.363614
   2         O                -1.188234         -1.062758
   3         O                -0.913822         -0.883238
   4         O                -0.818092         -0.569584
   5         O                -0.784628         -0.680009
   6         O                -0.694696         -0.609691
   7         O                -0.675887         -0.543309

 Normal termination of Gaussian 09 at Tue Dec 15 17:09:39 2015.
