 Gaussian 09, Revision D.01,
 Gaussian 09:  ES64L-G09RevD.01 24-Apr-2013

 ------------------------------------------------------------
 #P AM1(Input,print) CIS(Singlets,NStates=15) pop(full) force
 ------------------------------------------------------------

 -----------------
 AM1-Reparam Input
 -----------------
 Symbolic Z-matrix:
 Charge =  0 Multiplicity = 1

                         Standard orientation:
 ---------------------------------------------------------------------
 Center     Atomic      Atomic             Coordinates (Angstroms)
 Number     Number       Type             X           Y           Z
 ---------------------------------------------------------------------
      1          6           0       -0.619851    1.030034    0.007988
      2          6           0       -1.102430   -0.219413   -0.030448
      3          8           0       -0.134311   -1.166405    0.029321
      4          6           0        1.027502   -0.459811   -0.018884
      5          6           0        0.840039    0.864140    0.005937
      6          1           0        1.535831    1.716008   -0.021504
      7          1           0        1.951865   -1.049190   -0.017593
      8          1           0       -2.137643   -0.600521   -0.033458
      9          1           0       -1.147130    1.975245    0.050430
 ---------------------------------------------------------------------

 SCF Done:  E(RAM1) =   1.74333723662     A.U. after   13 cycles

 Excitation energies and oscillator strengths:

 Excited State   1:      Singlet-A      5.2745 eV  235.06 nm  f=0.3782  <S**2>=0.000
      13 -> 14         0.69696
 This state for optimization and/or second-order correction.
 Total Energy, E(CIS) =   1.93717121481
 Copying the excited state density for this state as the 1-particle RhoCI density.

 Excited State   2:      Singlet-A      6.7619 eV  183.36 nm  f=0.0003  <S**2>=0.000
      12 -> 14        -0.22674
      13 -> 15         0.62932
      13 -> 17        -0.11131
      13 -> 19        -0.10628

 Excited State   3:      Singlet-A      6.7906 eV  182.58 nm  f=0.0002  <S**2>=0.000
      12 -> 14         0.66548
      13 -> 15         0.21650

 Excited State   4:      Singlet-A      6.9436 eV  178.56 nm  f=0.0023  <S**2>=0.000
      13 -> 15         0.10360
      13 -> 16         0.67172
      13 -> 18        -0.11246

 Excited State   5:      Singlet-A      8.0871 eV  153.31 nm  f=0.0075  <S**2>=0.000
      11 -> 14         0.69793

 Excited State   6:      Singlet-A      8.4673 eV  146.43 nm  f=0.0000  <S**2>=0.000
      13 -> 15        -0.13751
      13 -> 17        -0.43803
      13 -> 18         0.46549
      13 -> 22         0.22585

 Excited State   7:      Singlet-A      9.0021 eV  137.73 nm  f=0.0075  <S**2>=0.000
      13 -> 16         0.11344
      13 -> 17         0.50103
      13 -> 18         0.46314

 Excited State   8:      Singlet-A      9.2994 eV  133.32 nm  f=0.0780  <S**2>=0.000
      10 -> 14         0.66282
      12 -> 16        -0.13105
      13 -> 21        -0.10709

 Excited State   9:      Singlet-A      9.5407 eV  129.95 nm  f=0.0003  <S**2>=0.000
      13 -> 19         0.68458

 Excited State  10:      Singlet-A      9.5867 eV  129.33 nm  f=0.1083  <S**2>=0.000
       8 -> 16         0.12388
      11 -> 17         0.12880
      11 -> 18         0.10971
      12 -> 15         0.52643
      12 -> 16        -0.18397
      12 -> 17        -0.19806
      12 -> 18         0.23169

 Excited State  11:      Singlet-A     10.2482 eV  120.98 nm  f=0.0509  <S**2>=0.000
       8 -> 15         0.10582
      10 -> 14         0.16126
      11 -> 15         0.15060
      12 -> 15         0.23842
      12 -> 16         0.58940

 Excited State  12:      Singlet-A     10.4092 eV  119.11 nm  f=0.1052  <S**2>=0.000
       8 -> 14         0.10503
      13 -> 20         0.65575
      13 -> 22        -0.11128

 Excited State  13:      Singlet-A     10.4867 eV  118.23 nm  f=0.1663  <S**2>=0.000
      11 -> 15         0.12764
      11 -> 16         0.26959
      11 -> 17        -0.18898
      11 -> 18        -0.15972
      12 -> 15         0.29545
      12 -> 16        -0.16671
      12 -> 17         0.23806
      12 -> 18        -0.27627
      12 -> 22        -0.11521
      13 -> 20        -0.13607
      13 -> 22        -0.12829

 Excited State  14:      Singlet-A     10.5245 eV  117.81 nm  f=0.0108  <S**2>=0.000
      13 -> 17         0.12381
      13 -> 18        -0.17753
      13 -> 22         0.63968

 Excited State  15:      Singlet-A     10.8977 eV  113.77 nm  f=0.0834  <S**2>=0.000
       8 -> 15        -0.19226
       9 -> 16        -0.16595
      10 -> 14        -0.13405
      11 -> 15         0.40622
      11 -> 19        -0.21472
      12 -> 17        -0.21169
      13 -> 21        -0.32645

 The electronic state is 1-A.
 Alpha  occ. eigenvalues --   -1.90684  -1.16809  -0.91599  -0.81339  -0.77844
 Alpha  occ. eigenvalues --   -0.69682  -0.67370  -0.54885  -0.54775  -0.46420
 Alpha  occ. eigenvalues --   -0.44716  -0.40493  -0.28752
 Alpha virt. eigenvalues --    0.11173   0.18548   0.19067   0.28334   0.28731
 Alpha virt. eigenvalues --    0.31132   0.33239   0.34436   0.36306   0.43488
 Alpha virt. eigenvalues --    0.46456

 Mulliken charges:
               1
     1  C   -0.180987
     2  C   -2.001254
     3  O    3.281497
     4  C   -2.001630
     5  C   -0.167393
     6  H    0.201414
     7  H    0.334089
     8  H    0.332743
     9  H    0.201521
 Sum of Mulliken charges =   0.00000

 Dipole moment (field-independent basis, Debye):
    X=             -1.2875    Y=            -11.0569    Z=              0.7569  Tot=             11.1573
 N-N= 1.037407204027D+02 E-N=-1.692149608702D+02  KE=-1.547243844651D+01
 Orbital energies and kinetic energies (alpha):
                                 1                 2
   1         O                -1.906838         -1.370956
   2         O                -1.168094         -1.053598
   3         O                -0.915989         -0.885362
   4         O                -0.813393         -0.563488
   5         O                -0.778438         -0.692802
   6         O                -0.696822         -0.582420
   7         O                -0.673700         -0.538992

 Normal termination of Gaussian 09 at Tue Dec 15 17:09:31 2015.
