 Gaussian 09, Revision D.01,
 Gaussian 09:  ES64L-G09RevD.01 24-Apr-2013

 ------------------------------------------------------------
 #P AM1(Input,print) CIS(Singlets,NStates=15) pop(full) force
 ------------------------------------------------------------

 -----------------
 AM1-Reparam Input
 -----------------
 Symbolic Z-matrix:
 Charge =  0 Multiplicity = 1

                         Standard orientation:
 ---------------------------------------------------------------------
 Center     Atomic      Atomic             Coordinates (Angstroms)
 Number     Number       Type             X           Y           Z
 ---------------------------------------------------------------------
      1          6           0       -0.197900    1.156390    0.043568
      2          6           0       -1.108520    0.162563   -0.029677
      3          8           0       -0.565897   -1.014703   -0.009038
      4          6           0        0.806026   -0.773399    0.040957
      5          6           0        1.094403    0.493035   -0.035791
      6          1           0        2.056486    1.014981   -0.046533
      7          1           0        1.469283   -1.654014   -0.007324
      8          1           0       -2.224715    0.233390    0.020765
      9          1           0       -0.337938    2.291729   -0.008945
 ---------------------------------------------------------------------

 SCF Done:  E(RAM1) =   1.75795355279     A.U. after   13 cycles

 Excitation energies and oscillator strengths:

 Excited State   1:      Singlet-A      5.2702 eV  235.25 nm  f=0.3633  <S**2>=0.000
      13 -> 14         0.69624
 This state for optimization and/or second-order correction.
 Total Energy, E(CIS) =   1.95163061625
 Copying the excited state density for this state as the 1-particle RhoCI density.

 Excited State   2:      Singlet-A      6.5164 eV  190.27 nm  f=0.0012  <S**2>=0.000
      13 -> 15         0.67870
      13 -> 18         0.10728

 Excited State   3:      Singlet-A      6.7320 eV  184.17 nm  f=0.0002  <S**2>=0.000
      12 -> 14         0.70227

 Excited State   4:      Singlet-A      7.0293 eV  176.38 nm  f=0.0012  <S**2>=0.000
      10 -> 16         0.10153
      13 -> 16         0.67333
      13 -> 17        -0.10809

 Excited State   5:      Singlet-A      8.0289 eV  154.42 nm  f=0.0100  <S**2>=0.000
      11 -> 14         0.69505

 Excited State   6:      Singlet-A      8.4297 eV  147.08 nm  f=0.0001  <S**2>=0.000
      13 -> 16         0.10694
      13 -> 17         0.13942
      13 -> 18         0.61999
      13 -> 19        -0.11795
      13 -> 22        -0.21355

 Excited State   7:      Singlet-A      8.7867 eV  141.10 nm  f=0.0067  <S**2>=0.000
      13 -> 15         0.10563
      13 -> 17         0.66284
      13 -> 18        -0.12617
      13 -> 19         0.10239

 Excited State   8:      Singlet-A      9.3444 eV  132.68 nm  f=0.0809  <S**2>=0.000
       8 -> 16         0.11710
      10 -> 14         0.53979
      11 -> 17        -0.10227
      12 -> 15        -0.15828
      12 -> 16         0.27577
      12 -> 18        -0.17372

 Excited State   9:      Singlet-A      9.4783 eV  130.81 nm  f=0.0590  <S**2>=0.000
      10 -> 14         0.25773
      11 -> 17         0.10011
      12 -> 15         0.47088
      12 -> 16        -0.14444
      12 -> 18         0.19137
      13 -> 19        -0.29220

 Excited State  10:      Singlet-A      9.4985 eV  130.53 nm  f=0.0131  <S**2>=0.000
      10 -> 14         0.20569
      12 -> 15         0.21937
      13 -> 18         0.16628
      13 -> 19         0.58719

 Excited State  11:      Singlet-A     10.0247 eV  123.68 nm  f=0.0400  <S**2>=0.000
      10 -> 14        -0.21871
      11 -> 15         0.24193
      11 -> 17        -0.13971
      12 -> 15         0.36586
      12 -> 16         0.33968
      12 -> 17        -0.16147
      12 -> 18        -0.14942
      13 -> 20        -0.16786

 Excited State  12:      Singlet-A     10.1805 eV  121.79 nm  f=0.0886  <S**2>=0.000
      12 -> 16         0.23295
      13 -> 18        -0.13266
      13 -> 19         0.10329
      13 -> 20         0.55264
      13 -> 22        -0.27432

 Excited State  13:      Singlet-A     10.3342 eV  119.97 nm  f=0.1824  <S**2>=0.000
       8 -> 16         0.10685
      11 -> 15        -0.19547
      11 -> 16        -0.19713
      11 -> 17         0.21996
      12 -> 16         0.39851
      12 -> 17         0.13851
      12 -> 18         0.30988
      13 -> 20        -0.12946

 Excited State  14:      Singlet-A     10.6574 eV  116.34 nm  f=0.0464  <S**2>=0.000
      10 -> 15        -0.18905
      13 -> 18         0.15240
      13 -> 20         0.30666
      13 -> 22         0.56561

 Excited State  15:      Singlet-A     10.7816 eV  115.00 nm  f=0.0424  <S**2>=0.000
       8 -> 15         0.11527
       9 -> 15        -0.19948
      10 -> 14         0.10277
      10 -> 15         0.27429
      11 -> 15         0.35253
      11 -> 16        -0.16444
      11 -> 19        -0.21194
      12 -> 15        -0.10847
      12 -> 17        -0.15519
      12 -> 18         0.25451

 The electronic state is 1-A.
 Alpha  occ. eigenvalues --   -1.91594  -1.17700  -0.92044  -0.81402  -0.77568
 Alpha  occ. eigenvalues --   -0.69437  -0.68282  -0.55238  -0.54009  -0.46876
 Alpha  occ. eigenvalues --   -0.44236  -0.40086  -0.28735
 Alpha virt. eigenvalues --    0.11390   0.17323   0.19757   0.27750   0.28219
 Alpha virt. eigenvalues --    0.30903   0.33077   0.35449   0.36628   0.44317
 Alpha virt. eigenvalues --    0.47634

 Mulliken charges:
               1
     1  C   -0.253327
     2  C   -2.028025
     3  O    3.283094
     4  C   -1.989492
     5  C   -0.101458
     6  H    0.195404
     7  H    0.332704
     8  H    0.352277
     9  H    0.208824
 Sum of Mulliken charges =   0.00000

 Dipole moment (field-independent basis, Debye):
    X=             -5.3021    Y=             -9.4585    Z=             -0.3012  Tot=             10.8474
 N-N= 1.040671917309D+02 E-N=-1.697882489287D+02  KE=-1.548608245143D+01
 Orbital energies and kinetic energies (alpha):
                                 1                 2
   1         O                -1.915943         -1.389562
   2         O                -1.177002         -1.056588
   3         O                -0.920445         -0.887869
   4         O                -0.814018         -0.555249
   5         O                -0.775683         -0.697148
   6         O                -0.694366         -0.568223
   7         O                -0.682815         -0.542787

 Normal termination of Gaussian 09 at Tue Dec 15 17:09:44 2015.
