 Gaussian 09, Revision D.01,
 Gaussian 09:  ES64L-G09RevD.01 24-Apr-2013

 ------------------------------------------------------------
 #P AM1(Input,print) CIS(Singlets,NStates=15) pop(full) force
 ------------------------------------------------------------

 -----------------
 AM1-Reparam Input
 -----------------
 Symbolic Z-matrix:
 Charge =  0 Multiplicity = 1

                         Standard orientation:
 ---------------------------------------------------------------------
 Center     Atomic      Atomic             Coordinates (Angstroms)
 Number     Number       Type             X           Y           Z
 ---------------------------------------------------------------------
      1          6           0       -0.771177    0.857452   -0.007565
      2          6           0       -1.028867   -0.432706    0.000097
      3          8           0        0.101544   -1.122845   -0.009403
      4          6           0        1.127116   -0.225692    0.001740
      5          6           0        0.584698    0.984843    0.015259
      6          1           0        1.141704    1.894237   -0.041266
      7          1           0        2.137814   -0.626432    0.017541
      8          1           0       -1.978290   -1.078726    0.041361
      9          1           0       -1.584198    1.690297    0.000396
 ---------------------------------------------------------------------

 SCF Done:  E(RAM1) =   2.86914582734     A.U. after   13 cycles

 Excitation energies and oscillator strengths:

 Excited State   1:      Singlet-A      5.4983 eV  225.49 nm  f=0.3093  <S**2>=0.000
      11 -> 17        -0.11081
      13 -> 14         0.69105
 This state for optimization and/or second-order correction.
 Total Energy, E(CIS) =   3.07120644789
 Copying the excited state density for this state as the 1-particle RhoCI density.

 Excited State   2:      Singlet-A      6.2301 eV  199.01 nm  f=0.0017  <S**2>=0.000
      10 -> 15         0.13569
      13 -> 15         0.66365
      13 -> 17        -0.14458

 Excited State   3:      Singlet-A      6.7335 eV  184.13 nm  f=0.0031  <S**2>=0.000
      10 -> 16        -0.12559
      13 -> 16         0.64129
      13 -> 17        -0.18097
      13 -> 19         0.14473

 Excited State   4:      Singlet-A      6.9568 eV  178.22 nm  f=0.0001  <S**2>=0.000
       9 -> 14        -0.12641
      12 -> 14         0.68797

 Excited State   5:      Singlet-A      7.6000 eV  163.14 nm  f=0.0128  <S**2>=0.000
      11 -> 14         0.61424
      13 -> 17         0.29573

 Excited State   6:      Singlet-A      7.7928 eV  159.10 nm  f=0.0066  <S**2>=0.000
      11 -> 14        -0.33019
      13 -> 15         0.12607
      13 -> 17         0.54664
      13 -> 18        -0.19001

 Excited State   7:      Singlet-A      7.9799 eV  155.37 nm  f=0.0001  <S**2>=0.000
      13 -> 16         0.11624
      13 -> 17         0.20924
      13 -> 18         0.48179
      13 -> 20         0.18670
      13 -> 21        -0.39473

 Excited State   8:      Singlet-A      8.6135 eV  143.94 nm  f=0.0010  <S**2>=0.000
      13 -> 16        -0.13589
      13 -> 19         0.67101

 Excited State   9:      Singlet-A      8.7971 eV  140.94 nm  f=0.0435  <S**2>=0.000
      10 -> 14         0.61704
      12 -> 15         0.26900

 Excited State  10:      Singlet-A      9.0663 eV  136.75 nm  f=0.0224  <S**2>=0.000
      13 -> 18         0.44750
      13 -> 20        -0.28111
      13 -> 21         0.42750

 Excited State  11:      Singlet-A      9.0730 eV  136.65 nm  f=0.0692  <S**2>=0.000
       8 -> 15        -0.12066
      10 -> 14        -0.23862
      11 -> 17         0.16570
      12 -> 15         0.51880
      12 -> 16        -0.16989
      12 -> 18         0.18839

 Excited State  12:      Singlet-A      9.3277 eV  132.92 nm  f=0.0911  <S**2>=0.000
       9 -> 15         0.18585
      10 -> 14        -0.11681
      11 -> 15         0.37550
      11 -> 16         0.13532
      11 -> 17        -0.33485
      12 -> 15         0.19315
      12 -> 16         0.10340
      12 -> 17        -0.11239
      12 -> 18        -0.20081
      12 -> 21         0.10536

 Excited State  13:      Singlet-A      9.5387 eV  129.98 nm  f=0.0755  <S**2>=0.000
      10 -> 15         0.16893
      13 -> 20         0.58594
      13 -> 21         0.32092

 Excited State  14:      Singlet-A      9.6055 eV  129.08 nm  f=0.1353  <S**2>=0.000
       9 -> 16         0.11694
      11 -> 16        -0.30808
      11 -> 17         0.10977
      12 -> 16         0.54364
      12 -> 17        -0.12524
      12 -> 19         0.12941

 Excited State  15:      Singlet-A      9.7358 eV  127.35 nm  f=0.0035  <S**2>=0.000
       7 -> 15        -0.12528
      10 -> 15         0.61907
      13 -> 15        -0.15698
      13 -> 20        -0.12709
      13 -> 21        -0.14635

 The electronic state is 1-A.
 Alpha  occ. eigenvalues --   -1.74032  -1.14218  -0.92828  -0.79411  -0.74827
 Alpha  occ. eigenvalues --   -0.65755  -0.65367  -0.53888  -0.49328  -0.43128
 Alpha  occ. eigenvalues --   -0.41830  -0.39634  -0.28813
 Alpha virt. eigenvalues --    0.12792   0.16340   0.19271   0.24057   0.27051
 Alpha virt. eigenvalues --    0.28258   0.29954   0.31679   0.38557   0.47464
 Alpha virt. eigenvalues --    0.51612

 Mulliken charges:
               1
     1  C   -0.151916
     2  C   -1.951807
     3  O    3.214576
     4  C   -1.951882
     5  C   -0.131303
     6  H    0.180551
     7  H    0.302509
     8  H    0.307096
     9  H    0.182176
 Sum of Mulliken charges =   0.00000

 Dipole moment (field-independent basis, Debye):
    X=              0.4617    Y=            -10.2258    Z=             -0.0651  Tot=             10.2364
 N-N= 1.048306666466D+02 E-N=-1.706303294212D+02  KE=-1.483153295318D+01
 Orbital energies and kinetic energies (alpha):
                                 1                 2
   1         O                -1.740323         -1.253031
   2         O                -1.142179         -0.996158
   3         O                -0.928278         -0.850569
   4         O                -0.794110         -0.589926
   5         O                -0.748273         -0.670152
   6         O                -0.657551         -0.571555
   7         O                -0.653669         -0.539796

 Normal termination of Gaussian 09 at Tue Dec 15 17:05:54 2015.
