 Gaussian 09, Revision D.01,
 Gaussian 09:  ES64L-G09RevD.01 24-Apr-2013

 -------------------------------------------------------
 #P B3LYP/3-21G CIS(Singlets,NStates=15) pop(full) force
 -------------------------------------------------------

 --------
 FuranDFT
 --------
 Symbolic Z-matrix:
 Charge =  0 Multiplicity = 1

                         Standard orientation:
 ---------------------------------------------------------------------
 Center     Atomic      Atomic             Coordinates (Angstroms)
 Number     Number       Type             X           Y           Z
 ---------------------------------------------------------------------
      1          6           0       -0.947164    0.716686   -0.010814
      2          6           0       -1.014519   -0.569908    0.008926
      3          8           0        0.305405   -1.133132   -0.007615
      4          6           0        1.159974   -0.111578   -0.002272
      5          6           0        0.462598    1.147134    0.014043
      6          1           0        0.936790    2.101913   -0.021668
      7          1           0        2.235390   -0.305277    0.012470
      8          1           0       -1.786927   -1.281373    0.020675
      9          1           0       -1.793824    1.455788   -0.009853
 ---------------------------------------------------------------------

 SCF Done:  E(RB3LYP) =  -228.736792102     A.U. after   14 cycles

 Excitation energies and oscillator strengths:

 Excited State   1:      Singlet-A      6.9749 eV  177.76 nm  f=0.1283  <S**2>=0.000
      17 -> 19         0.22063
      18 -> 19         0.56311
      18 -> 20        -0.32474
 This state for optimization and/or second-order correction.
 Total Energy, E(CIS) =  -228.480467632
 Copying the excited state density for this state as the 1-particle RhoCI density.

 Excited State   2:      Singlet-A      7.2906 eV  170.06 nm  f=0.0715  <S**2>=0.000
      17 -> 19         0.46451
      18 -> 19        -0.36845
      18 -> 20        -0.35890

 Excited State   3:      Singlet-A      8.0304 eV  154.39 nm  f=0.0015  <S**2>=0.000
      18 -> 21         0.70194

 Excited State   4:      Singlet-A      8.5144 eV  145.62 nm  f=0.0033  <S**2>=0.000
      16 -> 19         0.69723

 Excited State   5:      Singlet-A      8.8315 eV  140.39 nm  f=0.0113  <S**2>=0.000
      18 -> 22         0.67955

 Excited State   6:      Singlet-A      9.0150 eV  137.53 nm  f=0.2759  <S**2>=0.000
      15 -> 21        -0.10005
      17 -> 19         0.34123
      17 -> 20         0.38558
      18 -> 20         0.40192
      18 -> 22        -0.14127

 Excited State   7:      Singlet-A      9.3711 eV  132.30 nm  f=0.0007  <S**2>=0.000
      17 -> 21         0.69315

 Excited State   8:      Singlet-A      9.5542 eV  129.77 nm  f=0.0004  <S**2>=0.000
      15 -> 19         0.66416
      18 -> 23        -0.19859

 Excited State   9:      Singlet-A      9.8639 eV  125.70 nm  f=0.0011  <S**2>=0.000
      15 -> 19         0.18277
      16 -> 20         0.12214
      18 -> 23         0.61970
      18 -> 24        -0.19634

 Excited State  10:      Singlet-A     10.0085 eV  123.88 nm  f=0.3454  <S**2>=0.000
      15 -> 21         0.10156
      17 -> 19        -0.26159
      17 -> 20         0.54298
      18 -> 20        -0.23723

 Excited State  11:      Singlet-A     10.0364 eV  123.53 nm  f=0.0013  <S**2>=0.000
      17 -> 22         0.15289
      18 -> 23         0.22011
      18 -> 24         0.64164

 Excited State  12:      Singlet-A     10.2725 eV  120.70 nm  f=0.0028  <S**2>=0.000
      14 -> 19        -0.15483
      16 -> 20         0.46086
      17 -> 22        -0.45482
      18 -> 24         0.16543

 Excited State  13:      Singlet-A     10.3482 eV  119.81 nm  f=0.0056  <S**2>=0.000
      14 -> 19        -0.19040
      16 -> 20         0.43054
      17 -> 22         0.47440
      18 -> 25        -0.17122

 Excited State  14:      Singlet-A     10.3890 eV  119.34 nm  f=0.0051  <S**2>=0.000
      17 -> 22         0.16131
      18 -> 25         0.66082

 Excited State  15:      Singlet-A     10.7454 eV  115.38 nm  f=0.0013  <S**2>=0.000
      12 -> 19        -0.11507
      14 -> 19         0.63415
      16 -> 20         0.23615
      17 -> 23         0.10352

 The electronic state is 1-A.
 Alpha  occ. eigenvalues --  -19.11084 -10.18500 -10.16936 -10.13177 -10.12981
 Alpha  occ. eigenvalues --   -1.11532  -0.80475  -0.73980  -0.59919  -0.57020
 Alpha  occ. eigenvalues --   -0.53521  -0.45006  -0.44090  -0.42800  -0.38874
 Alpha  occ. eigenvalues --   -0.35506  -0.28116  -0.22762
 Alpha virt. eigenvalues --    0.01808   0.07760   0.11633   0.13897   0.17449
 Alpha virt. eigenvalues --    0.18477   0.20091   0.23624   0.33636   0.41839
 Alpha virt. eigenvalues --    0.46056   0.65800   0.69836   0.70840   0.75116

 Mulliken charges:
               1
     1  C   -0.241203
     2  C    0.055226
     3  O   -0.478832
     4  C    0.110942
     5  C   -0.261952
     6  H    0.186647
     7  H    0.217147
     8  H    0.221067
     9  H    0.190957
 Sum of Mulliken charges =   0.00000

 Dipole moment (field-independent basis, Debye):
    X=             -0.2124    Y=              0.6999    Z=             -0.0026  Tot=              0.7315
 Quadrupole moment (field-independent basis, Debye-Ang):
   XX=            -23.4722   YY=            -27.9756   ZZ=            -31.9416
   XY=              1.0226   XZ=             -0.0240   YZ=             -0.1249

 Normal termination of Gaussian 09 at Tue Dec 15 16:14:36 2015.
