 Gaussian 09, Revision D.01,
 Gaussian 09:  ES64L-G09RevD.01 24-Apr-2013

 ------------------------------------------------------------
 #P AM1(Input,print) CIS(Singlets,NStates=15) pop(full) force
 ------------------------------------------------------------

 -----------------
 AM1-Reparam Input
 -----------------
 Symbolic Z-matrix:
 Charge =  0 Multiplicity = 1

                         Standard orientation:
 ---------------------------------------------------------------------
 Center     Atomic      Atomic             Coordinates (Angstroms)
 Number     Number       Type             X           Y           Z
 ---------------------------------------------------------------------
      1          6           0        0.700864    0.934248    0.006277
      2          6           0        1.108697   -0.337469   -0.004001
      3          8           0       -0.050307   -1.160973    0.005780
      4          6           0       -1.054767   -0.310436   -0.002874
      5          6           0       -0.677206    0.937314   -0.016136
      6          1           0       -1.415149    1.774369    0.062262
      7          1           0       -2.004087   -0.779762   -0.004379
      8          1           0        2.035659   -0.859894    0.004256
      9          1           0        1.320507    1.811136   -0.007975
 ---------------------------------------------------------------------

 SCF Done:  E(RAM1) =  0.356523303681E-01 A.U. after   13 cycles

 Excitation energies and oscillator strengths:

 Excited State   1:      Singlet-A      4.5223 eV  274.16 nm  f=0.0944  <S**2>=0.000
      12 -> 15         0.17437
      13 -> 14         0.67560
 This state for optimization and/or second-order correction.
 Total Energy, E(CIS) =  0.201842972474
 Copying the excited state density for this state as the 1-particle RhoCI density.

 Excited State   2:      Singlet-A      5.0709 eV  244.50 nm  f=0.0004  <S**2>=0.000
      13 -> 16         0.68782

 Excited State   3:      Singlet-A      5.2983 eV  234.01 nm  f=0.0090  <S**2>=0.000
      12 -> 14        -0.41242
      13 -> 15         0.56979

 Excited State   4:      Singlet-A      6.1453 eV  201.76 nm  f=0.0027  <S**2>=0.000
      12 -> 16         0.39307
      12 -> 17         0.10923
      12 -> 22        -0.16967
      13 -> 17         0.28960
      13 -> 18         0.28683
      13 -> 20        -0.14187
      13 -> 22        -0.21716
      13 -> 23        -0.15098

 Excited State   5:      Singlet-A      6.2038 eV  199.85 nm  f=0.0003  <S**2>=0.000
       7 -> 16        -0.10174
      12 -> 16         0.36038
      12 -> 19         0.13555
      13 -> 17        -0.11290
      13 -> 18        -0.27034
      13 -> 19        -0.32150
      13 -> 20         0.10284
      13 -> 21        -0.12208
      13 -> 22        -0.13456
      13 -> 23         0.23638
      13 -> 24        -0.10309

 Excited State   6:      Singlet-A      6.2078 eV  199.72 nm  f=0.0010  <S**2>=0.000
       7 -> 16        -0.11378
      12 -> 16         0.38133
      12 -> 18        -0.10562
      12 -> 20         0.11811
      13 -> 17        -0.22268
      13 -> 19         0.33316
      13 -> 22         0.30973

 Excited State   7:      Singlet-A      6.4562 eV  192.04 nm  f=0.3747  <S**2>=0.000
      10 -> 16        -0.11026
      12 -> 14         0.53038
      13 -> 15         0.39348

 Excited State   8:      Singlet-A      6.6396 eV  186.73 nm  f=0.0035  <S**2>=0.000
      12 -> 19         0.10262
      13 -> 17        -0.41629
      13 -> 18         0.47662
      13 -> 22        -0.10151
      13 -> 23         0.14553

 Excited State   9:      Singlet-A      6.8155 eV  181.92 nm  f=0.1171  <S**2>=0.000
      12 -> 15         0.66856
      13 -> 14        -0.16067

 Excited State  10:      Singlet-A      7.2301 eV  171.48 nm  f=0.0027  <S**2>=0.000
       9 -> 14         0.26430
      11 -> 14         0.52431
      11 -> 15        -0.30008

 Excited State  11:      Singlet-A      7.2985 eV  169.88 nm  f=0.0004  <S**2>=0.000
      12 -> 17        -0.19194
      12 -> 18         0.45032
      12 -> 19         0.14549
      12 -> 20        -0.11011
      13 -> 17        -0.20392
      13 -> 18        -0.11658
      13 -> 19         0.25282
      13 -> 22        -0.24640

 Excited State  12:      Singlet-A      7.4980 eV  165.36 nm  f=0.0012  <S**2>=0.000
       9 -> 14         0.25112
      10 -> 14         0.10103
      12 -> 17         0.37378
      12 -> 18         0.10777
      12 -> 20         0.10243
      12 -> 23        -0.11824
      13 -> 17        -0.20062
      13 -> 18        -0.19025
      13 -> 20        -0.31305
      13 -> 24         0.14047

 Excited State  13:      Singlet-A      7.5671 eV  163.85 nm  f=0.0004  <S**2>=0.000
       8 -> 14        -0.13143
       9 -> 14         0.48119
       9 -> 15         0.24976
      10 -> 15        -0.12210
      11 -> 14        -0.29021
      12 -> 17        -0.13294

 Excited State  14:      Singlet-A      7.7728 eV  159.51 nm  f=0.0006  <S**2>=0.000
      10 -> 14        -0.11351
      12 -> 18         0.19419
      12 -> 19         0.15786
      12 -> 20        -0.13562
      12 -> 21         0.18296
      12 -> 23         0.16701
      13 -> 19        -0.21532
      13 -> 20        -0.21687
      13 -> 21        -0.14813
      13 -> 22         0.40854

 Excited State  15:      Singlet-A      7.8149 eV  158.65 nm  f=0.0039  <S**2>=0.000
      10 -> 14         0.57980
      12 -> 20        -0.11973
      13 -> 17         0.18570
      13 -> 23         0.21076

 The electronic state is 1-A.
 Alpha  occ. eigenvalues --   -1.59168  -1.25728  -1.10945  -0.82521  -0.81881
 Alpha  occ. eigenvalues --   -0.69093  -0.60818  -0.55791  -0.51484  -0.50502
 Alpha  occ. eigenvalues --   -0.49986  -0.40675  -0.35121
 Alpha virt. eigenvalues --    0.03137   0.07102   0.09861   0.14300   0.14729
 Alpha virt. eigenvalues --    0.15304   0.17994   0.18518   0.19030   0.20686
 Alpha virt. eigenvalues --    0.22255

 Mulliken charges:
               1
     1  C   -0.166552
     2  C   -0.117076
     3  O   -0.089141
     4  C   -0.073913
     5  C   -0.230705
     6  H    0.160198
     7  H    0.172771
     8  H    0.188832
     9  H    0.155587
 Sum of Mulliken charges =   0.00000

 Dipole moment (field-independent basis, Debye):
    X=             -0.0069    Y=              0.4462    Z=              0.0674  Tot=              0.4513
 N-N= 1.042577488392D+02 E-N=-1.723268558667D+02  KE=-1.664308279916D+01
 Orbital energies and kinetic energies (alpha):
                                 1                 2
   1         O                -1.591682         -1.342251
   2         O                -1.257283         -1.057652
   3         O                -1.109446         -0.966880
   4         O                -0.825212         -0.720721
   5         O                -0.818806         -0.704598
   6         O                -0.690932         -0.607776
   7         O                -0.608185         -0.493335

 Normal termination of Gaussian 09 at Tue Dec 15 16:28:07 2015.
