 Gaussian 09, Revision D.01,
 Gaussian 09:  ES64L-G09RevD.01 24-Apr-2013

 ------------------------------------------------------------
 #P AM1(Input,print) CIS(Singlets,NStates=15) pop(full) force
 ------------------------------------------------------------

 -----------------
 AM1-Reparam Input
 -----------------
 Symbolic Z-matrix:
 Charge =  0 Multiplicity = 1

                         Standard orientation:
 ---------------------------------------------------------------------
 Center     Atomic      Atomic             Coordinates (Angstroms)
 Number     Number       Type             X           Y           Z
 ---------------------------------------------------------------------
      1          6           0       -0.937434    0.729833   -0.021719
      2          6           0       -0.962978   -0.593631    0.027571
      3          8           0        0.283689   -1.138888   -0.009341
      4          6           0        1.131678   -0.042859    0.014813
      5          6           0        0.467148    1.095240   -0.003600
      6          1           0        0.883264    2.063284    0.038627
      7          1           0        2.221465   -0.377353   -0.046116
      8          1           0       -1.789787   -1.219029   -0.025289
      9          1           0       -1.774941    1.512701    0.005117
 ---------------------------------------------------------------------

 SCF Done:  E(RAM1) =   1.11799898153     A.U. after   14 cycles

 Excitation energies and oscillator strengths:

 Excited State   1:      Singlet-A      5.4158 eV  228.93 nm  f=0.2083  <S**2>=0.000
      12 -> 15         0.14153
      13 -> 14         0.68160
 This state for optimization and/or second-order correction.
 Total Energy, E(CIS) =   1.31702600954
 Copying the excited state density for this state as the 1-particle RhoCI density.

 Excited State   2:      Singlet-A      6.4149 eV  193.27 nm  f=0.0035  <S**2>=0.000
      13 -> 16         0.41419
      13 -> 17         0.52711
      13 -> 19         0.16137

 Excited State   3:      Singlet-A      6.5580 eV  189.06 nm  f=0.0002  <S**2>=0.000
      13 -> 16         0.52313
      13 -> 17        -0.40941
      13 -> 18        -0.15665
      13 -> 21        -0.13039

 Excited State   4:      Singlet-A      6.7167 eV  184.59 nm  f=0.0351  <S**2>=0.000
      12 -> 14        -0.32916
      13 -> 15         0.60135
      13 -> 17         0.11214

 Excited State   5:      Singlet-A      7.2073 eV  172.03 nm  f=0.0013  <S**2>=0.000
       9 -> 14        -0.12258
      11 -> 14         0.68551

 Excited State   6:      Singlet-A      7.9447 eV  156.06 nm  f=0.0184  <S**2>=0.000
      10 -> 14         0.50617
      11 -> 15        -0.13475
      12 -> 14        -0.17044
      13 -> 18         0.37400

 Excited State   7:      Singlet-A      7.9753 eV  155.46 nm  f=0.0051  <S**2>=0.000
      10 -> 14        -0.37316
      13 -> 18         0.49276
      13 -> 19         0.13496
      13 -> 20        -0.15258
      13 -> 24        -0.11834

 Excited State   8:      Singlet-A      8.0613 eV  153.80 nm  f=0.2338  <S**2>=0.000
      10 -> 14         0.21237
      12 -> 14         0.56832
      13 -> 15         0.28921

 Excited State   9:      Singlet-A      8.3433 eV  148.60 nm  f=0.0001  <S**2>=0.000
      13 -> 19         0.29327
      13 -> 20         0.59063
      13 -> 23         0.12308

 Excited State  10:      Singlet-A      8.6325 eV  143.62 nm  f=0.0350  <S**2>=0.000
       6 -> 15        -0.10534
       9 -> 15         0.23393
      10 -> 14         0.18368
      11 -> 15         0.53291
      12 -> 15         0.28643

 Excited State  11:      Singlet-A      8.6909 eV  142.66 nm  f=0.1149  <S**2>=0.000
       9 -> 15        -0.11132
       9 -> 17         0.11698
      11 -> 15        -0.27728
      11 -> 16         0.12295
      11 -> 18        -0.12964
      12 -> 15         0.51740
      12 -> 17        -0.14405
      13 -> 14        -0.11814

 Excited State  12:      Singlet-A      8.8021 eV  140.86 nm  f=0.0025  <S**2>=0.000
      12 -> 16         0.54341
      12 -> 17         0.32348
      12 -> 19         0.10022
      13 -> 19         0.15912
      13 -> 20        -0.10502
      13 -> 21        -0.10395

 Excited State  13:      Singlet-A      8.8366 eV  140.31 nm  f=0.0090  <S**2>=0.000
      12 -> 15         0.10010
      12 -> 16        -0.16202
      12 -> 17         0.46379
      13 -> 18         0.14579
      13 -> 19        -0.36550
      13 -> 20         0.24088

 Excited State  14:      Singlet-A      9.2864 eV  133.51 nm  f=0.0010  <S**2>=0.000
      12 -> 16         0.24117
      12 -> 17        -0.17644
      13 -> 16         0.11719
      13 -> 19        -0.21878
      13 -> 21         0.54788
      13 -> 22        -0.13883

 Excited State  15:      Singlet-A      9.3645 eV  132.40 nm  f=0.0162  <S**2>=0.000
      11 -> 16        -0.12734
      11 -> 18         0.12187
      12 -> 15         0.12914
      12 -> 16        -0.23212
      12 -> 17         0.27133
      13 -> 17        -0.10040
      13 -> 18        -0.17526
      13 -> 19         0.32352
      13 -> 20        -0.12433
      13 -> 21         0.31458

 The electronic state is 1-A.
 Alpha  occ. eigenvalues --   -1.81599  -1.19723  -0.98732  -0.87056  -0.80441
 Alpha  occ. eigenvalues --   -0.73668  -0.71416  -0.59373  -0.55531  -0.51604
 Alpha  occ. eigenvalues --   -0.48882  -0.47211  -0.37004
 Alpha virt. eigenvalues --    0.04124   0.09459   0.10488   0.11220   0.18046
 Alpha virt. eigenvalues --    0.19518   0.20506   0.22297   0.26775   0.27402
 Alpha virt. eigenvalues --    0.28302

 Mulliken charges:
               1
     1  C   -0.159008
     2  C   -1.224214
     3  O    2.099459
     4  C   -1.209496
     5  C   -0.123271
     6  H    0.103677
     7  H    0.194091
     8  H    0.200190
     9  H    0.118571
 Sum of Mulliken charges =   0.00000

 Dipole moment (field-independent basis, Debye):
    X=              1.8125    Y=             -7.2625    Z=             -0.3540  Tot=              7.4936
 N-N= 1.043646633931D+02 E-N=-1.712897468792D+02  KE=-1.495878046261D+01
 Orbital energies and kinetic energies (alpha):
                                 1                 2
   1         O                -1.815990         -1.237497
   2         O                -1.197232         -0.975337
   3         O                -0.987317         -0.831836
   4         O                -0.870565         -0.612864
   5         O                -0.804409         -0.677177
   6         O                -0.736678         -0.580405
   7         O                -0.714157         -0.519383

 Normal termination of Gaussian 09 at Tue Dec 15 17:05:47 2015.
