 Gaussian 09, Revision D.01,
 Gaussian 09:  ES64L-G09RevD.01 24-Apr-2013

 ------------------------------------------------------------
 #P AM1(Input,print) CIS(Singlets,NStates=15) pop(full) force
 ------------------------------------------------------------

 -----------------
 AM1-Reparam Input
 -----------------
 Symbolic Z-matrix:
 Charge =  0 Multiplicity = 1

                         Standard orientation:
 ---------------------------------------------------------------------
 Center     Atomic      Atomic             Coordinates (Angstroms)
 Number     Number       Type             X           Y           Z
 ---------------------------------------------------------------------
      1          6           0       -0.649209    0.952741   -0.010527
      2          6           0       -1.125689   -0.286260   -0.018166
      3          8           0       -0.016815   -1.185070    0.020537
      4          6           0        1.071734   -0.378041   -0.018015
      5          6           0        0.715134    0.952553    0.003449
      6          1           0        1.405952    1.806359    0.024339
      7          1           0        1.996069   -0.867944    0.000200
      8          1           0       -2.049384   -0.749091    0.004314
      9          1           0       -1.289940    1.845278    0.066410
 ---------------------------------------------------------------------

 SCF Done:  E(RAM1) =   1.82127413284     A.U. after   14 cycles

 Excitation energies and oscillator strengths:

 Excited State   1:      Singlet-A      5.7152 eV  216.94 nm  f=0.3137  <S**2>=0.000
      13 -> 14         0.68604
 This state for optimization and/or second-order correction.
 Total Energy, E(CIS) =   2.03130358645
 Copying the excited state density for this state as the 1-particle RhoCI density.

 Excited State   2:      Singlet-A      6.7980 eV  182.38 nm  f=0.0056  <S**2>=0.000
      13 -> 15         0.67068
      13 -> 17        -0.14636

 Excited State   3:      Singlet-A      7.2583 eV  170.82 nm  f=0.0021  <S**2>=0.000
      13 -> 16         0.66785
      13 -> 19         0.12495

 Excited State   4:      Singlet-A      7.6599 eV  161.86 nm  f=0.0017  <S**2>=0.000
      12 -> 14         0.69509

 Excited State   5:      Singlet-A      8.3027 eV  149.33 nm  f=0.0049  <S**2>=0.000
      10 -> 14         0.20666
      11 -> 14         0.65072
      13 -> 17        -0.10069

 Excited State   6:      Singlet-A      8.4899 eV  146.04 nm  f=0.0001  <S**2>=0.000
      11 -> 14        -0.13081
      13 -> 17        -0.31879
      13 -> 18         0.55055
      13 -> 22        -0.23186

 Excited State   7:      Singlet-A      9.1264 eV  135.85 nm  f=0.0092  <S**2>=0.000
      10 -> 15        -0.11900
      10 -> 16         0.12226
      13 -> 17         0.56978
      13 -> 18         0.33976

 Excited State   8:      Singlet-A      9.2149 eV  134.55 nm  f=0.0658  <S**2>=0.000
      10 -> 14         0.62159
      11 -> 14        -0.18807
      12 -> 17         0.15996

 Excited State   9:      Singlet-A      9.7327 eV  127.39 nm  f=0.1145  <S**2>=0.000
       9 -> 15         0.15538
      10 -> 14         0.17405
      11 -> 15        -0.10347
      11 -> 16        -0.22348
      11 -> 18         0.23213
      12 -> 15         0.37158
      12 -> 17        -0.25250
      12 -> 18         0.17462
      13 -> 14        -0.12685

 Excited State  10:      Singlet-A      9.7738 eV  126.85 nm  f=0.0011  <S**2>=0.000
      10 -> 15        -0.13725
      10 -> 16        -0.11793
      13 -> 19         0.64510

 Excited State  11:      Singlet-A     10.3138 eV  120.21 nm  f=0.1604  <S**2>=0.000
      12 -> 16         0.64611
      12 -> 19         0.15820

 Excited State  12:      Singlet-A     10.3791 eV  119.46 nm  f=0.0657  <S**2>=0.000
      10 -> 15        -0.12420
      11 -> 15         0.61024
      11 -> 17        -0.11974
      11 -> 19        -0.10975
      12 -> 15         0.18698

 Excited State  13:      Singlet-A     10.4534 eV  118.61 nm  f=0.0520  <S**2>=0.000
      10 -> 15         0.59743
      12 -> 15         0.19610
      13 -> 15         0.12149
      13 -> 20        -0.11826

 Excited State  14:      Singlet-A     10.5685 eV  117.31 nm  f=0.0294  <S**2>=0.000
      13 -> 18         0.20939
      13 -> 19        -0.14735
      13 -> 20        -0.37507
      13 -> 22         0.51118

 Excited State  15:      Singlet-A     10.6895 eV  115.99 nm  f=0.0900  <S**2>=0.000
       8 -> 16         0.10577
       9 -> 15         0.22931
      10 -> 14        -0.13940
      11 -> 15        -0.10737
      11 -> 16         0.11928
      11 -> 19         0.12924
      12 -> 15         0.28892
      12 -> 16         0.11625
      12 -> 17         0.28035
      12 -> 18        -0.27424
      12 -> 19        -0.19181
      12 -> 20        -0.15112

 The electronic state is 1-A.
 Alpha  occ. eigenvalues --   -1.98599  -1.28909  -1.00370  -0.88882  -0.86438
 Alpha  occ. eigenvalues --   -0.76730  -0.74140  -0.63319  -0.61772  -0.51588
 Alpha  occ. eigenvalues --   -0.50959  -0.48924  -0.37001
 Alpha virt. eigenvalues --    0.05909   0.11573   0.13670   0.19831   0.21024
 Alpha virt. eigenvalues --    0.23537   0.26217   0.27497   0.28265   0.36040
 Alpha virt. eigenvalues --    0.40343

 Mulliken charges:
               1
     1  C   -0.088943
     2  C   -1.860939
     3  O    3.171720
     4  C   -1.900033
     5  C   -0.161317
     6  H    0.156453
     7  H    0.274294
     8  H    0.256069
     9  H    0.152697
 Sum of Mulliken charges =   0.00000

 Dipole moment (field-independent basis, Debye):
    X=              0.0608    Y=            -11.0924    Z=              0.6499  Tot=             11.1116
 N-N= 1.057021088689D+02 E-N=-1.707214964104D+02  KE=-1.568757669545D+01
 Orbital energies and kinetic energies (alpha):
                                 1                 2
   1         O                -1.985989         -1.356847
   2         O                -1.289085         -1.069409
   3         O                -1.003702         -0.892550
   4         O                -0.888820         -0.588161
   5         O                -0.864378         -0.702487
   6         O                -0.767297         -0.614229
   7         O                -0.741403         -0.551528

 Normal termination of Gaussian 09 at Tue Dec 15 17:09:04 2015.
