 Gaussian 09, Revision D.01,
 Gaussian 09:  ES64L-G09RevD.01 24-Apr-2013

 ------------------------------------------------------------
 #P AM1(Input,print) CIS(Singlets,NStates=15) pop(full) force
 ------------------------------------------------------------

 -----------------
 AM1-Reparam Input
 -----------------
 Symbolic Z-matrix:
 Charge =  0 Multiplicity = 1

                         Standard orientation:
 ---------------------------------------------------------------------
 Center     Atomic      Atomic             Coordinates (Angstroms)
 Number     Number       Type             X           Y           Z
 ---------------------------------------------------------------------
      1          6           0        0.426935    1.086993    0.006452
      2          6           0        1.158484   -0.062068    0.034016
      3          8           0        0.323832   -1.092775   -0.013920
      4          6           0       -0.987586   -0.654582   -0.000887
      5          6           0       -0.950789    0.774502   -0.023468
      6          1           0       -1.781889    1.417671    0.030627
      7          1           0       -1.744242   -1.345937    0.070045
      8          1           0        2.197984   -0.256572   -0.078761
      9          1           0        0.855220    2.057965   -0.007227
 ---------------------------------------------------------------------

 SCF Done:  E(RAM1) =   1.10189550611     A.U. after   14 cycles

 Excitation energies and oscillator strengths:

 Excited State   1:      Singlet-A      5.6513 eV  219.39 nm  f=0.1950  <S**2>=0.000
      12 -> 16         0.14267
      13 -> 14         0.67638
 This state for optimization and/or second-order correction.
 Total Energy, E(CIS) =   1.30957815531
 Copying the excited state density for this state as the 1-particle RhoCI density.

 Excited State   2:      Singlet-A      6.5963 eV  187.96 nm  f=0.0065  <S**2>=0.000
      13 -> 15         0.67601
      13 -> 17         0.11134
      13 -> 20         0.10851

 Excited State   3:      Singlet-A      7.0466 eV  175.95 nm  f=0.0018  <S**2>=0.000
      12 -> 14         0.48158
      13 -> 16        -0.48030
      13 -> 17         0.10617

 Excited State   4:      Singlet-A      7.3122 eV  169.56 nm  f=0.0035  <S**2>=0.000
      11 -> 14        -0.11053
      12 -> 14        -0.18758
      12 -> 15        -0.11881
      13 -> 17         0.61361
      13 -> 18        -0.14002
      13 -> 21         0.13468

 Excited State   5:      Singlet-A      7.3911 eV  167.75 nm  f=0.0004  <S**2>=0.000
       9 -> 14         0.18184
      10 -> 14        -0.13785
      11 -> 14         0.65126

 Excited State   6:      Singlet-A      7.8856 eV  157.23 nm  f=0.0022  <S**2>=0.000
       9 -> 14         0.14743
      10 -> 14         0.65650
      11 -> 14         0.10474
      11 -> 16         0.13592

 Excited State   7:      Singlet-A      8.0270 eV  154.46 nm  f=0.2437  <S**2>=0.000
      11 -> 15         0.10056
      12 -> 14         0.45902
      13 -> 16         0.47159
      13 -> 17         0.11935

 Excited State   8:      Singlet-A      8.2126 eV  150.97 nm  f=0.0032  <S**2>=0.000
      12 -> 15         0.54246
      12 -> 17         0.13896
      13 -> 18        -0.38097
      13 -> 23        -0.10586

 Excited State   9:      Singlet-A      8.5129 eV  145.64 nm  f=0.0234  <S**2>=0.000
       9 -> 16        -0.20735
      10 -> 14        -0.15639
      10 -> 16         0.16215
      11 -> 16         0.59600

 Excited State  10:      Singlet-A      8.5314 eV  145.33 nm  f=0.0051  <S**2>=0.000
      12 -> 15         0.35483
      13 -> 17         0.18518
      13 -> 18         0.52420
      13 -> 23         0.10646

 Excited State  11:      Singlet-A      8.7647 eV  141.46 nm  f=0.1649  <S**2>=0.000
      12 -> 16         0.57349
      12 -> 17        -0.11270
      13 -> 14        -0.11216
      13 -> 19         0.13826
      13 -> 20        -0.25025

 Excited State  12:      Singlet-A      8.8358 eV  140.32 nm  f=0.0500  <S**2>=0.000
      12 -> 16         0.27765
      13 -> 19        -0.41439
      13 -> 20         0.45033
      13 -> 22         0.12605

 Excited State  13:      Singlet-A      9.0005 eV  137.75 nm  f=0.0302  <S**2>=0.000
       9 -> 15        -0.22468
      10 -> 17         0.12491
      11 -> 15         0.55848
      11 -> 20         0.15935
      12 -> 17        -0.15270

 Excited State  14:      Singlet-A      9.1327 eV  135.76 nm  f=0.0284  <S**2>=0.000
       7 -> 15         0.10167
      11 -> 15         0.12813
      12 -> 15        -0.11163
      12 -> 16         0.13620
      12 -> 17         0.58990
      13 -> 19         0.21970
      13 -> 20         0.10113

 Excited State  15:      Singlet-A      9.3140 eV  133.12 nm  f=0.0001  <S**2>=0.000
       9 -> 14         0.63517
      10 -> 14        -0.11411
      11 -> 14        -0.19979

 The electronic state is 1-A.
 Alpha  occ. eigenvalues --   -1.83388  -1.18720  -0.99556  -0.87593  -0.81379
 Alpha  occ. eigenvalues --   -0.74506  -0.71653  -0.62156  -0.56377  -0.52668
 Alpha  occ. eigenvalues --   -0.50451  -0.47184  -0.39730
 Alpha virt. eigenvalues --    0.02711   0.09219   0.09520   0.11905   0.17915
 Alpha virt. eigenvalues --    0.19080   0.19459   0.21358   0.26131   0.26538
 Alpha virt. eigenvalues --    0.27854

 Mulliken charges:
               1
     1  C   -0.155333
     2  C   -1.271289
     3  O    2.171653
     4  C   -1.288932
     5  C   -0.078400
     6  H    0.106359
     7  H    0.189565
     8  H    0.209305
     9  H    0.117073
 Sum of Mulliken charges =   0.00000

 Dipole moment (field-independent basis, Debye):
    X=              2.2937    Y=             -6.3178    Z=             -0.3022  Tot=              6.7281
 N-N= 1.043117744633D+02 E-N=-1.709144864193D+02  KE=-1.499807682164D+01
 Orbital energies and kinetic energies (alpha):
                                 1                 2
   1         O                -1.833878         -1.243337
   2         O                -1.187199         -0.964184
   3         O                -0.995558         -0.803443
   4         O                -0.875927         -0.642544
   5         O                -0.813786         -0.672696
   6         O                -0.745056         -0.606602
   7         O                -0.716526         -0.509416

 Normal termination of Gaussian 09 at Tue Dec 15 17:05:32 2015.
