 Gaussian 09, Revision D.01,
 Gaussian 09:  ES64L-G09RevD.01 24-Apr-2013

 ------------------------------------------------------------
 #P AM1(Input,print) CIS(Singlets,NStates=15) pop(full) force
 ------------------------------------------------------------

 -----------------
 AM1-Reparam Input
 -----------------
 Symbolic Z-matrix:
 Charge =  0 Multiplicity = 1

                         Standard orientation:
 ---------------------------------------------------------------------
 Center     Atomic      Atomic             Coordinates (Angstroms)
 Number     Number       Type             X           Y           Z
 ---------------------------------------------------------------------
      1          6           0       -0.585602    1.057473   -0.018000
      2          6           0       -1.120263   -0.201910    0.019622
      3          8           0       -0.163898   -1.148734   -0.002021
      4          6           0        1.014724   -0.518693   -0.021482
      5          6           0        0.875538    0.862879    0.004002
      6          1           0        1.588808    1.641524    0.066881
      7          1           0        1.873576   -1.106909    0.044213
      8          1           0       -2.169753   -0.487836    0.012103
      9          1           0       -1.087835    1.944592   -0.011880
 ---------------------------------------------------------------------

 SCF Done:  E(RAM1) =   1.37488916695     A.U. after   13 cycles

 Excitation energies and oscillator strengths:

 Excited State   1:      Singlet-A      5.8618 eV  211.51 nm  f=0.3224  <S**2>=0.000
      13 -> 14         0.69171
 This state for optimization and/or second-order correction.
 Total Energy, E(CIS) =   1.59030527918
 Copying the excited state density for this state as the 1-particle RhoCI density.

 Excited State   2:      Singlet-A      6.3676 eV  194.71 nm  f=0.0039  <S**2>=0.000
      12 -> 16        -0.10927
      13 -> 15         0.66205
      13 -> 17         0.18561

 Excited State   3:      Singlet-A      6.6315 eV  186.96 nm  f=0.0003  <S**2>=0.000
      12 -> 15        -0.13769
      13 -> 16         0.64573
      13 -> 18         0.13075
      13 -> 21         0.17611

 Excited State   4:      Singlet-A      7.2440 eV  171.15 nm  f=0.0008  <S**2>=0.000
      11 -> 14         0.67847
      12 -> 14        -0.14548

 Excited State   5:      Singlet-A      7.9224 eV  156.50 nm  f=0.0073  <S**2>=0.000
      12 -> 15        -0.11410
      13 -> 15        -0.14259
      13 -> 17         0.54390
      13 -> 18        -0.19577
      13 -> 21        -0.10424
      13 -> 22         0.30779

 Excited State   6:      Singlet-A      7.9281 eV  156.39 nm  f=0.0051  <S**2>=0.000
      12 -> 15        -0.12726
      13 -> 16         0.13454
      13 -> 17        -0.37780
      13 -> 18        -0.28703
      13 -> 21        -0.13955
      13 -> 22         0.42967

 Excited State   7:      Singlet-A      8.3315 eV  148.81 nm  f=0.0580  <S**2>=0.000
      10 -> 14         0.21175
      11 -> 14         0.13500
      12 -> 14         0.60611
      13 -> 19         0.22988

 Excited State   8:      Singlet-A      8.4752 eV  146.29 nm  f=0.0092  <S**2>=0.000
      10 -> 14         0.65476
      12 -> 14        -0.19017
      13 -> 17         0.10636
      13 -> 19        -0.10403

 Excited State   9:      Singlet-A      8.7520 eV  141.66 nm  f=0.0034  <S**2>=0.000
      12 -> 15        -0.18843
      13 -> 18         0.47970
      13 -> 19        -0.10197
      13 -> 21        -0.44107
      13 -> 22         0.11626

 Excited State  10:      Singlet-A      8.8062 eV  140.79 nm  f=0.0030  <S**2>=0.000
      12 -> 15         0.10880
      13 -> 16        -0.10020
      13 -> 18         0.33057
      13 -> 20         0.14153
      13 -> 21         0.41407
      13 -> 22         0.40617

 Excited State  11:      Singlet-A      9.1382 eV  135.68 nm  f=0.0025  <S**2>=0.000
      12 -> 15         0.57996
      12 -> 16         0.11743
      12 -> 17         0.12474
      13 -> 16         0.20572
      13 -> 21        -0.22828

 Excited State  12:      Singlet-A      9.2162 eV  134.53 nm  f=0.0716  <S**2>=0.000
      12 -> 16         0.29714
      13 -> 20         0.59806
      13 -> 22        -0.12608

 Excited State  13:      Singlet-A      9.5511 eV  129.81 nm  f=0.2053  <S**2>=0.000
      11 -> 15         0.13625
      12 -> 14        -0.24770
      13 -> 18         0.11281
      13 -> 19         0.59553

 Excited State  14:      Singlet-A      9.5882 eV  129.31 nm  f=0.0106  <S**2>=0.000
       7 -> 15         0.10879
      12 -> 16         0.56468
      13 -> 15         0.15612
      13 -> 19         0.10880
      13 -> 20        -0.30883

 Excited State  15:      Singlet-A      9.8075 eV  126.42 nm  f=0.1588  <S**2>=0.000
       8 -> 15        -0.25602
      10 -> 15         0.20169
      10 -> 17         0.18711
      11 -> 15        -0.13094
      11 -> 16         0.49349
      11 -> 18         0.16939
      11 -> 22        -0.11194

 The electronic state is 1-A.
 Alpha  occ. eigenvalues --   -1.89685  -1.17585  -0.95743  -0.79277  -0.77218
 Alpha  occ. eigenvalues --   -0.68077  -0.61723  -0.50032  -0.47963  -0.41803
 Alpha  occ. eigenvalues --   -0.38217  -0.37041  -0.24921
 Alpha virt. eigenvalues --    0.16545   0.21405   0.22682   0.29468   0.31034
 Alpha virt. eigenvalues --    0.31631   0.33310   0.33551   0.34582   0.41706
 Alpha virt. eigenvalues --    0.47249

 Mulliken charges:
               1
     1  C   -0.050850
     2  C   -1.572133
     3  O    2.790163
     4  C   -1.570190
     5  C   -0.065295
     6  H    0.065944
     7  H    0.165506
     8  H    0.173263
     9  H    0.063592
 Sum of Mulliken charges =   0.00000

 Dipole moment (field-independent basis, Debye):
    X=             -1.4371    Y=             -9.1895    Z=              0.1004  Tot=              9.3017
 N-N= 1.035832091387D+02 E-N=-1.699520641554D+02  KE=-1.587884317642D+01
 Orbital energies and kinetic energies (alpha):
                                 1                 2
   1         O                -1.896854         -1.394051
   2         O                -1.175854         -1.070244
   3         O                -0.957432         -0.874665
   4         O                -0.792771         -0.636724
   5         O                -0.772184         -0.703641
   6         O                -0.680768         -0.624665
   7         O                -0.617229         -0.536057

 Normal termination of Gaussian 09 at Tue Dec 15 17:08:02 2015.
