 Gaussian 09, Revision D.01,
 Gaussian 09:  ES64L-G09RevD.01 24-Apr-2013

 ------------------------------------------------------------
 #P AM1(Input,print) CIS(Singlets,NStates=15) pop(full) force
 ------------------------------------------------------------

 -----------------
 AM1-Reparam Input
 -----------------
 Symbolic Z-matrix:
 Charge =  0 Multiplicity = 1

                         Standard orientation:
 ---------------------------------------------------------------------
 Center     Atomic      Atomic             Coordinates (Angstroms)
 Number     Number       Type             X           Y           Z
 ---------------------------------------------------------------------
      1          6           0        0.906798    0.776835   -0.013504
      2          6           0        1.034385   -0.574751    0.020855
      3          8           0       -0.305036   -1.109669   -0.002194
      4          6           0       -1.147473   -0.105361   -0.002074
      5          6           0       -0.458687    1.060529   -0.015200
      6          1           0       -0.909003    2.133576    0.071905
      7          1           0       -2.221451   -0.316488    0.014679
      8          1           0        1.834847   -1.276483   -0.028184
      9          1           0        1.725766    1.393239    0.018693
 ---------------------------------------------------------------------

 SCF Done:  E(RAM1) =  -5.05043704523     A.U. after   14 cycles

 Excitation energies and oscillator strengths:

 Excited State   1:      Singlet-A      6.9671 eV  177.96 nm  f=0.1657  <S**2>=0.000
      12 -> 14        -0.37817
      13 -> 14         0.57350
 This state for optimization and/or second-order correction.
 Total Energy, E(CIS) =  -4.79440178383
 Copying the excited state density for this state as the 1-particle RhoCI density.

 Excited State   2:      Singlet-A      7.1254 eV  174.00 nm  f=0.0110  <S**2>=0.000
      10 -> 15        -0.10285
      12 -> 14         0.11088
      13 -> 14         0.14410
      13 -> 15         0.65193
      13 -> 17        -0.10068
      13 -> 18        -0.10128

 Excited State   3:      Singlet-A      7.2457 eV  171.11 nm  f=0.0843  <S**2>=0.000
      12 -> 14         0.57524
      13 -> 14         0.34148
      13 -> 15        -0.17028

 Excited State   4:      Singlet-A      7.8666 eV  157.61 nm  f=0.0020  <S**2>=0.000
      11 -> 14        -0.36208
      13 -> 16         0.55265
      13 -> 17        -0.18321

 Excited State   5:      Singlet-A      7.9725 eV  155.51 nm  f=0.0050  <S**2>=0.000
      11 -> 14         0.59440
      13 -> 16         0.35391

 Excited State   6:      Singlet-A      8.6853 eV  142.75 nm  f=0.0115  <S**2>=0.000
      13 -> 16         0.19234
      13 -> 17         0.65597

 Excited State   7:      Singlet-A      9.0055 eV  137.68 nm  f=0.0012  <S**2>=0.000
      12 -> 15         0.61544
      12 -> 18        -0.16165
      13 -> 19        -0.21840

 Excited State   8:      Singlet-A      9.1607 eV  135.34 nm  f=0.0970  <S**2>=0.000
       9 -> 15         0.12749
      10 -> 14         0.29319
      12 -> 15         0.22205
      13 -> 19         0.57270

 Excited State   9:      Singlet-A      9.3209 eV  133.02 nm  f=0.0251  <S**2>=0.000
      10 -> 15        -0.10250
      13 -> 17        -0.11568
      13 -> 18         0.66177

 Excited State  10:      Singlet-A      9.5137 eV  130.32 nm  f=0.0412  <S**2>=0.000
       9 -> 15         0.24031
      11 -> 15         0.37317
      11 -> 17        -0.24450
      11 -> 18        -0.11245
      12 -> 16        -0.24109
      12 -> 17         0.34063

 Excited State  11:      Singlet-A      9.7572 eV  127.07 nm  f=0.3274  <S**2>=0.000
       8 -> 16        -0.11697
       9 -> 16        -0.13841
      11 -> 17        -0.11061
      11 -> 18         0.10543
      12 -> 16         0.52210
      12 -> 17         0.32050
      12 -> 18        -0.12890

 Excited State  12:      Singlet-A     10.1121 eV  122.61 nm  f=0.1000  <S**2>=0.000
       8 -> 16         0.12060
       9 -> 15        -0.11821
      10 -> 14        -0.14159
      11 -> 15         0.14846
      11 -> 16         0.38005
      11 -> 17        -0.20880
      11 -> 18        -0.18157
      12 -> 16         0.14205
      12 -> 17        -0.28280
      12 -> 18        -0.21441
      13 -> 19         0.15914

 Excited State  13:      Singlet-A     10.1507 eV  122.14 nm  f=0.1921  <S**2>=0.000
       9 -> 15         0.15437
      10 -> 15         0.11597
      11 -> 15         0.33080
      11 -> 16         0.18248
      11 -> 17         0.14361
      11 -> 20         0.21043
      12 -> 15         0.10239
      12 -> 16         0.13788
      12 -> 17        -0.17335
      12 -> 18         0.31944
      12 -> 20         0.10240
      13 -> 19        -0.10269
      13 -> 20         0.18289

 Excited State  14:      Singlet-A     10.1772 eV  121.83 nm  f=0.0388  <S**2>=0.000
      10 -> 15         0.17237
      12 -> 18        -0.15869
      13 -> 18         0.12178
      13 -> 20         0.61345

 Excited State  15:      Singlet-A     10.4907 eV  118.18 nm  f=0.0029  <S**2>=0.000
      10 -> 15         0.55211
      10 -> 16         0.16195
      10 -> 17        -0.10644
      10 -> 18        -0.11126
      13 -> 20        -0.17292
      13 -> 21         0.18281
      13 -> 22         0.20104

 The electronic state is 1-A.
 Alpha  occ. eigenvalues --   -3.72656  -1.16422  -0.85722  -0.84484  -0.83462
 Alpha  occ. eigenvalues --   -0.74759  -0.63776  -0.46648  -0.44738  -0.40858
 Alpha  occ. eigenvalues --   -0.35772  -0.32943  -0.26631
 Alpha virt. eigenvalues --    0.21329   0.22351   0.26145   0.29383   0.31792
 Alpha virt. eigenvalues --    0.32618   0.35112   0.40828   0.44029   0.45653
 Alpha virt. eigenvalues --    0.51922

 Mulliken charges:
               1
     1  C   -0.162781
     2  C   -1.469482
     3  O    2.698924
     4  C   -1.475010
     5  C   -0.204252
     6  H    0.097559
     7  H    0.199303
     8  H    0.183462
     9  H    0.132278
 Sum of Mulliken charges =   0.00000

 Dipole moment (field-independent basis, Debye):
    X=             -3.0914    Y=             -9.8749    Z=             -0.1073  Tot=             10.3480
 N-N= 1.015471346414D+02 E-N=-1.681129868624D+02  KE=-2.290473642912D+01
 Orbital energies and kinetic energies (alpha):
                                 1                 2
   1         O                -3.726565         -3.112917
   2         O                -1.164221         -1.220121
   3         O                -0.857216         -0.977518
   4         O                -0.844836         -0.904329
   5         O                -0.834620         -0.902964
   6         O                -0.747586         -0.783515
   7         O                -0.637763         -0.708525

 Normal termination of Gaussian 09 at Fri Dec 11 13:41:18 2015.
