 Gaussian 09, Revision D.01,
 Gaussian 09:  ES64L-G09RevD.01 24-Apr-2013

 ------------------------------------------------------------
 #P AM1(Input,print) CIS(Singlets,NStates=15) pop(full) force
 ------------------------------------------------------------

 -----------------
 AM1-Reparam Input
 -----------------
 Symbolic Z-matrix:
 Charge =  0 Multiplicity = 1

                         Standard orientation:
 ---------------------------------------------------------------------
 Center     Atomic      Atomic             Coordinates (Angstroms)
 Number     Number       Type             X           Y           Z
 ---------------------------------------------------------------------
      1          6           0       -0.997617    0.663434    0.002578
      2          6           0       -0.876975   -0.703491   -0.019168
      3          8           0        0.403608   -1.045229    0.013682
      4          6           0        1.141382    0.032805   -0.004873
      5          6           0        0.313001    1.104345   -0.014920
      6          1           0        0.565638    2.173084    0.016866
      7          1           0        2.267236   -0.017053    0.024764
      8          1           0       -1.574377   -1.494734   -0.004473
      9          1           0       -1.966114    1.117970    0.071685
 ---------------------------------------------------------------------

 SCF Done:  E(RAM1) =   2.82598443873     A.U. after   14 cycles

 Excitation energies and oscillator strengths:

 Excited State   1:      Singlet-A      5.5450 eV  223.60 nm  f=0.3202  <S**2>=0.000
      13 -> 14         0.69210
 This state for optimization and/or second-order correction.
 Total Energy, E(CIS) =   3.02975917253
 Copying the excited state density for this state as the 1-particle RhoCI density.

 Excited State   2:      Singlet-A      6.6684 eV  185.93 nm  f=0.0086  <S**2>=0.000
      13 -> 15         0.55695
      13 -> 16         0.32088
      13 -> 17         0.24642

 Excited State   3:      Singlet-A      6.8307 eV  181.51 nm  f=0.0003  <S**2>=0.000
       9 -> 14         0.13572
      12 -> 14         0.67345
      13 -> 16        -0.11156

 Excited State   4:      Singlet-A      6.8863 eV  180.04 nm  f=0.0002  <S**2>=0.000
      12 -> 14         0.10029
      13 -> 15        -0.33434
      13 -> 16         0.53767
      13 -> 18         0.21076
      13 -> 19        -0.10366

 Excited State   5:      Singlet-A      7.7343 eV  160.30 nm  f=0.0070  <S**2>=0.000
      10 -> 14         0.48634
      11 -> 14         0.47436

 Excited State   6:      Singlet-A      8.0542 eV  153.94 nm  f=0.0018  <S**2>=0.000
      11 -> 16         0.10914
      13 -> 16        -0.16862
      13 -> 17         0.41223
      13 -> 18         0.28676
      13 -> 19         0.19627
      13 -> 21        -0.36820

 Excited State   7:      Singlet-A      8.2631 eV  150.05 nm  f=0.0155  <S**2>=0.000
      13 -> 15        -0.17660
      13 -> 17         0.48272
      13 -> 18        -0.31668
      13 -> 21         0.30762

 Excited State   8:      Singlet-A      8.6524 eV  143.29 nm  f=0.0936  <S**2>=0.000
      10 -> 14        -0.47834
      11 -> 14         0.48870
      12 -> 15        -0.10232

 Excited State   9:      Singlet-A      8.7690 eV  141.39 nm  f=0.0005  <S**2>=0.000
      13 -> 16         0.14214
      13 -> 18        -0.30974
      13 -> 19         0.57831
      13 -> 21        -0.10467

 Excited State  10:      Singlet-A      9.2381 eV  134.21 nm  f=0.0068  <S**2>=0.000
      13 -> 18         0.39359
      13 -> 19         0.31090
      13 -> 21         0.46643

 Excited State  11:      Singlet-A      9.3372 eV  132.78 nm  f=0.0326  <S**2>=0.000
       8 -> 15         0.10294
       9 -> 15        -0.12425
       9 -> 16         0.11211
       9 -> 18         0.14116
      10 -> 15         0.17116
      10 -> 16         0.13313
      10 -> 17         0.21611
      11 -> 15         0.17605
      11 -> 16         0.11774
      11 -> 17         0.20124
      12 -> 15         0.10669
      12 -> 16         0.30052
      12 -> 17         0.17027
      12 -> 18         0.16328
      12 -> 19         0.14997
      12 -> 21        -0.13758

 Excited State  12:      Singlet-A      9.3756 eV  132.24 nm  f=0.0762  <S**2>=0.000
       9 -> 15        -0.10456
      12 -> 15         0.61853
      12 -> 16        -0.12277
      12 -> 17         0.11124
      12 -> 18        -0.17716

 Excited State  13:      Singlet-A      9.6561 eV  128.40 nm  f=0.0809  <S**2>=0.000
      11 -> 16         0.13338
      12 -> 16        -0.11030
      13 -> 20         0.66029

 Excited State  14:      Singlet-A      9.6876 eV  127.98 nm  f=0.1025  <S**2>=0.000
       9 -> 14         0.10668
      10 -> 16        -0.23605
      11 -> 15        -0.21163
      11 -> 16        -0.31894
      11 -> 17        -0.10057
      12 -> 16         0.44550
      13 -> 20         0.13979

 Excited State  15:      Singlet-A      9.7506 eV  127.16 nm  f=0.0046  <S**2>=0.000
       9 -> 14         0.64735
      12 -> 14        -0.13538
      13 -> 20        -0.12530
      13 -> 21        -0.10471

 The electronic state is 1-A.
 Alpha  occ. eigenvalues --   -1.74709  -1.13285  -0.93134  -0.80069  -0.74986
 Alpha  occ. eigenvalues --   -0.66762  -0.65155  -0.54727  -0.49128  -0.43695
 Alpha  occ. eigenvalues --   -0.43174  -0.40479  -0.30232
 Alpha virt. eigenvalues --    0.11373   0.17384   0.18743   0.23673   0.26378
 Alpha virt. eigenvalues --    0.27383   0.29125   0.30186   0.40528   0.48984
 Alpha virt. eigenvalues --    0.53761

 Mulliken charges:
               1
     1  C   -0.118118
     2  C   -1.983780
     3  O    3.219570
     4  C   -1.987156
     5  C   -0.133310
     6  H    0.183363
     7  H    0.330049
     8  H    0.304743
     9  H    0.184637
 Sum of Mulliken charges =   0.00000

 Dipole moment (field-independent basis, Debye):
    X=              3.5331    Y=             -8.7417    Z=              0.5115  Tot=              9.4426
 N-N= 1.048096524350D+02 E-N=-1.705355093265D+02  KE=-1.484110472090D+01
 Orbital energies and kinetic energies (alpha):
                                 1                 2
   1         O                -1.747087         -1.265562
   2         O                -1.132854         -0.992301
   3         O                -0.931339         -0.843393
   4         O                -0.800694         -0.598337
   5         O                -0.749860         -0.677274
   6         O                -0.667621         -0.574889
   7         O                -0.651555         -0.534884

 Normal termination of Gaussian 09 at Tue Dec 15 17:05:55 2015.
