 Gaussian 09, Revision D.01,
 Gaussian 09:  ES64L-G09RevD.01 24-Apr-2013

 ------------------------------------------------------------
 #P AM1(Input,print) CIS(Singlets,NStates=15) pop(full) force
 ------------------------------------------------------------

 -----------------
 AM1-Reparam Input
 -----------------
 Symbolic Z-matrix:
 Charge =  0 Multiplicity = 1

                         Standard orientation:
 ---------------------------------------------------------------------
 Center     Atomic      Atomic             Coordinates (Angstroms)
 Number     Number       Type             X           Y           Z
 ---------------------------------------------------------------------
      1          6           0       -0.743460    0.905586    0.007329
      2          6           0       -1.067291   -0.314285    0.004573
      3          8           0        0.009564   -1.178529    0.003626
      4          6           0        1.093313   -0.336497   -0.019341
      5          6           0        0.704809    0.997165   -0.017738
      6          1           0        1.398201    1.779010    0.077998
      7          1           0        2.038640   -0.796708    0.062001
      8          1           0       -2.043865   -0.840370   -0.004796
      9          1           0       -1.393711    1.774489   -0.013147
 ---------------------------------------------------------------------

 SCF Done:  E(RAM1) =   1.89293290218     A.U. after   14 cycles

 Excitation energies and oscillator strengths:

 Excited State   1:      Singlet-A      5.5019 eV  225.35 nm  f=0.3218  <S**2>=0.000
      13 -> 14         0.68993
 This state for optimization and/or second-order correction.
 Total Energy, E(CIS) =   2.09512264996
 Copying the excited state density for this state as the 1-particle RhoCI density.

 Excited State   2:      Singlet-A      5.9962 eV  206.77 nm  f=0.0016  <S**2>=0.000
      10 -> 15         0.10835
      13 -> 15         0.68251

 Excited State   3:      Singlet-A      6.3848 eV  194.19 nm  f=0.0046  <S**2>=0.000
      10 -> 16        -0.10248
      13 -> 16         0.65969
      13 -> 17        -0.18611
      13 -> 19        -0.10516

 Excited State   4:      Singlet-A      6.6406 eV  186.71 nm  f=0.0008  <S**2>=0.000
      12 -> 14         0.70190

 Excited State   5:      Singlet-A      7.7874 eV  159.21 nm  f=0.0084  <S**2>=0.000
      11 -> 14         0.63452
      13 -> 17        -0.26871

 Excited State   6:      Singlet-A      7.9485 eV  155.99 nm  f=0.0014  <S**2>=0.000
      10 -> 16        -0.10277
      11 -> 14         0.25948
      13 -> 16         0.13848
      13 -> 17         0.50088
      13 -> 18        -0.31302
      13 -> 19         0.10272
      13 -> 22         0.19566

 Excited State   7:      Singlet-A      8.1324 eV  152.46 nm  f=0.0102  <S**2>=0.000
      11 -> 14         0.12923
      13 -> 17         0.35257
      13 -> 18         0.51776
      13 -> 19        -0.17482
      13 -> 22        -0.19031

 Excited State   8:      Singlet-A      8.5565 eV  144.90 nm  f=0.0771  <S**2>=0.000
       8 -> 15        -0.16130
      10 -> 14        -0.24872
      11 -> 17         0.11619
      12 -> 15         0.54626
      12 -> 16        -0.12666
      12 -> 17         0.13708
      12 -> 18        -0.15142

 Excited State   9:      Singlet-A      8.7348 eV  141.94 nm  f=0.0007  <S**2>=0.000
      13 -> 18         0.23489
      13 -> 19         0.64575

 Excited State  10:      Singlet-A      9.0664 eV  136.75 nm  f=0.0840  <S**2>=0.000
       8 -> 16        -0.13321
      10 -> 14         0.54985
      11 -> 18         0.10439
      12 -> 15         0.15603
      12 -> 16        -0.28496
      13 -> 21         0.14506

 Excited State  11:      Singlet-A      9.1509 eV  135.49 nm  f=0.0370  <S**2>=0.000
       9 -> 15         0.15625
      10 -> 14         0.11421
      11 -> 15         0.26881
      11 -> 16         0.10233
      11 -> 17        -0.17100
      11 -> 18        -0.11163
      12 -> 15         0.35840
      12 -> 16         0.29134
      12 -> 17        -0.23707
      12 -> 18         0.16724

 Excited State  12:      Singlet-A      9.6159 eV  128.94 nm  f=0.0075  <S**2>=0.000
      10 -> 15        -0.13041
      13 -> 18         0.25023
      13 -> 19        -0.10642
      13 -> 20        -0.30137
      13 -> 22         0.54428

 Excited State  13:      Singlet-A      9.7189 eV  127.57 nm  f=0.1100  <S**2>=0.000
       9 -> 16        -0.15127
      11 -> 15        -0.12488
      11 -> 16         0.48770
      11 -> 17        -0.19093
      11 -> 19        -0.12448
      12 -> 16        -0.27727
      12 -> 18         0.18484
      13 -> 20         0.11349

 Excited State  14:      Singlet-A      9.7725 eV  126.87 nm  f=0.1307  <S**2>=0.000
       8 -> 15        -0.14296
       8 -> 16         0.12504
       9 -> 15        -0.14606
       9 -> 16        -0.11239
      10 -> 14         0.29451
      11 -> 15        -0.28975
      11 -> 19        -0.15188
      12 -> 16         0.35685
      12 -> 17         0.17609
      12 -> 19        -0.15695

 Excited State  15:      Singlet-A      9.8292 eV  126.14 nm  f=0.0846  <S**2>=0.000
      10 -> 15         0.12956
      10 -> 16        -0.12302
      13 -> 20         0.57846
      13 -> 22         0.30432

 The electronic state is 1-A.
 Alpha  occ. eigenvalues --   -1.93878  -1.22166  -0.98362  -0.80934  -0.80101
 Alpha  occ. eigenvalues --   -0.68891  -0.67003  -0.50572  -0.48706  -0.41925
 Alpha  occ. eigenvalues --   -0.40433  -0.36651  -0.26047
 Alpha virt. eigenvalues --    0.14835   0.18190   0.20458   0.27668   0.29953
 Alpha virt. eigenvalues --    0.31387   0.34054   0.35065   0.36261   0.44580
 Alpha virt. eigenvalues --    0.48117

 Mulliken charges:
               1
     1  C   -0.059150
     2  C   -1.857084
     3  O    3.110248
     4  C   -1.916625
     5  C   -0.156416
     6  H    0.154770
     7  H    0.296844
     8  H    0.287998
     9  H    0.139415
 Sum of Mulliken charges =   0.00000

 Dipole moment (field-independent basis, Debye):
    X=             -0.4913    Y=            -11.1804    Z=              0.3470  Tot=             11.1966
 N-N= 1.042735884571D+02 E-N=-1.699739299966D+02  KE=-1.567402959219D+01
 Orbital energies and kinetic energies (alpha):
                                 1                 2
   1         O                -1.938779         -1.403755
   2         O                -1.221658         -1.093667
   3         O                -0.983620         -0.922734
   4         O                -0.809344         -0.614697
   5         O                -0.801008         -0.691137
   6         O                -0.688909         -0.579187
   7         O                -0.670029         -0.575689

 Normal termination of Gaussian 09 at Tue Dec 15 17:09:52 2015.
