 Gaussian 09, Revision D.01,
 Gaussian 09:  ES64L-G09RevD.01 24-Apr-2013

 ------------------------------------------------------------
 #P AM1(Input,print) CIS(Singlets,NStates=15) pop(full) force
 ------------------------------------------------------------

 -----------------
 AM1-Reparam Input
 -----------------
 Symbolic Z-matrix:
 Charge =  0 Multiplicity = 1

                         Standard orientation:
 ---------------------------------------------------------------------
 Center     Atomic      Atomic             Coordinates (Angstroms)
 Number     Number       Type             X           Y           Z
 ---------------------------------------------------------------------
      1          6           0       -0.019172    1.188053   -0.031530
      2          6           0        1.098895    0.359700    0.031743
      3          8           0        0.727362   -0.947149    0.002160
      4          6           0       -0.659023   -0.891027   -0.032035
      5          6           0       -1.176731    0.335006    0.033046
      6          1           0       -2.218232    0.574251    0.032953
      7          1           0       -1.151457   -1.871327   -0.002203
      8          1           0        2.139430    0.634543   -0.023351
      9          1           0       -0.052447    2.289335   -0.032020
 ---------------------------------------------------------------------

 SCF Done:  E(RAM1) =   2.03804488232     A.U. after   14 cycles

 Excitation energies and oscillator strengths:

 Excited State   1:      Singlet-A      5.3284 eV  232.69 nm  f=0.3392  <S**2>=0.000
      13 -> 14         0.69501
 This state for optimization and/or second-order correction.
 Total Energy, E(CIS) =   2.23385918244
 Copying the excited state density for this state as the 1-particle RhoCI density.

 Excited State   2:      Singlet-A      6.7189 eV  184.53 nm  f=0.0066  <S**2>=0.000
      12 -> 14         0.19151
      13 -> 15         0.62698
      13 -> 17         0.19391
      13 -> 18         0.12676

 Excited State   3:      Singlet-A      6.7266 eV  184.32 nm  f=0.0014  <S**2>=0.000
      12 -> 14         0.66454
      13 -> 15        -0.16508

 Excited State   4:      Singlet-A      6.8596 eV  180.75 nm  f=0.0059  <S**2>=0.000
      13 -> 16         0.63021
      13 -> 17         0.10596
      13 -> 18        -0.24601

 Excited State   5:      Singlet-A      7.8287 eV  158.37 nm  f=0.0108  <S**2>=0.000
      10 -> 14         0.64737
      11 -> 14        -0.22111

 Excited State   6:      Singlet-A      7.9598 eV  155.76 nm  f=0.0013  <S**2>=0.000
      10 -> 14        -0.14402
      11 -> 15        -0.10509
      13 -> 15        -0.14104
      13 -> 16         0.15327
      13 -> 17         0.23760
      13 -> 18         0.37916
      13 -> 19         0.29139
      13 -> 20        -0.29781
      13 -> 21         0.20287

 Excited State   7:      Singlet-A      8.6537 eV  143.27 nm  f=0.0210  <S**2>=0.000
      11 -> 16         0.14180
      13 -> 15        -0.14179
      13 -> 16        -0.11503
      13 -> 17         0.59627
      13 -> 19        -0.18002
      13 -> 20         0.18550

 Excited State   8:      Singlet-A      8.7031 eV  142.46 nm  f=0.1165  <S**2>=0.000
      10 -> 14         0.21752
      11 -> 14         0.65176

 Excited State   9:      Singlet-A      8.9833 eV  138.02 nm  f=0.0004  <S**2>=0.000
      13 -> 16        -0.16881
      13 -> 18        -0.43605
      13 -> 19         0.47418
      13 -> 20        -0.10777
      13 -> 21         0.10026

 Excited State  10:      Singlet-A      9.4455 eV  131.26 nm  f=0.0143  <S**2>=0.000
      10 -> 17         0.12490
      12 -> 15         0.22075
      12 -> 16        -0.16881
      12 -> 18         0.18991
      12 -> 19         0.11417
      13 -> 18         0.16944
      13 -> 19         0.28118
      13 -> 20         0.40636
      13 -> 21        -0.10217

 Excited State  11:      Singlet-A      9.4890 eV  130.66 nm  f=0.0228  <S**2>=0.000
       8 -> 15        -0.10518
      10 -> 15        -0.10331
      10 -> 16        -0.11431
      10 -> 17        -0.13613
      12 -> 15        -0.27101
      12 -> 16         0.18319
      12 -> 18        -0.20851
      12 -> 19        -0.11102
      13 -> 18         0.15101
      13 -> 19         0.25516
      13 -> 20         0.28498
      13 -> 21        -0.22867

 Excited State  12:      Singlet-A      9.8493 eV  125.88 nm  f=0.0645  <S**2>=0.000
      12 -> 15        -0.13765
      13 -> 20         0.31405
      13 -> 21         0.58528

 Excited State  13:      Singlet-A      9.9468 eV  124.65 nm  f=0.0585  <S**2>=0.000
      10 -> 16         0.17308
      12 -> 15         0.27619
      12 -> 16         0.51410
      12 -> 17         0.18697
      12 -> 18        -0.19041
      13 -> 21         0.12204

 Excited State  14:      Singlet-A     10.1402 eV  122.27 nm  f=0.1716  <S**2>=0.000
       8 -> 15         0.11981
       9 -> 16        -0.12570
      10 -> 15        -0.17818
      10 -> 16        -0.13398
      10 -> 17        -0.13306
      11 -> 15         0.24414
      11 -> 16         0.14163
      11 -> 17         0.10551
      12 -> 15         0.36041
      12 -> 16        -0.18448
      12 -> 17        -0.12826
      12 -> 19        -0.25493
      12 -> 21        -0.10005

 Excited State  15:      Singlet-A     10.2745 eV  120.67 nm  f=0.0159  <S**2>=0.000
       7 -> 16         0.10024
      10 -> 15         0.15372
      10 -> 16         0.10211
      11 -> 15         0.43945
      11 -> 16         0.34941
      11 -> 17         0.11302
      12 -> 15        -0.16727
      12 -> 18         0.11009
      12 -> 19         0.11574
      13 -> 16         0.12468

 The electronic state is 1-A.
 Alpha  occ. eigenvalues --   -1.92754  -1.19206  -0.94081  -0.81210  -0.78340
 Alpha  occ. eigenvalues --   -0.68325  -0.63951  -0.53460  -0.53028  -0.43690
 Alpha  occ. eigenvalues --   -0.43198  -0.40275  -0.28530
 Alpha virt. eigenvalues --    0.11694   0.19530   0.20376   0.26593   0.27768
 Alpha virt. eigenvalues --    0.29996   0.30923   0.31457   0.35364   0.44776
 Alpha virt. eigenvalues --    0.48318

 Mulliken charges:
               1
     1  C   -0.227130
     2  C   -2.020057
     3  O    3.174351
     4  C   -1.990161
     5  C   -0.170980
     6  H    0.246398
     7  H    0.361482
     8  H    0.375625
     9  H    0.250471
 Sum of Mulliken charges =   0.00000

 Dipole moment (field-independent basis, Debye):
    X=              6.1494    Y=             -8.6594    Z=             -0.0130  Tot=             10.6208
 N-N= 1.039686597597D+02 E-N=-1.692074551329D+02  KE=-1.545279417520D+01
 Orbital energies and kinetic energies (alpha):
                                 1                 2
   1         O                -1.927541         -1.371016
   2         O                -1.192059         -1.074376
   3         O                -0.940815         -0.873608
   4         O                -0.812101         -0.589060
   5         O                -0.783400         -0.672349
   6         O                -0.683253         -0.568833
   7         O                -0.639510         -0.519414

 Normal termination of Gaussian 09 at Tue Dec 15 17:07:16 2015.
