 Gaussian 09, Revision D.01,
 Gaussian 09:  ES64L-G09RevD.01 24-Apr-2013

 ------------------------------------------------------------
 #P AM1(Input,print) CIS(Singlets,NStates=15) pop(full) force
 ------------------------------------------------------------

 -----------------
 AM1-Reparam Input
 -----------------
 Symbolic Z-matrix:
 Charge =  0 Multiplicity = 1

                         Standard orientation:
 ---------------------------------------------------------------------
 Center     Atomic      Atomic             Coordinates (Angstroms)
 Number     Number       Type             X           Y           Z
 ---------------------------------------------------------------------
      1          6           0        0.910887    0.802540   -0.001698
      2          6           0        0.997376   -0.549908    0.016192
      3          8           0       -0.229411   -1.131440    0.005287
      4          6           0       -1.140191   -0.141281   -0.031029
      5          6           0       -0.524155    1.083897    0.002240
      6          1           0       -0.998771    2.070282    0.039637
      7          1           0       -2.167242   -0.445418    0.063473
      8          1           0        1.798177   -1.214087   -0.038172
      9          1           0        1.739618    1.469259   -0.021473
 ---------------------------------------------------------------------

 SCF Done:  E(RAM1) =   2.59927039317     A.U. after   13 cycles

 Excitation energies and oscillator strengths:

 Excited State   1:      Singlet-A      4.9971 eV  248.11 nm  f=0.3639  <S**2>=0.000
      13 -> 14         0.69911
 This state for optimization and/or second-order correction.
 Total Energy, E(CIS) =   2.78291186569
 Copying the excited state density for this state as the 1-particle RhoCI density.

 Excited State   2:      Singlet-A      6.1556 eV  201.42 nm  f=0.0000  <S**2>=0.000
      13 -> 15         0.65315
      13 -> 16        -0.13595
      13 -> 17         0.15009
      13 -> 19        -0.13553

 Excited State   3:      Singlet-A      6.4835 eV  191.23 nm  f=0.0049  <S**2>=0.000
      11 -> 15        -0.10045
      12 -> 14         0.14106
      13 -> 15         0.12877
      13 -> 16         0.65512
      13 -> 18        -0.11831

 Excited State   4:      Singlet-A      6.5260 eV  189.98 nm  f=0.0003  <S**2>=0.000
      12 -> 14         0.68456
      13 -> 16        -0.12726

 Excited State   5:      Singlet-A      7.4419 eV  166.60 nm  f=0.0065  <S**2>=0.000
      10 -> 14         0.69879

 Excited State   6:      Singlet-A      7.8039 eV  158.87 nm  f=0.0001  <S**2>=0.000
      13 -> 15        -0.13734
      13 -> 17         0.67016
      13 -> 21        -0.12442

 Excited State   7:      Singlet-A      8.4079 eV  147.46 nm  f=0.1309  <S**2>=0.000
      11 -> 14         0.69884

 Excited State   8:      Singlet-A      9.1982 eV  134.79 nm  f=0.0064  <S**2>=0.000
       7 -> 16        -0.10437
      11 -> 15        -0.31980
      13 -> 18         0.60438

 Excited State   9:      Singlet-A      9.3503 eV  132.60 nm  f=0.0625  <S**2>=0.000
       8 -> 16         0.12852
       9 -> 15         0.10317
      10 -> 16        -0.18646
      10 -> 18         0.15800
      12 -> 15         0.50580
      12 -> 16        -0.13101
      12 -> 17         0.31279

 Excited State  10:      Singlet-A      9.4303 eV  131.47 nm  f=0.0018  <S**2>=0.000
      11 -> 16        -0.28273
      13 -> 19         0.61670

 Excited State  11:      Singlet-A      9.8252 eV  126.19 nm  f=0.2389  <S**2>=0.000
       9 -> 15        -0.11189
      10 -> 15         0.19765
      10 -> 16         0.33945
      10 -> 18        -0.17655
      12 -> 15         0.40892
      12 -> 16         0.19963
      12 -> 17        -0.22755
      12 -> 19        -0.11040

 Excited State  12:      Singlet-A      9.9420 eV  124.71 nm  f=0.0716  <S**2>=0.000
      10 -> 15         0.31000
      10 -> 16        -0.29968
      10 -> 19        -0.12820
      12 -> 16         0.49128
      12 -> 17         0.11850

 Excited State  13:      Singlet-A     10.1696 eV  121.92 nm  f=0.0033  <S**2>=0.000
      11 -> 15         0.52688
      11 -> 16         0.26215
      13 -> 15         0.11908
      13 -> 18         0.26756
      13 -> 19         0.11435

 Excited State  14:      Singlet-A     10.2676 eV  120.75 nm  f=0.0024  <S**2>=0.000
       9 -> 14         0.21027
      11 -> 15        -0.25720
      11 -> 16         0.48887
      13 -> 16        -0.10875
      13 -> 18        -0.16754
      13 -> 19         0.22002

 Excited State  15:      Singlet-A     10.4475 eV  118.67 nm  f=0.0003  <S**2>=0.000
       9 -> 14         0.63765
      11 -> 16        -0.21113
      13 -> 19        -0.13825

 The electronic state is 1-A.
 Alpha  occ. eigenvalues --   -1.85174  -1.11498  -0.88313  -0.80015  -0.74619
 Alpha  occ. eigenvalues --   -0.67038  -0.63315  -0.55847  -0.54935  -0.45379
 Alpha  occ. eigenvalues --   -0.45120  -0.42819  -0.29911
 Alpha virt. eigenvalues --    0.08215   0.16486   0.17333   0.25176   0.27782
 Alpha virt. eigenvalues --    0.29286   0.35392   0.39446   0.48764   0.56317
 Alpha virt. eigenvalues --    0.60473

 Mulliken charges:
               1
     1  C   -0.167417
     2  C   -1.989062
     3  O    3.429655
     4  C   -2.001981
     5  C   -0.187400
     6  H    0.190677
     7  H    0.274198
     8  H    0.265668
     9  H    0.185661
 Sum of Mulliken charges =   0.00000

 Dipole moment (field-independent basis, Debye):
    X=             -2.2192    Y=            -11.0195    Z=              0.2694  Tot=             11.2440
 N-N= 1.039508858045D+02 E-N=-1.694743682391D+02  KE=-1.434923340980D+01
 Orbital energies and kinetic energies (alpha):
                                 1                 2
   1         O                -1.851736         -1.254239
   2         O                -1.114983         -0.956589
   3         O                -0.883134         -0.781406
   4         O                -0.800147         -0.550251
   5         O                -0.746186         -0.627356
   6         O                -0.670381         -0.535638
   7         O                -0.633153         -0.491492

 Normal termination of Gaussian 09 at Tue Dec 15 17:07:44 2015.
