 Gaussian 09, Revision D.01,
 Gaussian 09:  ES64L-G09RevD.01 24-Apr-2013

 ----------------------------
 #P AM1(Input,print) Opt Freq
 ----------------------------

 -----------------
 AM1-Reparam Input
 -----------------
 Symbolic Z-matrix:
 Charge =  0 Multiplicity = 1

 SCF Done:  E(RAM1) =   1.79187403637     A.U. after   13 cycles
 SCF Done:  E(RAM1) =   1.75516826266     A.U. after   11 cycles
 SCF Done:  E(RAM1) =   1.75282636868     A.U. after   11 cycles
 SCF Done:  E(RAM1) =   1.75299339710     A.U. after   11 cycles
 SCF Done:  E(RAM1) =   1.75221444038     A.U. after    8 cycles
 SCF Done:  E(RAM1) =   1.75202877657     A.U. after   10 cycles
 SCF Done:  E(RAM1) =   1.75202156891     A.U. after    9 cycles
 SCF Done:  E(RAM1) =   1.75201984107     A.U. after    9 cycles
 SCF Done:  E(RAM1) =   1.75201877623     A.U. after    8 cycles
 Optimization completed.
    -- Stationary point found.
 Normal termination of Gaussian 09 at Tue Dec  1 17:37:49 2015.

 -------------------------------------------------------------
 #P Geom=AllCheck Guess=TCheck SCRF=Check GenChk RAM1/ZDO Freq
 -------------------------------------------------------------

 Structure from the checkpoint file:  "/home/Applications/g09/scratch/Gau-23885.chk"
 -----------------
 AM1-Reparam Input
 -----------------
 Charge =  0 Multiplicity = 1

                         Standard orientation:
 ---------------------------------------------------------------------
 Center     Atomic      Atomic             Coordinates (Angstroms)
 Number     Number       Type             X           Y           Z
 ---------------------------------------------------------------------
      1          6           0       -0.678149    0.912031   -0.000035
      2          6           0       -1.080552   -0.322821    0.000140
      3          8           0       -0.001959   -1.141058   -0.000103
      4          6           0        1.079393   -0.326277    0.000045
      5          6           0        0.681336    0.909832    0.000253
      6          1           0        1.306460    1.792893   -0.000510
      7          1           0        2.055897   -0.752249   -0.000396
      8          1           0       -2.058288   -0.745922   -0.000033
      9          1           0       -1.300562    1.797159   -0.000656
 ---------------------------------------------------------------------

 SCF Done:  E(RAM1) =   1.75201877623     A.U. after    2 cycles

 The electronic state is 1-A.
 Alpha  occ. eigenvalues --   -1.58327  -1.12502  -0.93852  -0.86502  -0.81483
 Alpha  occ. eigenvalues --   -0.73502  -0.71374  -0.58537  -0.56182  -0.53704
 Alpha  occ. eigenvalues --   -0.51304  -0.48210  -0.40834
 Alpha virt. eigenvalues --    0.02918   0.07859   0.12698   0.13968   0.19244
 Alpha virt. eigenvalues --    0.20924   0.21526   0.39832   0.49350   0.60334
 Alpha virt. eigenvalues --    0.69781

 Mulliken charges:
               1
     1  C   -0.098945
     2  C    0.356157
     3  O   -0.287466
     4  C    0.356043
     5  C   -0.098826
     6  H   -0.023035
     7  H   -0.090449
     8  H   -0.090493
     9  H   -0.022986
 Sum of Mulliken charges =   0.00000

 Dipole moment (field-independent basis, Debye):
    X=              0.0005    Y=              0.4414    Z=              0.0004  Tot=              0.4414
 N-N= 1.049811132305D+02 E-N=-1.735463805774D+02  KE=-1.318552463975D+01
  Exact polarizability:  35.607   0.005  36.503  -0.002  -0.002   6.386
 Approx polarizability:  28.078   0.012  33.534  -0.002  -0.001   5.004
 Leave Link  601 at Tue Dec  1 17:37:49 2015, MaxMem=    33554432 cpu:         0.0
 (Enter /home/Applications/g09/g09/l701.exe)
 Compute integral second derivatives.
 ... and contract with generalized density number  0.
 Leave Link  701 at Tue Dec  1 17:37:49 2015, MaxMem=    33554432 cpu:         0.0
 (Enter /home/Applications/g09/g09/l702.exe)
 L702 exits ... SP integral derivatives will be done elsewhere.

                      1                      2                      3
                      A                      A                      A
 Frequencies --    649.4219               657.2305               773.5463
 Red. masses --      2.1593                 1.7725                 7.1200
 Frc consts  --      0.5366                 0.4511                 2.5102
 IR Inten    --      3.4065                 0.0001                 4.2977

                      4                      5                      6
                      A                      A                      A
 Frequencies --    838.0252               991.9205              1130.8356
 Red. masses --      7.7015                 1.1755                 1.0454
 Frc consts  --      3.1867                 0.6814                 0.7877
 IR Inten    --      0.0066                 3.6526                 5.8301

                      7                      8                      9
                      A                      A                      A
 Frequencies --   1132.1441              1155.2179              1171.0565
 Red. masses --      1.2949                 1.0973                 1.8065
 Frc consts  --      0.9779                 0.8628                 1.4596
 IR Inten    --      0.0003                 9.8587                33.1151

                     10                     11                     12
                      A                      A                      A
 Frequencies --   1183.5126              1250.7539              1340.1597
 Red. masses --      1.9286                 1.0812                 1.1695
 Frc consts  --      1.5916                 0.9965                 1.2376
 IR Inten    --      0.0017                 0.7412                 2.8390

                     13                     14                     15
                      A                      A                      A
 Frequencies --   1558.5220              1641.3151              1771.8104
 Red. masses --      7.9935                10.2142                 6.8515
 Frc consts  --     11.4397                16.2120                12.6727
 IR Inten    --     30.8632                 2.6633                36.6318

                     16                     17                     18
                      A                      A                      A
 Frequencies --   1945.8444              2016.5920              3276.1661
 Red. masses --      9.5608                 8.4780                 1.0779
 Frc consts  --     21.3284                20.3133                 6.8167
 IR Inten    --     52.3793                 2.2113                84.7739

                     19                     20                     21
                      A                      A                      A
 Frequencies --   3293.0175              3387.9260              3389.5725
 Red. masses --      1.0859                 1.0789                 1.0815
 Frc consts  --      6.9379                 7.2960                 7.3211
 IR Inten    --    146.4787                59.8078                 6.9735

 - Thermochemistry -
 -------------------
 Temperature   298.150 Kelvin.  Pressure   1.00000 Atm.
 Atom     1 has atomic number  6 and mass  12.00000

 Molecular mass:    68.02621 amu.
 Principal axes and moments of inertia in atomic units:
                           1         2         3
     Eigenvalues --   181.52212 182.25305 363.77516
           X            0.99957  -0.02949  -0.00001
           Y            0.02949   0.99957  -0.00004
           Z            0.00001   0.00004   1.00000
 This molecule is an asymmetric top.
 Rotational symmetry number  1.
 Rotational temperatures (Kelvin)      0.47715     0.47524     0.23810
 Rotational constants (GHZ):           9.94227     9.90239     4.96114
 Zero-point vibrational energy     206682.3 (Joules/Mol)
                                   49.39827 (Kcal/Mol)
 Vibrational temperatures:    934.37   945.61  1112.96  1205.73  1427.15
          (Kelvin)           1627.02  1628.90  1662.10  1684.89  1702.81
                             1799.55  1928.19  2242.36  2361.48  2549.24
                             2799.63  2901.42  4713.67  4737.91  4874.46
                             4876.83

 Zero-point correction=                           0.078721 (Hartree/Particle)
 Thermal correction to Energy=                    0.082145
 Thermal correction to Enthalpy=                  0.083090
 Thermal correction to Gibbs Free Energy=         0.052615
 Sum of electronic and zero-point Energies=              1.830740
 Sum of electronic and thermal Energies=                 1.834164
 Sum of electronic and thermal Enthalpies=               1.835108
 Sum of electronic and thermal Free Energies=            1.804634

                     E (Thermal)             CV                S
                      KCal/Mol        Cal/Mol-Kelvin    Cal/Mol-Kelvin
 Total                   51.547             11.124             64.139
 Electronic               0.000              0.000              0.000
 Translational            0.889              2.981             38.570
 Rotational               0.889              2.981             24.002
 Vibrational             49.770              5.163              1.567

 Optimization completed.
    -- Stationary point found.
 Normal termination of Gaussian 09 at Tue Dec  1 17:37:49 2015.
