 Gaussian 09, Revision D.01,
 Gaussian 09:  ES64L-G09RevD.01 24-Apr-2013

 ------------------------------------------------------------
 #P AM1(Input,print) CIS(Singlets,NStates=15) pop(full) force
 ------------------------------------------------------------

 -----------------
 AM1-Reparam Input
 -----------------
 Symbolic Z-matrix:
 Charge =  0 Multiplicity = 1

                         Standard orientation:
 ---------------------------------------------------------------------
 Center     Atomic      Atomic             Coordinates (Angstroms)
 Number     Number       Type             X           Y           Z
 ---------------------------------------------------------------------
      1          6           0        0.956267    0.768817   -0.033050
      2          6           0       -0.446032    1.036165    0.027912
      3          8           0       -1.161625   -0.059223   -0.012288
      4          6           0       -0.315899   -1.090225   -0.000004
      5          6           0        1.029584   -0.673188   -0.002364
      6          1           0        1.929279   -1.218888    0.064128
      7          1           0       -0.770907   -2.058547    0.023451
      8          1           0       -0.921401    2.023070    0.013819
      9          1           0        1.712513    1.478739    0.041936
 ---------------------------------------------------------------------

 SCF Done:  E(RAM1) =  0.241273529528E-01 A.U. after   14 cycles

 Excitation energies and oscillator strengths:

 Excited State   1:      Singlet-A      4.2313 eV  293.02 nm  f=0.0838  <S**2>=0.000
      12 -> 15         0.21368
      13 -> 14         0.66468
 This state for optimization and/or second-order correction.
 Total Energy, E(CIS) =  0.179623678307
 Copying the excited state density for this state as the 1-particle RhoCI density.

 Excited State   2:      Singlet-A      4.5994 eV  269.56 nm  f=0.0036  <S**2>=0.000
      12 -> 14         0.11838
      13 -> 15        -0.22837
      13 -> 16         0.63534
      13 -> 22        -0.11468

 Excited State   3:      Singlet-A      4.7156 eV  262.92 nm  f=0.0164  <S**2>=0.000
      12 -> 14        -0.34854
      13 -> 15         0.55497
      13 -> 16         0.25211

 Excited State   4:      Singlet-A      5.5804 eV  222.18 nm  f=0.0018  <S**2>=0.000
      12 -> 18         0.11840
      12 -> 19         0.15113
      12 -> 20         0.13383
      13 -> 17         0.40388
      13 -> 18         0.40143
      13 -> 19         0.12198
      13 -> 20         0.17813
      13 -> 23         0.18948

 Excited State   5:      Singlet-A      5.7280 eV  216.45 nm  f=0.0016  <S**2>=0.000
      12 -> 17         0.21150
      12 -> 18         0.13322
      12 -> 19        -0.14051
      12 -> 23         0.11360
      13 -> 17        -0.23849
      13 -> 19         0.47844
      13 -> 20         0.24787
      13 -> 23        -0.11725

 Excited State   6:      Singlet-A      6.0087 eV  206.34 nm  f=0.3172  <S**2>=0.000
      12 -> 14         0.53764
      12 -> 16         0.21760
      13 -> 15         0.32449

 Excited State   7:      Singlet-A      6.0886 eV  203.63 nm  f=0.1185  <S**2>=0.000
      12 -> 14         0.13179
      12 -> 15         0.52929
      12 -> 16        -0.35988
      13 -> 14        -0.15696

 Excited State   8:      Singlet-A      6.1622 eV  201.20 nm  f=0.0941  <S**2>=0.000
       7 -> 16        -0.11599
      12 -> 14        -0.14327
      12 -> 15         0.39158
      12 -> 16         0.49399
      13 -> 14        -0.12320

 Excited State   9:      Singlet-A      6.3989 eV  193.76 nm  f=0.0003  <S**2>=0.000
      11 -> 14        -0.11153
      13 -> 17        -0.35656
      13 -> 18         0.51711
      13 -> 19        -0.20103

 Excited State  10:      Singlet-A      6.8088 eV  182.09 nm  f=0.0028  <S**2>=0.000
       9 -> 14         0.17858
      10 -> 14         0.17787
      10 -> 15         0.12879
      11 -> 14         0.52017
      11 -> 15         0.33485

 Excited State  11:      Singlet-A      6.8734 eV  180.38 nm  f=0.0013  <S**2>=0.000
      12 -> 17        -0.23410
      12 -> 18         0.46531
      12 -> 20        -0.12849
      12 -> 21         0.24935
      12 -> 23        -0.16417
      13 -> 18        -0.11016
      13 -> 19        -0.16882
      13 -> 20         0.15094
      13 -> 21         0.14419
      13 -> 22        -0.14384

 Excited State  12:      Singlet-A      7.1248 eV  174.02 nm  f=0.0025  <S**2>=0.000
       9 -> 14         0.13993
      10 -> 14        -0.24315
      10 -> 15         0.24186
      11 -> 14         0.15173
      11 -> 15        -0.23845
      12 -> 17         0.17731
      12 -> 19        -0.15092
      12 -> 21        -0.18726
      12 -> 23         0.10989
      13 -> 19        -0.24426
      13 -> 20         0.27486
      13 -> 22        -0.11153

 Excited State  13:      Singlet-A      7.2452 eV  171.13 nm  f=0.0015  <S**2>=0.000
       9 -> 14        -0.17001
      10 -> 14         0.34926
      10 -> 15        -0.21634
      11 -> 14        -0.10692
      11 -> 15         0.22995
      12 -> 17         0.11516
      12 -> 20         0.11162
      12 -> 21        -0.16408
      13 -> 19        -0.23560
      13 -> 20         0.26797
      13 -> 22        -0.11665

 Excited State  14:      Singlet-A      7.3379 eV  168.96 nm  f=0.0031  <S**2>=0.000
      12 -> 17        -0.22868
      12 -> 18        -0.18302
      12 -> 19         0.34175
      12 -> 20         0.12418
      12 -> 22        -0.14043
      13 -> 17        -0.20989
      13 -> 21         0.14534
      13 -> 22        -0.32808
      13 -> 24        -0.19070

 Excited State  15:      Singlet-A      7.4228 eV  167.03 nm  f=0.0016  <S**2>=0.000
      12 -> 17         0.30730
      12 -> 18         0.26445
      12 -> 19         0.23685
      12 -> 20         0.14854
      13 -> 20        -0.20348
      13 -> 21         0.25775
      13 -> 22         0.16046
      13 -> 23        -0.11626
      13 -> 24        -0.16999

 The electronic state is 1-A.
 Alpha  occ. eigenvalues --   -1.58911  -1.23305  -1.08714  -0.83565  -0.81448
 Alpha  occ. eigenvalues --   -0.69042  -0.62025  -0.57800  -0.51972  -0.50098
 Alpha  occ. eigenvalues --   -0.48398  -0.38572  -0.33586
 Alpha virt. eigenvalues --    0.03042   0.05656   0.09540   0.14106   0.14816
 Alpha virt. eigenvalues --    0.15566   0.17933   0.18245   0.19158   0.20922
 Alpha virt. eigenvalues --    0.22865

 Mulliken charges:
               1
     1  C   -0.219143
     2  C   -0.137607
     3  O   -0.014435
     4  C   -0.137897
     5  C   -0.189865
     6  H    0.162766
     7  H    0.186445
     8  H    0.190362
     9  H    0.159373
 Sum of Mulliken charges =   0.00000

 Dipole moment (field-independent basis, Debye):
    X=              0.1071    Y=              0.0897    Z=              0.1354  Tot=              0.1946
 N-N= 1.034020197897D+02 E-N=-1.708321598029D+02  KE=-1.657490591169D+01
 Orbital energies and kinetic energies (alpha):
                                 1                 2
   1         O                -1.589107         -1.313727
   2         O                -1.233052         -1.061618
   3         O                -1.087136         -0.946433
   4         O                -0.835650         -0.713009
   5         O                -0.814477         -0.725721
   6         O                -0.690421         -0.603673
   7         O                -0.620255         -0.493558

 Normal termination of Gaussian 09 at Tue Dec 15 16:11:17 2015.
