 Gaussian 09, Revision D.01,
 Gaussian 09:  ES64L-G09RevD.01 24-Apr-2013

 ------------------------------------------------------------
 #P AM1(Input,print) CIS(Singlets,NStates=15) pop(full) force
 ------------------------------------------------------------

 -----------------
 AM1-Reparam Input
 -----------------
 Symbolic Z-matrix:
 Charge =  0 Multiplicity = 1

                         Standard orientation:
 ---------------------------------------------------------------------
 Center     Atomic      Atomic             Coordinates (Angstroms)
 Number     Number       Type             X           Y           Z
 ---------------------------------------------------------------------
      1          6           0       -1.137190    0.380335    0.010335
      2          6           0       -0.696027   -0.885175   -0.005211
      3          8           0        0.690219   -0.967181    0.003865
      4          6           0        1.061751    0.335255   -0.003555
      5          6           0        0.039693    1.178220   -0.013275
      6          1           0        0.091382    2.257813   -0.001811
      7          1           0        2.232895    0.449551    0.037523
      8          1           0       -1.277352   -1.790679   -0.025039
      9          1           0       -2.178041    0.768954    0.028640
 ---------------------------------------------------------------------

 SCF Done:  E(RAM1) =   2.56340168601     A.U. after   14 cycles

 Excitation energies and oscillator strengths:

 Excited State   1:      Singlet-A      5.3610 eV  231.27 nm  f=0.3440  <S**2>=0.000
      13 -> 14         0.69615
 This state for optimization and/or second-order correction.
 Total Energy, E(CIS) =   2.76041526871
 Copying the excited state density for this state as the 1-particle RhoCI density.

 Excited State   2:      Singlet-A      5.7191 eV  216.79 nm  f=0.0004  <S**2>=0.000
      13 -> 15         0.68152

 Excited State   3:      Singlet-A      6.4500 eV  192.22 nm  f=0.0015  <S**2>=0.000
      13 -> 16         0.66619
      13 -> 17        -0.11347
      13 -> 18        -0.10651
      13 -> 19         0.10435

 Excited State   4:      Singlet-A      6.8702 eV  180.47 nm  f=0.0001  <S**2>=0.000
      12 -> 14         0.69826

 Excited State   5:      Singlet-A      7.8033 eV  158.89 nm  f=0.0053  <S**2>=0.000
      10 -> 14         0.14029
      11 -> 14        -0.18632
      13 -> 17         0.45013
      13 -> 18        -0.39504
      13 -> 19         0.12470
      13 -> 21        -0.22881

 Excited State   6:      Singlet-A      7.9234 eV  156.48 nm  f=0.0064  <S**2>=0.000
      10 -> 14        -0.30483
      11 -> 14         0.43577
      13 -> 17        -0.16098
      13 -> 18        -0.36935
      13 -> 21        -0.18075

 Excited State   7:      Singlet-A      8.0914 eV  153.23 nm  f=0.0022  <S**2>=0.000
      10 -> 14        -0.22828
      11 -> 14         0.32335
      13 -> 17         0.47669
      13 -> 18         0.27846
      13 -> 21         0.11012

 Excited State   8:      Singlet-A      8.7611 eV  141.52 nm  f=0.0375  <S**2>=0.000
       8 -> 15         0.13351
      10 -> 14         0.32480
      11 -> 14         0.23957
      12 -> 15         0.38651
      13 -> 19        -0.36086

 Excited State   9:      Singlet-A      8.7659 eV  141.44 nm  f=0.0154  <S**2>=0.000
      10 -> 14         0.21480
      11 -> 14         0.12369
      12 -> 15         0.26199
      13 -> 18         0.12560
      13 -> 19         0.55646

 Excited State  10:      Singlet-A      8.9730 eV  138.17 nm  f=0.1513  <S**2>=0.000
       8 -> 16         0.10015
      10 -> 14        -0.38333
      11 -> 14        -0.27548
      12 -> 15         0.39237
      12 -> 16        -0.21453
      12 -> 18         0.12758

 Excited State  11:      Singlet-A      9.3648 eV  132.39 nm  f=0.0083  <S**2>=0.000
       7 -> 15        -0.12781
      10 -> 15         0.45200
      11 -> 15         0.40215
      13 -> 15        -0.13430
      13 -> 18         0.14316
      13 -> 21        -0.22618

 Excited State  12:      Singlet-A      9.4261 eV  131.53 nm  f=0.0226  <S**2>=0.000
       9 -> 15         0.19137
      10 -> 14        -0.10306
      10 -> 15         0.22820
      10 -> 17        -0.14568
      11 -> 15        -0.27830
      11 -> 17         0.19206
      12 -> 15         0.22444
      12 -> 16         0.29870
      12 -> 18        -0.24991

 Excited State  13:      Singlet-A      9.5039 eV  130.46 nm  f=0.0002  <S**2>=0.000
      10 -> 15         0.22244
      11 -> 15         0.16130
      13 -> 18        -0.26451
      13 -> 21         0.57909

 Excited State  14:      Singlet-A      9.7425 eV  127.26 nm  f=0.1014  <S**2>=0.000
      13 -> 20         0.67562

 Excited State  15:      Singlet-A      9.8727 eV  125.58 nm  f=0.0833  <S**2>=0.000
       8 -> 15         0.15862
       8 -> 16        -0.14037
       9 -> 15        -0.18440
      10 -> 14        -0.11988
      10 -> 15        -0.21066
      11 -> 15         0.21003
      12 -> 16         0.46062

 The electronic state is 1-A.
 Alpha  occ. eigenvalues --   -1.73033  -1.16458  -0.93667  -0.79986  -0.75430
 Alpha  occ. eigenvalues --   -0.66733  -0.64153  -0.52722  -0.49608  -0.42985
 Alpha  occ. eigenvalues --   -0.42806  -0.39449  -0.27469
 Alpha virt. eigenvalues --    0.12953   0.15273   0.19337   0.26553   0.28114
 Alpha virt. eigenvalues --    0.30232   0.32283   0.33979   0.39074   0.49039
 Alpha virt. eigenvalues --    0.52294

 Mulliken charges:
               1
     1  C   -0.045213
     2  C   -1.920096
     3  O    3.211867
     4  C   -1.889701
     5  C   -0.085753
     6  H    0.111641
     7  H    0.247499
     8  H    0.261872
     9  H    0.107883
 Sum of Mulliken charges =   0.00000

 Dipole moment (field-independent basis, Debye):
    X=              6.7260    Y=             -9.1387    Z=              0.1633  Tot=             11.3482
 N-N= 1.036728671349D+02 E-N=-1.687167873687D+02  KE=-1.501212891036D+01
 Orbital energies and kinetic energies (alpha):
                                 1                 2
   1         O                -1.730325         -1.227995
   2         O                -1.164585         -1.026986
   3         O                -0.936674         -0.869912
   4         O                -0.799863         -0.597045
   5         O                -0.754304         -0.673772
   6         O                -0.667330         -0.573254
   7         O                -0.641533         -0.528122

 Normal termination of Gaussian 09 at Tue Dec 15 17:06:23 2015.
