 Gaussian 09, Revision D.01,
 Gaussian 09:  ES64L-G09RevD.01 24-Apr-2013

 ------------------------------------------------------------
 #P AM1(Input,print) CIS(Singlets,NStates=15) pop(full) force
 ------------------------------------------------------------

 -----------------
 AM1-Reparam Input
 -----------------
 Symbolic Z-matrix:
 Charge =  0 Multiplicity = 1

                         Standard orientation:
 ---------------------------------------------------------------------
 Center     Atomic      Atomic             Coordinates (Angstroms)
 Number     Number       Type             X           Y           Z
 ---------------------------------------------------------------------
      1          6           0       -0.695082    0.999306   -0.007815
      2          6           0       -1.097835   -0.365665    0.016671
      3          8           0       -0.007775   -1.141947    0.000639
      4          6           0        1.078678   -0.372664   -0.009648
      5          6           0        0.747365    0.946265   -0.004641
      6          1           0        1.357938    1.753186    0.037363
      7          1           0        1.990748   -0.858447    0.020310
      8          1           0       -2.098460   -0.798087   -0.038623
      9          1           0       -1.386778    1.795466    0.008438
 ---------------------------------------------------------------------

 SCF Done:  E(RAM1) =   2.09769017536     A.U. after   13 cycles

 Excitation energies and oscillator strengths:

 Excited State   1:      Singlet-A      5.5770 eV  222.31 nm  f=0.3600  <S**2>=0.000
      13 -> 14         0.69526
 This state for optimization and/or second-order correction.
 Total Energy, E(CIS) =   2.30264235235
 Copying the excited state density for this state as the 1-particle RhoCI density.

 Excited State   2:      Singlet-A      6.7538 eV  183.58 nm  f=0.0057  <S**2>=0.000
      11 -> 16         0.11035
      13 -> 15         0.66864
      13 -> 17         0.18393

 Excited State   3:      Singlet-A      6.9842 eV  177.52 nm  f=0.0000  <S**2>=0.000
      11 -> 15         0.13315
      13 -> 16         0.65888
      13 -> 18        -0.14365
      13 -> 19         0.14172

 Excited State   4:      Singlet-A      7.3235 eV  169.30 nm  f=0.0005  <S**2>=0.000
      12 -> 14         0.69724

 Excited State   5:      Singlet-A      8.1488 eV  152.15 nm  f=0.0062  <S**2>=0.000
      10 -> 14         0.68507
      11 -> 14        -0.11087

 Excited State   6:      Singlet-A      8.3447 eV  148.58 nm  f=0.0001  <S**2>=0.000
      11 -> 15         0.11688
      13 -> 16         0.12025
      13 -> 17         0.10830
      13 -> 18         0.55138
      13 -> 20         0.20284
      13 -> 21        -0.32304

 Excited State   7:      Singlet-A      8.7766 eV  141.27 nm  f=0.0132  <S**2>=0.000
      11 -> 16        -0.16409
      13 -> 15        -0.14067
      13 -> 17         0.64628
      13 -> 18        -0.12356

 Excited State   8:      Singlet-A      8.8790 eV  139.64 nm  f=0.1175  <S**2>=0.000
      10 -> 14         0.11399
      11 -> 14         0.67966

 Excited State   9:      Singlet-A      9.4031 eV  131.86 nm  f=0.0006  <S**2>=0.000
      11 -> 15        -0.14717
      13 -> 16        -0.10114
      13 -> 19         0.67497

 Excited State  10:      Singlet-A      9.7885 eV  126.66 nm  f=0.0050  <S**2>=0.000
      13 -> 18         0.37743
      13 -> 20        -0.40103
      13 -> 21         0.42568

 Excited State  11:      Singlet-A      9.9816 eV  124.21 nm  f=0.0147  <S**2>=0.000
       8 -> 15        -0.16627
       9 -> 16         0.12733
      10 -> 15         0.30961
      10 -> 17         0.25417
      12 -> 16         0.38245
      12 -> 18        -0.29677

 Excited State  12:      Singlet-A     10.1449 eV  122.21 nm  f=0.0705  <S**2>=0.000
      11 -> 15        -0.28935
      11 -> 16         0.20134
      13 -> 20         0.44950
      13 -> 21         0.36250

 Excited State  13:      Singlet-A     10.2177 eV  121.34 nm  f=0.0307  <S**2>=0.000
      11 -> 15         0.54841
      12 -> 15         0.10224
      13 -> 16        -0.14866
      13 -> 20         0.23055
      13 -> 21         0.23749

 Excited State  14:      Singlet-A     10.2893 eV  120.50 nm  f=0.0413  <S**2>=0.000
      10 -> 16        -0.16629
      11 -> 15        -0.10245
      12 -> 15         0.58695
      12 -> 16         0.17184
      12 -> 17         0.12085

 Excited State  15:      Singlet-A     10.4146 eV  119.05 nm  f=0.2004  <S**2>=0.000
       9 -> 16        -0.10344
      10 -> 15        -0.39627
      10 -> 16         0.17136
      10 -> 17        -0.15127
      12 -> 15        -0.16412
      12 -> 16         0.44718
      12 -> 19         0.11076

 The electronic state is 1-A.
 Alpha  occ. eigenvalues --   -1.94693  -1.18663  -0.93664  -0.81995  -0.78259
 Alpha  occ. eigenvalues --   -0.70149  -0.66374  -0.56255  -0.54140  -0.46076
 Alpha  occ. eigenvalues --   -0.44883  -0.43359  -0.30632
 Alpha virt. eigenvalues --    0.10444   0.17644   0.18276   0.25452   0.27392
 Alpha virt. eigenvalues --    0.28981   0.30164   0.31228   0.33692   0.41512
 Alpha virt. eigenvalues --    0.46513

 Mulliken charges:
               1
     1  C   -0.141044
     2  C   -1.932115
     3  O    3.217611
     4  C   -1.896511
     5  C   -0.119984
     6  H    0.157587
     7  H    0.269940
     8  H    0.282850
     9  H    0.161667
 Sum of Mulliken charges =   0.00000

 Dipole moment (field-independent basis, Debye):
    X=             -0.0161    Y=            -10.0525    Z=             -0.0456  Tot=             10.0526
 N-N= 1.042866940853D+02 E-N=-1.694387575543D+02  KE=-1.535643030719D+01
 Orbital energies and kinetic energies (alpha):
                                 1                 2
   1         O                -1.946931         -1.382383
   2         O                -1.186630         -1.044752
   3         O                -0.936642         -0.877646
   4         O                -0.819953         -0.585545
   5         O                -0.782588         -0.677930
   6         O                -0.701487         -0.597894
   7         O                -0.663737         -0.522262

 Normal termination of Gaussian 09 at Tue Dec 15 17:09:28 2015.
