 Gaussian 09, Revision D.01,
 Gaussian 09:  ES64L-G09RevD.01 24-Apr-2013

 ------------------------------------------------------------
 #P AM1(Input,print) CIS(Singlets,NStates=15) pop(full) force
 ------------------------------------------------------------

 -----------------
 AM1-Reparam Input
 -----------------
 Symbolic Z-matrix:
 Charge =  0 Multiplicity = 1

                         Standard orientation:
 ---------------------------------------------------------------------
 Center     Atomic      Atomic             Coordinates (Angstroms)
 Number     Number       Type             X           Y           Z
 ---------------------------------------------------------------------
      1          6           0        0.910887    0.802540   -0.001698
      2          6           0        0.997376   -0.549908    0.016192
      3          8           0       -0.229411   -1.131440    0.005287
      4          6           0       -1.140191   -0.141281   -0.031029
      5          6           0       -0.524155    1.083897    0.002240
      6          1           0       -0.998771    2.070282    0.039637
      7          1           0       -2.167242   -0.445418    0.063473
      8          1           0        1.798177   -1.214087   -0.038172
      9          1           0        1.739618    1.469259   -0.021473
 ---------------------------------------------------------------------

 SCF Done:  E(RAM1) =   1.10104133368     A.U. after   14 cycles

 Excitation energies and oscillator strengths:

 Excited State   1:      Singlet-A      5.4538 eV  227.34 nm  f=0.2140  <S**2>=0.000
      12 -> 15        -0.13213
      13 -> 14         0.68147
 This state for optimization and/or second-order correction.
 Total Energy, E(CIS) =   1.30146471874
 Copying the excited state density for this state as the 1-particle RhoCI density.

 Excited State   2:      Singlet-A      6.5319 eV  189.81 nm  f=0.0057  <S**2>=0.000
      13 -> 16         0.67273
      13 -> 19        -0.14837

 Excited State   3:      Singlet-A      6.8431 eV  181.18 nm  f=0.0019  <S**2>=0.000
      12 -> 14         0.15675
      13 -> 15         0.35271
      13 -> 17         0.54053
      13 -> 18        -0.15459
      13 -> 21         0.14072

 Excited State   4:      Singlet-A      6.9912 eV  177.34 nm  f=0.0030  <S**2>=0.000
      12 -> 14         0.40311
      13 -> 15         0.42861
      13 -> 17        -0.35332

 Excited State   5:      Singlet-A      7.3387 eV  168.95 nm  f=0.0002  <S**2>=0.000
       9 -> 14         0.17447
      11 -> 14         0.67902

 Excited State   6:      Singlet-A      7.9538 eV  155.88 nm  f=0.0040  <S**2>=0.000
      10 -> 14         0.67980
      11 -> 15         0.12674

 Excited State   7:      Singlet-A      8.0294 eV  154.41 nm  f=0.2806  <S**2>=0.000
      12 -> 14         0.53602
      13 -> 15        -0.39852
      13 -> 18        -0.10770

 Excited State   8:      Singlet-A      8.1765 eV  151.63 nm  f=0.0076  <S**2>=0.000
      12 -> 16         0.18743
      13 -> 17         0.15484
      13 -> 18         0.61970
      13 -> 22         0.16192
      13 -> 23        -0.10682

 Excited State   9:      Singlet-A      8.6515 eV  143.31 nm  f=0.0047  <S**2>=0.000
      12 -> 16         0.64334
      13 -> 18        -0.15586

 Excited State  10:      Singlet-A      8.6635 eV  143.11 nm  f=0.0003  <S**2>=0.000
      13 -> 20         0.66396
      13 -> 23         0.12153

 Excited State  11:      Singlet-A      8.7605 eV  141.53 nm  f=0.0476  <S**2>=0.000
       6 -> 15         0.10390
       9 -> 15        -0.25901
      10 -> 14        -0.13612
      11 -> 15         0.53735
      11 -> 17        -0.11668
      12 -> 15        -0.27460

 Excited State  12:      Singlet-A      8.8563 eV  140.00 nm  f=0.1279  <S**2>=0.000
       8 -> 16        -0.10060
       9 -> 17         0.14282
      11 -> 15         0.25361
      12 -> 15         0.54555
      12 -> 17         0.15074
      13 -> 14         0.10836
      13 -> 19         0.13745

 Excited State  13:      Singlet-A      9.0193 eV  137.47 nm  f=0.0359  <S**2>=0.000
      12 -> 15        -0.15397
      12 -> 17         0.55120
      13 -> 19         0.33943

 Excited State  14:      Singlet-A      9.3201 eV  133.03 nm  f=0.0073  <S**2>=0.000
       9 -> 14         0.61776
      11 -> 14        -0.16232
      11 -> 16        -0.16358
      13 -> 21         0.13781

 Excited State  15:      Singlet-A      9.4558 eV  131.12 nm  f=0.0302  <S**2>=0.000
       9 -> 14         0.16045
       9 -> 16        -0.25879
      10 -> 17         0.20187
      11 -> 16         0.49750
      11 -> 19        -0.13015
      13 -> 21         0.19655

 The electronic state is 1-A.
 Alpha  occ. eigenvalues --   -1.83279  -1.18305  -0.99496  -0.87792  -0.80385
 Alpha  occ. eigenvalues --   -0.74046  -0.71622  -0.60802  -0.55795  -0.52556
 Alpha  occ. eigenvalues --   -0.50134  -0.47440  -0.38136
 Alpha virt. eigenvalues --    0.03066   0.09832   0.10278   0.11299   0.18366
 Alpha virt. eigenvalues --    0.19134   0.20194   0.21480   0.26576   0.27046
 Alpha virt. eigenvalues --    0.27693

 Mulliken charges:
               1
     1  C   -0.111656
     2  C   -1.247491
     3  O    2.135733
     4  C   -1.249818
     5  C   -0.138100
     6  H    0.112343
     7  H    0.200840
     8  H    0.191684
     9  H    0.106464
 Sum of Mulliken charges =   0.00000

 Dipole moment (field-independent basis, Debye):
    X=             -1.4424    Y=             -6.9889    Z=              0.1712  Tot=              7.1383
 N-N= 1.043057627650D+02 E-N=-1.710286317772D+02  KE=-1.498507109509D+01
 Orbital energies and kinetic energies (alpha):
                                 1                 2
   1         O                -1.832794         -1.247129
   2         O                -1.183052         -0.962058
   3         O                -0.994957         -0.809554
   4         O                -0.877917         -0.641945
   5         O                -0.803851         -0.677597
   6         O                -0.740457         -0.588093
   7         O                -0.716220         -0.510217

 Normal termination of Gaussian 09 at Tue Dec 15 17:05:42 2015.
