 Gaussian 09, Revision D.01,
 Gaussian 09:  ES64L-G09RevD.01 24-Apr-2013

 ------------------------------------------------------------
 #P AM1(Input,print) CIS(Singlets,NStates=15) pop(full) force
 ------------------------------------------------------------

 -----------------
 AM1-Reparam Input
 -----------------
 Symbolic Z-matrix:
 Charge =  0 Multiplicity = 1

                         Standard orientation:
 ---------------------------------------------------------------------
 Center     Atomic      Atomic             Coordinates (Angstroms)
 Number     Number       Type             X           Y           Z
 ---------------------------------------------------------------------
      1          6           0       -0.619851    1.030034    0.007988
      2          6           0       -1.102430   -0.219413   -0.030448
      3          8           0       -0.134311   -1.166405    0.029321
      4          6           0        1.027502   -0.459811   -0.018884
      5          6           0        0.840039    0.864140    0.005937
      6          1           0        1.535831    1.716008   -0.021504
      7          1           0        1.951865   -1.049190   -0.017593
      8          1           0       -2.137643   -0.600521   -0.033458
      9          1           0       -1.147130    1.975245    0.050430
 ---------------------------------------------------------------------

 SCF Done:  E(RAM1) =   2.54362068436     A.U. after   13 cycles

 Excitation energies and oscillator strengths:

 Excited State   1:      Singlet-A      5.1853 eV  239.10 nm  f=0.3584  <S**2>=0.000
      13 -> 14         0.69752
 This state for optimization and/or second-order correction.
 Total Energy, E(CIS) =   2.73417861653
 Copying the excited state density for this state as the 1-particle RhoCI density.

 Excited State   2:      Singlet-A      6.0675 eV  204.34 nm  f=0.0003  <S**2>=0.000
      13 -> 15         0.65516
      13 -> 16        -0.13430
      13 -> 18         0.12522
      13 -> 19        -0.12700

 Excited State   3:      Singlet-A      6.2062 eV  199.78 nm  f=0.0022  <S**2>=0.000
      13 -> 15         0.13768
      13 -> 16         0.65859
      13 -> 17        -0.14488

 Excited State   4:      Singlet-A      6.6106 eV  187.55 nm  f=0.0003  <S**2>=0.000
      12 -> 14         0.69930

 Excited State   5:      Singlet-A      7.6160 eV  162.80 nm  f=0.0001  <S**2>=0.000
      13 -> 15        -0.12948
      13 -> 17        -0.18952
      13 -> 18         0.58151
      13 -> 21         0.30112

 Excited State   6:      Singlet-A      7.9362 eV  156.23 nm  f=0.0112  <S**2>=0.000
      10 -> 14         0.51145
      13 -> 16        -0.10335
      13 -> 17        -0.43639
      13 -> 18        -0.14210

 Excited State   7:      Singlet-A      8.1321 eV  152.46 nm  f=0.0019  <S**2>=0.000
      10 -> 14         0.47051
      13 -> 17         0.48295
      13 -> 18         0.13589

 Excited State   8:      Singlet-A      8.6840 eV  142.77 nm  f=0.0002  <S**2>=0.000
      13 -> 19         0.68409

 Excited State   9:      Singlet-A      8.7481 eV  141.73 nm  f=0.0815  <S**2>=0.000
      10 -> 14         0.10153
      11 -> 14         0.66528
      12 -> 16         0.13282

 Excited State  10:      Singlet-A      9.0693 eV  136.71 nm  f=0.1404  <S**2>=0.000
       8 -> 16         0.14907
      10 -> 17         0.15163
      12 -> 15         0.52865
      12 -> 16        -0.23665
      12 -> 18         0.25491

 Excited State  11:      Singlet-A      9.2727 eV  133.71 nm  f=0.0018  <S**2>=0.000
      13 -> 18        -0.29840
      13 -> 21         0.62372

 Excited State  12:      Singlet-A      9.5456 eV  129.89 nm  f=0.1051  <S**2>=0.000
      11 -> 15        -0.12610
      13 -> 20         0.67044

 Excited State  13:      Singlet-A      9.6118 eV  128.99 nm  f=0.0636  <S**2>=0.000
       8 -> 15         0.10775
      10 -> 15         0.11961
      11 -> 14        -0.16575
      12 -> 15         0.27504
      12 -> 16         0.55911
      13 -> 20        -0.10975

 Excited State  14:      Singlet-A      9.8489 eV  125.89 nm  f=0.0949  <S**2>=0.000
       9 -> 15         0.14394
      10 -> 15        -0.12088
      10 -> 16        -0.23956
      10 -> 17         0.24764
      11 -> 15         0.22061
      11 -> 16         0.11403
      12 -> 15        -0.21445
      12 -> 16         0.20296
      12 -> 18         0.34031
      12 -> 19         0.10970
      12 -> 21         0.11969

 Excited State  15:      Singlet-A      9.9164 eV  125.03 nm  f=0.0139  <S**2>=0.000
       7 -> 15         0.13123
      10 -> 15         0.12997
      10 -> 16         0.14992
      11 -> 15         0.44337
      11 -> 16         0.40309
      12 -> 15         0.13997
      13 -> 15         0.12743

 The electronic state is 1-A.
 Alpha  occ. eigenvalues --   -1.73750  -1.15165  -0.94620  -0.80453  -0.75776
 Alpha  occ. eigenvalues --   -0.67030  -0.64254  -0.53690  -0.49638  -0.44121
 Alpha  occ. eigenvalues --   -0.43492  -0.39556  -0.27442
 Alpha virt. eigenvalues --    0.11776   0.17363   0.17781   0.26609   0.27390
 Alpha virt. eigenvalues --    0.29764   0.31448   0.32782   0.39779   0.49457
 Alpha virt. eigenvalues --    0.53209

 Mulliken charges:
               1
     1  C   -0.075814
     2  C   -1.907479
     3  O    3.213907
     4  C   -1.907294
     5  C   -0.066173
     6  H    0.112958
     7  H    0.259299
     8  H    0.257808
     9  H    0.112788
 Sum of Mulliken charges =   0.00000

 Dipole moment (field-independent basis, Debye):
    X=             -1.2645    Y=            -10.9069    Z=              0.7345  Tot=             11.0044
 N-N= 1.036493518015D+02 E-N=-1.686195533692D+02  KE=-1.501215824109D+01
 Orbital energies and kinetic energies (alpha):
                                 1                 2
   1         O                -1.737496         -1.236235
   2         O                -1.151654         -1.013835
   3         O                -0.946200         -0.863325
   4         O                -0.804531         -0.608341
   5         O                -0.757764         -0.685135
   6         O                -0.670301         -0.568703
   7         O                -0.642543         -0.523401

 Normal termination of Gaussian 09 at Tue Dec 15 17:06:10 2015.
