 Gaussian 09, Revision D.01,
 Gaussian 09:  ES64L-G09RevD.01 24-Apr-2013

 ------------------------------------------------------------
 #P AM1(Input,print) CIS(Singlets,NStates=15) pop(full) force
 ------------------------------------------------------------

 -----------------
 AM1-Reparam Input
 -----------------
 Symbolic Z-matrix:
 Charge =  0 Multiplicity = 1

                         Standard orientation:
 ---------------------------------------------------------------------
 Center     Atomic      Atomic             Coordinates (Angstroms)
 Number     Number       Type             X           Y           Z
 ---------------------------------------------------------------------
      1          6           0       -0.281351    1.148219   -0.011564
      2          6           0       -1.110725    0.093769    0.001486
      3          8           0       -0.445888   -1.085625   -0.008252
      4          6           0        0.885337   -0.704822   -0.005958
      5          6           0        1.004143    0.621537    0.018903
      6          1           0        1.947620    1.175873   -0.023501
      7          1           0        1.577096   -1.497072    0.026344
      8          1           0       -2.272191   -0.085348    0.053848
      9          1           0       -0.669843    2.139323   -0.007879
 ---------------------------------------------------------------------

 SCF Done:  E(RAM1) =   1.76719393162     A.U. after   13 cycles

 Excitation energies and oscillator strengths:

 Excited State   1:      Singlet-A      5.5951 eV  221.60 nm  f=0.3352  <S**2>=0.000
      11 -> 17         0.10383
      13 -> 14         0.69061
 This state for optimization and/or second-order correction.
 Total Energy, E(CIS) =   1.97280828208
 Copying the excited state density for this state as the 1-particle RhoCI density.

 Excited State   2:      Singlet-A      6.5626 eV  188.93 nm  f=0.0004  <S**2>=0.000
      10 -> 15         0.12232
      13 -> 15         0.68213
      13 -> 17        -0.10180

 Excited State   3:      Singlet-A      7.3178 eV  169.43 nm  f=0.0003  <S**2>=0.000
      12 -> 14         0.70073

 Excited State   4:      Singlet-A      7.3448 eV  168.81 nm  f=0.0020  <S**2>=0.000
      10 -> 16        -0.11731
      13 -> 16         0.67132
      13 -> 19         0.10930

 Excited State   5:      Singlet-A      7.8858 eV  157.23 nm  f=0.0066  <S**2>=0.000
      11 -> 14         0.69931

 Excited State   6:      Singlet-A      8.8509 eV  140.08 nm  f=0.0083  <S**2>=0.000
      13 -> 17         0.60084
      13 -> 18        -0.24946
      13 -> 19         0.17469
      13 -> 22         0.14185

 Excited State   7:      Singlet-A      9.1907 eV  134.90 nm  f=0.0073  <S**2>=0.000
      13 -> 16         0.10494
      13 -> 17         0.30688
      13 -> 18         0.56624
      13 -> 19        -0.11455
      13 -> 22        -0.21397

 Excited State   8:      Singlet-A      9.4807 eV  130.78 nm  f=0.0424  <S**2>=0.000
       9 -> 15        -0.14147
      10 -> 14         0.56477
      11 -> 15        -0.10388
      12 -> 15        -0.33665
      13 -> 20        -0.11029

 Excited State   9:      Singlet-A      9.6658 eV  128.27 nm  f=0.0674  <S**2>=0.000
       9 -> 15         0.12960
      10 -> 14         0.31331
      11 -> 16        -0.10787
      11 -> 17         0.14151
      12 -> 15         0.47780
      12 -> 16        -0.18607
      12 -> 17        -0.12275
      12 -> 18         0.15654

 Excited State  10:      Singlet-A      9.7436 eV  127.25 nm  f=0.0004  <S**2>=0.000
      13 -> 17        -0.10493
      13 -> 18         0.21734
      13 -> 19         0.64616

 Excited State  11:      Singlet-A      9.9574 eV  124.51 nm  f=0.0993  <S**2>=0.000
       8 -> 15        -0.13424
      10 -> 14         0.12829
      11 -> 15         0.53394
      11 -> 16         0.13529
      11 -> 17        -0.24380
      12 -> 15         0.12930
      12 -> 18        -0.17755

 Excited State  12:      Singlet-A     10.4796 eV  118.31 nm  f=0.1763  <S**2>=0.000
      11 -> 16        -0.30619
      11 -> 17         0.10352
      11 -> 19        -0.11068
      12 -> 16         0.55207
      12 -> 17        -0.15676

 Excited State  13:      Singlet-A     10.5347 eV  117.69 nm  f=0.0161  <S**2>=0.000
       7 -> 15        -0.12332
      10 -> 15         0.61882
      12 -> 16        -0.11404
      13 -> 15        -0.13244

 Excited State  14:      Singlet-A     10.5931 eV  117.04 nm  f=0.0903  <S**2>=0.000
       8 -> 16        -0.10842
       9 -> 15        -0.17847
      10 -> 14        -0.18890
      10 -> 15        -0.21630
      11 -> 15         0.25357
      11 -> 16        -0.17208
      11 -> 19        -0.17300
      12 -> 15        -0.21284
      12 -> 16        -0.24672
      12 -> 17        -0.17112
      12 -> 18         0.20207

 Excited State  15:      Singlet-A     10.8444 eV  114.33 nm  f=0.0897  <S**2>=0.000
       9 -> 14         0.11161
      13 -> 21         0.67456

 The electronic state is 1-A.
 Alpha  occ. eigenvalues --   -1.90808  -1.19149  -0.91875  -0.81659  -0.77889
 Alpha  occ. eigenvalues --   -0.69476  -0.67816  -0.54965  -0.54542  -0.46066
 Alpha  occ. eigenvalues --   -0.42804  -0.41115  -0.29566
 Alpha virt. eigenvalues --    0.12641   0.16307   0.20479   0.27759   0.30032
 Alpha virt. eigenvalues --    0.31379   0.33540   0.34258   0.37557   0.42847
 Alpha virt. eigenvalues --    0.45482

 Mulliken charges:
               1
     1  C   -0.194437
     2  C   -1.994423
     3  O    3.282062
     4  C   -2.003788
     5  C   -0.140702
     6  H    0.200281
     7  H    0.322614
     8  H    0.322364
     9  H    0.206028
 Sum of Mulliken charges =   0.00000

 Dipole moment (field-independent basis, Debye):
    X=             -4.6713    Y=            -10.5845    Z=              0.0544  Tot=             11.5696
 N-N= 1.040974593415D+02 E-N=-1.697869555717D+02  KE=-1.551896930584D+01
 Orbital energies and kinetic energies (alpha):
                                 1                 2
   1         O                -1.908083         -1.368207
   2         O                -1.191487         -1.074710
   3         O                -0.918753         -0.898272
   4         O                -0.816586         -0.564852
   5         O                -0.778893         -0.674848
   6         O                -0.694758         -0.593372
   7         O                -0.678165         -0.548556

 Normal termination of Gaussian 09 at Tue Dec 15 17:09:40 2015.
