 Gaussian 09, Revision D.01,
 Gaussian 09:  ES64L-G09RevD.01 24-Apr-2013

 ------------------------------------------------------------
 #P AM1(Input,print) CIS(Singlets,NStates=15) pop(full) force
 ------------------------------------------------------------

 -----------------
 AM1-Reparam Input
 -----------------
 Symbolic Z-matrix:
 Charge =  0 Multiplicity = 1

                         Standard orientation:
 ---------------------------------------------------------------------
 Center     Atomic      Atomic             Coordinates (Angstroms)
 Number     Number       Type             X           Y           Z
 ---------------------------------------------------------------------
      1          6           0        0.136899    1.145612    0.021080
      2          6           0       -1.020423    0.469537   -0.029252
      3          8           0       -0.771031   -0.829433    0.032619
      4          6           0        0.514860   -0.998840   -0.016891
      5          6           0        1.165948    0.247622   -0.024180
      6          1           0        2.287033    0.389486    0.061056
      7          1           0        0.891306   -1.977307   -0.014250
      8          1           0       -2.083258    0.774374   -0.043303
      9          1           0        0.289466    2.265327    0.031001
 ---------------------------------------------------------------------

 SCF Done:  E(RAM1) =   2.58536738710     A.U. after   13 cycles

 Excitation energies and oscillator strengths:

 Excited State   1:      Singlet-A      5.4528 eV  227.38 nm  f=0.3395  <S**2>=0.000
      13 -> 14         0.69654
 This state for optimization and/or second-order correction.
 Total Energy, E(CIS) =   2.78575268193
 Copying the excited state density for this state as the 1-particle RhoCI density.

 Excited State   2:      Singlet-A      6.5665 eV  188.81 nm  f=0.0009  <S**2>=0.000
      10 -> 16         0.10376
      13 -> 15         0.63442
      13 -> 16        -0.21490
      13 -> 17         0.10364
      13 -> 19        -0.14615

 Excited State   3:      Singlet-A      6.6814 eV  185.57 nm  f=0.0033  <S**2>=0.000
      12 -> 14         0.62044
      13 -> 16        -0.29087

 Excited State   4:      Singlet-A      6.7785 eV  182.91 nm  f=0.0025  <S**2>=0.000
      11 -> 14         0.12516
      12 -> 14         0.30512
      13 -> 15         0.19073
      13 -> 16         0.57053

 Excited State   5:      Singlet-A      7.3745 eV  168.13 nm  f=0.0031  <S**2>=0.000
      10 -> 14         0.14383
      11 -> 14         0.67399
      13 -> 16        -0.10618

 Excited State   6:      Singlet-A      8.1576 eV  151.99 nm  f=0.0002  <S**2>=0.000
      13 -> 15        -0.10046
      13 -> 17         0.67266
      13 -> 21         0.12771

 Excited State   7:      Singlet-A      8.4828 eV  146.16 nm  f=0.0963  <S**2>=0.000
      10 -> 14         0.67700
      11 -> 14        -0.13627

 Excited State   8:      Singlet-A      9.2219 eV  134.45 nm  f=0.0509  <S**2>=0.000
       8 -> 16         0.10391
       9 -> 15         0.12179
      10 -> 15         0.11717
      11 -> 16         0.29712
      11 -> 17         0.12889
      11 -> 18        -0.17913
      12 -> 15         0.34094
      12 -> 16        -0.21602
      12 -> 17         0.27997
      13 -> 18         0.15478

 Excited State   9:      Singlet-A      9.3193 eV  133.04 nm  f=0.0148  <S**2>=0.000
       7 -> 16        -0.11670
      10 -> 15         0.39505
      11 -> 15        -0.10320
      12 -> 16         0.10782
      12 -> 17        -0.10348
      13 -> 18         0.51019

 Excited State  10:      Singlet-A      9.5383 eV  129.99 nm  f=0.1524  <S**2>=0.000
      10 -> 16         0.23564
      11 -> 16        -0.15353
      12 -> 15         0.40359
      12 -> 16         0.35451
      12 -> 19        -0.11554
      13 -> 19         0.26663

 Excited State  11:      Singlet-A      9.6063 eV  129.07 nm  f=0.0619  <S**2>=0.000
       7 -> 15        -0.10486
      10 -> 16         0.37990
      12 -> 15        -0.31353
      12 -> 16        -0.17360
      13 -> 18         0.11380
      13 -> 19         0.40264

 Excited State  12:      Singlet-A      9.7810 eV  126.76 nm  f=0.0997  <S**2>=0.000
      11 -> 15         0.49141
      11 -> 16        -0.34938
      11 -> 19        -0.15812
      12 -> 15         0.11729
      12 -> 16        -0.22381

 Excited State  13:      Singlet-A     10.1856 eV  121.72 nm  f=0.0214  <S**2>=0.000
       8 -> 15         0.18597
       9 -> 16         0.14507
      10 -> 15         0.21651
      11 -> 15         0.10169
      11 -> 17        -0.14712
      12 -> 15        -0.12314
      12 -> 16         0.32867
      12 -> 17         0.34957
      12 -> 18         0.10311
      12 -> 19         0.10150
      12 -> 20        -0.10991
      13 -> 18        -0.14380

 Excited State  14:      Singlet-A     10.2115 eV  121.42 nm  f=0.0004  <S**2>=0.000
      10 -> 15         0.27699
      10 -> 16        -0.30898
      13 -> 15         0.14846
      13 -> 18        -0.29704
      13 -> 19         0.39904

 Excited State  15:      Singlet-A     10.2932 eV  120.45 nm  f=0.0053  <S**2>=0.000
      10 -> 15         0.36457
      10 -> 16         0.34169
      11 -> 15        -0.10252
      12 -> 17        -0.18926
      13 -> 15        -0.11607
      13 -> 16        -0.11294
      13 -> 18        -0.26383
      13 -> 19        -0.22801

 The electronic state is 1-A.
 Alpha  occ. eigenvalues --   -1.86912  -1.14110  -0.88131  -0.79863  -0.74960
 Alpha  occ. eigenvalues --   -0.66478  -0.64909  -0.56215  -0.54874  -0.45000
 Alpha  occ. eigenvalues --   -0.44698  -0.42960  -0.32008
 Alpha virt. eigenvalues --    0.08938   0.16186   0.16514   0.24107   0.26507
 Alpha virt. eigenvalues --    0.28702   0.34132   0.39736   0.51847   0.59091
 Alpha virt. eigenvalues --    0.63661

 Mulliken charges:
               1
     1  C   -0.165508
     2  C   -2.006803
     3  O    3.420627
     4  C   -2.037727
     5  C   -0.181954
     6  H    0.197875
     7  H    0.281640
     8  H    0.287271
     9  H    0.204578
 Sum of Mulliken charges =   0.00000

 Dipole moment (field-independent basis, Debye):
    X=             -7.0393    Y=             -7.3406    Z=              0.8634  Tot=             10.2070
 N-N= 1.047751536336D+02 E-N=-1.709640588068D+02  KE=-1.439313572538D+01
 Orbital energies and kinetic energies (alpha):
                                 1                 2
   1         O                -1.869116         -1.300205
   2         O                -1.141104         -0.971754
   3         O                -0.881308         -0.762499
   4         O                -0.798634         -0.551472
   5         O                -0.749601         -0.628775
   6         O                -0.664778         -0.549456
   7         O                -0.649089         -0.507100

 Normal termination of Gaussian 09 at Tue Dec 15 17:07:48 2015.
