 Gaussian 09, Revision D.01,
 Gaussian 09:  ES64L-G09RevD.01 24-Apr-2013

 ------------------------------------------------------------
 #P AM1(Input,print) CIS(Singlets,NStates=15) pop(full) force
 ------------------------------------------------------------

 -----------------
 AM1-Reparam Input
 -----------------
 Symbolic Z-matrix:
 Charge =  0 Multiplicity = 1

                         Standard orientation:
 ---------------------------------------------------------------------
 Center     Atomic      Atomic             Coordinates (Angstroms)
 Number     Number       Type             X           Y           Z
 ---------------------------------------------------------------------
      1          6           0       -0.885000    0.851222   -0.017525
      2          6           0       -1.028314   -0.529937    0.024752
      3          8           0        0.176282   -1.125813   -0.025403
      4          6           0        1.140646   -0.185201    0.009596
      5          6           0        0.603293    1.036301    0.004514
      6          1           0        1.084755    1.957468   -0.002401
      7          1           0        2.141008   -0.531214    0.041122
      8          1           0       -1.941124   -1.084861    0.040854
      9          1           0       -1.678640    1.630808   -0.004370
 ---------------------------------------------------------------------

 SCF Done:  E(RAM1) =   2.02288782099     A.U. after   13 cycles

 Excitation energies and oscillator strengths:

 Excited State   1:      Singlet-A      5.1098 eV  242.64 nm  f=0.3653  <S**2>=0.000
      13 -> 14         0.69692
 This state for optimization and/or second-order correction.
 Total Energy, E(CIS) =   2.21066817962
 Copying the excited state density for this state as the 1-particle RhoCI density.

 Excited State   2:      Singlet-A      6.5256 eV  190.00 nm  f=0.0005  <S**2>=0.000
      12 -> 14         0.69511

 Excited State   3:      Singlet-A      6.6404 eV  186.71 nm  f=0.0072  <S**2>=0.000
      13 -> 15         0.31528
      13 -> 16         0.54068
      13 -> 17        -0.18455
      13 -> 18         0.24623

 Excited State   4:      Singlet-A      6.7217 eV  184.45 nm  f=0.0090  <S**2>=0.000
      13 -> 15         0.58381
      13 -> 16        -0.25803
      13 -> 17        -0.12023
      13 -> 18        -0.24831

 Excited State   5:      Singlet-A      7.6475 eV  162.12 nm  f=0.0001  <S**2>=0.000
      13 -> 16        -0.27555
      13 -> 17        -0.13244
      13 -> 18         0.42360
      13 -> 19         0.44844

 Excited State   6:      Singlet-A      7.8062 eV  158.83 nm  f=0.0066  <S**2>=0.000
      10 -> 14         0.69325

 Excited State   7:      Singlet-A      8.6201 eV  143.83 nm  f=0.1352  <S**2>=0.000
      11 -> 14         0.68870

 Excited State   8:      Singlet-A      8.7007 eV  142.50 nm  f=0.0148  <S**2>=0.000
      11 -> 16        -0.13158
      13 -> 15         0.18826
      13 -> 17         0.60635
      13 -> 18         0.22836

 Excited State   9:      Singlet-A      8.9866 eV  137.97 nm  f=0.0001  <S**2>=0.000
      11 -> 15        -0.12011
      13 -> 16         0.19220
      13 -> 17         0.17817
      13 -> 18        -0.31855
      13 -> 19         0.52314
      13 -> 20         0.16542

 Excited State  10:      Singlet-A      9.3815 eV  132.16 nm  f=0.0206  <S**2>=0.000
      13 -> 18         0.13302
      13 -> 20         0.65096
      13 -> 21        -0.14714

 Excited State  11:      Singlet-A      9.4938 eV  130.59 nm  f=0.0638  <S**2>=0.000
       9 -> 16        -0.10842
      10 -> 15         0.20234
      10 -> 17        -0.17085
      12 -> 16         0.39134
      12 -> 17        -0.11186
      12 -> 18         0.39318
      12 -> 19         0.20266

 Excited State  12:      Singlet-A      9.8114 eV  126.37 nm  f=0.0563  <S**2>=0.000
      13 -> 20         0.15160
      13 -> 21         0.67339

 Excited State  13:      Singlet-A     10.0296 eV  123.62 nm  f=0.0325  <S**2>=0.000
      10 -> 15         0.10743
      10 -> 16        -0.15303
      10 -> 18        -0.12910
      12 -> 15         0.61528
      12 -> 17        -0.18312

 Excited State  14:      Singlet-A     10.2825 eV  120.58 nm  f=0.2077  <S**2>=0.000
      10 -> 15        -0.33158
      10 -> 16        -0.15442
      10 -> 17         0.16657
      11 -> 15        -0.11718
      12 -> 16         0.46820
      12 -> 19        -0.26364

 Excited State  15:      Singlet-A     10.3446 eV  119.85 nm  f=0.0012  <S**2>=0.000
       9 -> 14         0.42809
      10 -> 15        -0.10522
      11 -> 15         0.46751
      11 -> 16         0.15213
      11 -> 17        -0.10497
      13 -> 16         0.10076

 The electronic state is 1-A.
 Alpha  occ. eigenvalues --   -1.94454  -1.18091  -0.96527  -0.82738  -0.78154
 Alpha  occ. eigenvalues --   -0.69157  -0.65171  -0.56207  -0.53579  -0.45495
 Alpha  occ. eigenvalues --   -0.44948  -0.41584  -0.29233
 Alpha virt. eigenvalues --    0.09423   0.19008   0.19680   0.25775   0.26249
 Alpha virt. eigenvalues --    0.27986   0.29047   0.30729   0.36699   0.45109
 Alpha virt. eigenvalues --    0.50350

 Mulliken charges:
               1
     1  C   -0.220137
     2  C   -2.037941
     3  O    3.190665
     4  C   -1.996741
     5  C   -0.206428
     6  H    0.254076
     7  H    0.371513
     8  H    0.385589
     9  H    0.259404
 Sum of Mulliken charges =   0.00000

 Dipole moment (field-independent basis, Debye):
    X=              1.4443    Y=             -9.5385    Z=             -0.4585  Tot=              9.6581
 N-N= 1.042036817818D+02 E-N=-1.693799009755D+02  KE=-1.547495207010D+01
 Orbital energies and kinetic energies (alpha):
                                 1                 2
   1         O                -1.944541         -1.397789
   2         O                -1.180907         -1.045523
   3         O                -0.965266         -0.871005
   4         O                -0.827378         -0.604313
   5         O                -0.781542         -0.685490
   6         O                -0.691566         -0.558098
   7         O                -0.651708         -0.514758

 Normal termination of Gaussian 09 at Tue Dec 15 17:07:25 2015.
