 Gaussian 09, Revision D.01,
 Gaussian 09:  ES64L-G09RevD.01 24-Apr-2013

 ------------------------------------------------------------
 #P AM1(Input,print) CIS(Singlets,NStates=15) pop(full) force
 ------------------------------------------------------------

 -----------------
 AM1-Reparam Input
 -----------------
 Symbolic Z-matrix:
 Charge =  0 Multiplicity = 1

                         Standard orientation:
 ---------------------------------------------------------------------
 Center     Atomic      Atomic             Coordinates (Angstroms)
 Number     Number       Type             X           Y           Z
 ---------------------------------------------------------------------
      1          6           0        0.867254    0.750367   -0.006659
      2          6           0        1.031277   -0.573175    0.003733
      3          8           0       -0.267478   -1.103384   -0.017968
      4          6           0       -1.161435   -0.142458    0.039961
      5          6           0       -0.452088    1.109645   -0.021723
      6          1           0       -0.915346    2.034524    0.000670
      7          1           0       -2.163544   -0.350638   -0.026643
      8          1           0        1.785176   -1.221629    0.023659
      9          1           0        1.723492    1.498536    0.054184
 ---------------------------------------------------------------------

 SCF Done:  E(RAM1) =   2.11694140600     A.U. after   13 cycles

 Excitation energies and oscillator strengths:

 Excited State   1:      Singlet-A      5.8179 eV  213.11 nm  f=0.3260  <S**2>=0.000
      13 -> 14         0.69024
 This state for optimization and/or second-order correction.
 Total Energy, E(CIS) =   2.33074668527
 Copying the excited state density for this state as the 1-particle RhoCI density.

 Excited State   2:      Singlet-A      6.8019 eV  182.28 nm  f=0.0082  <S**2>=0.000
      13 -> 15         0.66489
      13 -> 17        -0.14244

 Excited State   3:      Singlet-A      7.2825 eV  170.25 nm  f=0.0045  <S**2>=0.000
      12 -> 14         0.69456

 Excited State   4:      Singlet-A      7.5424 eV  164.38 nm  f=0.0009  <S**2>=0.000
      11 -> 16         0.10925
      13 -> 16         0.65682
      13 -> 19        -0.14485

 Excited State   5:      Singlet-A      8.1940 eV  151.31 nm  f=0.0043  <S**2>=0.000
      10 -> 14         0.62465
      11 -> 14        -0.27880
      13 -> 17        -0.10211

 Excited State   6:      Singlet-A      8.4857 eV  146.11 nm  f=0.0008  <S**2>=0.000
      10 -> 14         0.11544
      11 -> 15        -0.10367
      13 -> 17         0.46125
      13 -> 18         0.36304
      13 -> 21        -0.31721

 Excited State   7:      Singlet-A      8.9596 eV  138.38 nm  f=0.0078  <S**2>=0.000
      11 -> 16         0.13792
      13 -> 17         0.46223
      13 -> 18        -0.40705
      13 -> 19         0.15122
      13 -> 21         0.20703

 Excited State   8:      Singlet-A      9.0775 eV  136.58 nm  f=0.0578  <S**2>=0.000
      10 -> 14         0.27071
      11 -> 14         0.59259
      12 -> 17         0.16209

 Excited State   9:      Singlet-A      9.5122 eV  130.34 nm  f=0.0083  <S**2>=0.000
      11 -> 15         0.19876
      13 -> 18         0.34609
      13 -> 19         0.46848
      13 -> 20        -0.10398
      13 -> 21         0.26819

 Excited State  10:      Singlet-A      9.7497 eV  127.17 nm  f=0.2117  <S**2>=0.000
       9 -> 15         0.10994
      10 -> 15        -0.16432
      10 -> 16        -0.15562
      10 -> 18        -0.14927
      11 -> 14         0.17816
      12 -> 15         0.42298
      12 -> 17        -0.28588
      12 -> 18        -0.11801
      13 -> 14        -0.10057

 Excited State  11:      Singlet-A      9.9631 eV  124.44 nm  f=0.0040  <S**2>=0.000
      13 -> 18         0.21588
      13 -> 19        -0.40758
      13 -> 21         0.50320

 Excited State  12:      Singlet-A     10.2324 eV  121.17 nm  f=0.0084  <S**2>=0.000
      11 -> 15         0.57405
      13 -> 15         0.13473
      13 -> 16        -0.11509
      13 -> 19        -0.10216
      13 -> 20         0.24687

 Excited State  13:      Singlet-A     10.2511 eV  120.95 nm  f=0.0319  <S**2>=0.000
      10 -> 15         0.40643
      10 -> 17        -0.10943
      12 -> 15         0.28883
      12 -> 16         0.37424
      12 -> 17         0.10281
      12 -> 18         0.17208

 Excited State  14:      Singlet-A     10.3698 eV  119.56 nm  f=0.1210  <S**2>=0.000
      10 -> 15         0.27389
      11 -> 15        -0.18668
      12 -> 16        -0.29235
      12 -> 17        -0.10095
      13 -> 19         0.12112
      13 -> 20         0.46258

 Excited State  15:      Singlet-A     10.4254 eV  118.92 nm  f=0.0830  <S**2>=0.000
       8 -> 15         0.10198
       9 -> 15         0.19254
      10 -> 15        -0.20177
      10 -> 18        -0.13325
      12 -> 15         0.22725
      12 -> 16        -0.16263
      12 -> 17         0.36722
      12 -> 18         0.28048
      12 -> 19         0.18629

 The electronic state is 1-A.
 Alpha  occ. eigenvalues --   -1.94760  -1.20452  -0.94679  -0.81333  -0.80027
 Alpha  occ. eigenvalues --   -0.70177  -0.66869  -0.57800  -0.54528  -0.45617
 Alpha  occ. eigenvalues --   -0.45215  -0.42284  -0.31519
 Alpha virt. eigenvalues --    0.11290   0.17557   0.20434   0.24127   0.26814
 Alpha virt. eigenvalues --    0.28390   0.30790   0.31356   0.32211   0.39817
 Alpha virt. eigenvalues --    0.45073

 Mulliken charges:
               1
     1  C   -0.073568
     2  C   -1.882452
     3  O    3.233755
     4  C   -1.952113
     5  C   -0.194645
     6  H    0.168726
     7  H    0.279653
     8  H    0.256961
     9  H    0.163684
 Sum of Mulliken charges =   0.00000

 Dipole moment (field-independent basis, Debye):
    X=             -2.3134    Y=             -9.5869    Z=             -0.5635  Tot=              9.8781
 N-N= 1.045167813718D+02 E-N=-1.697020092443D+02  KE=-1.539246346693D+01
 Orbital energies and kinetic energies (alpha):
                                 1                 2
   1         O                -1.947603         -1.374429
   2         O                -1.204517         -1.049251
   3         O                -0.946786         -0.882804
   4         O                -0.813332         -0.582376
   5         O                -0.800265         -0.691799
   6         O                -0.701769         -0.599803
   7         O                -0.668694         -0.531513

 Normal termination of Gaussian 09 at Tue Dec 15 17:08:50 2015.
