 Gaussian 09, Revision D.01,
 Gaussian 09:  ES64L-G09RevD.01 24-Apr-2013

 ------------------------------------------------------------
 #P AM1(Input,print) CIS(Singlets,NStates=15) pop(full) force
 ------------------------------------------------------------

 -----------------
 AM1-Reparam Input
 -----------------
 Symbolic Z-matrix:
 Charge =  0 Multiplicity = 1

                         Standard orientation:
 ---------------------------------------------------------------------
 Center     Atomic      Atomic             Coordinates (Angstroms)
 Number     Number       Type             X           Y           Z
 ---------------------------------------------------------------------
      1          6           0       -0.975310    0.715668   -0.009273
      2          6           0       -0.928919   -0.602198   -0.018064
      3          8           0        0.318882   -1.148367    0.018147
      4          6           0        1.166129   -0.012823   -0.013168
      5          6           0        0.405930    1.103118    0.015270
      6          1           0        0.802026    2.164230   -0.016746
      7          1           0        2.195371   -0.198491   -0.022500
      8          1           0       -1.727105   -1.367089   -0.003242
      9          1           0       -1.828327    1.365698    0.048715
 ---------------------------------------------------------------------

 SCF Done:  E(RAM1) =  -4.50447918297     A.U. after   14 cycles

 Excitation energies and oscillator strengths:

 Excited State   1:      Singlet-A      6.5108 eV  190.43 nm  f=0.2210  <S**2>=0.000
      13 -> 14         0.68464
 This state for optimization and/or second-order correction.
 Total Energy, E(CIS) =  -4.26521115899
 Copying the excited state density for this state as the 1-particle RhoCI density.

 Excited State   2:      Singlet-A      7.2081 eV  172.01 nm  f=0.0022  <S**2>=0.000
      13 -> 15         0.69200

 Excited State   3:      Singlet-A      7.6702 eV  161.64 nm  f=0.0041  <S**2>=0.000
      13 -> 16         0.68602

 Excited State   4:      Singlet-A      7.9205 eV  156.54 nm  f=0.0002  <S**2>=0.000
       9 -> 14        -0.27300
      11 -> 14        -0.18746
      12 -> 14         0.60987
      13 -> 16         0.10668

 Excited State   5:      Singlet-A      8.6619 eV  143.14 nm  f=0.0034  <S**2>=0.000
       8 -> 14        -0.12899
       9 -> 14        -0.18262
      10 -> 14        -0.24073
      11 -> 14         0.59959
      12 -> 14         0.13534

 Excited State   6:      Singlet-A      8.8175 eV  140.61 nm  f=0.0383  <S**2>=0.000
      10 -> 14        -0.37611
      13 -> 17         0.57663

 Excited State   7:      Singlet-A      9.3303 eV  132.88 nm  f=0.0017  <S**2>=0.000
       9 -> 14         0.48758
      11 -> 14         0.10756
      12 -> 14         0.26609
      13 -> 17         0.11134
      13 -> 18         0.37923

 Excited State   8:      Singlet-A      9.4898 eV  130.65 nm  f=0.0031  <S**2>=0.000
       9 -> 14        -0.31737
      12 -> 14        -0.15500
      13 -> 18         0.57350

 Excited State   9:      Singlet-A      9.6599 eV  128.35 nm  f=0.0523  <S**2>=0.000
       9 -> 14        -0.16611
      10 -> 14         0.39055
      11 -> 14         0.15491
      11 -> 18         0.11099
      12 -> 15         0.24742
      12 -> 16         0.27967
      13 -> 17         0.29402

 Excited State  10:      Singlet-A      9.9745 eV  124.30 nm  f=0.0049  <S**2>=0.000
      10 -> 15        -0.23312
      10 -> 16         0.12497
      11 -> 15        -0.19880
      13 -> 19         0.60520

 Excited State  11:      Singlet-A     10.0901 eV  122.88 nm  f=0.0140  <S**2>=0.000
       8 -> 16        -0.11851
       9 -> 15         0.27468
       9 -> 16        -0.15020
       9 -> 18        -0.13416
      10 -> 15        -0.14249
      10 -> 16        -0.12793
      11 -> 15         0.26576
      11 -> 16         0.25729
      11 -> 21         0.12475
      12 -> 18         0.32582
      13 -> 19         0.11816

 Excited State  12:      Singlet-A     10.3929 eV  119.30 nm  f=0.8931  <S**2>=0.000
       9 -> 15         0.13618
       9 -> 18         0.11441
      10 -> 14        -0.21524
      10 -> 17        -0.11912
      11 -> 14        -0.12634
      12 -> 15         0.50125
      12 -> 16        -0.11052
      12 -> 18        -0.16675
      13 -> 17        -0.13080

 Excited State  13:      Singlet-A     10.5986 eV  116.98 nm  f=0.2712  <S**2>=0.000
       8 -> 15        -0.11212
       9 -> 15         0.30280
      10 -> 14        -0.15982
      10 -> 15        -0.24393
      11 -> 16        -0.18242
      12 -> 15        -0.20352
      12 -> 16         0.38039
      13 -> 19        -0.12942

 Excited State  14:      Singlet-A     10.6932 eV  115.95 nm  f=0.1339  <S**2>=0.000
      10 -> 14        -0.10104
      10 -> 15         0.36164
      10 -> 16         0.13542
      11 -> 15         0.36512
      12 -> 16         0.30580
      13 -> 19         0.20583

 Excited State  15:      Singlet-A     10.8291 eV  114.49 nm  f=0.4033  <S**2>=0.000
       9 -> 15         0.41773
      10 -> 14         0.10895
      10 -> 15         0.34956
      11 -> 15        -0.10755
      11 -> 16        -0.15479
      12 -> 15        -0.18555
      12 -> 16        -0.18779
      13 -> 19         0.11296

 The electronic state is 1-A.
 Alpha  occ. eigenvalues --   -3.76504  -1.26906  -0.97300  -0.92451  -0.87126
 Alpha  occ. eigenvalues --   -0.84683  -0.80660  -0.67682  -0.61156  -0.59830
 Alpha  occ. eigenvalues --   -0.59071  -0.55191  -0.46197
 Alpha virt. eigenvalues --   -0.00492   0.04504   0.06921   0.09360   0.14579
 Alpha virt. eigenvalues --    0.15914   0.22562   0.24220   0.34670   0.38898
 Alpha virt. eigenvalues --    0.40681

 Mulliken charges:
               1
     1  C   -0.107897
     2  C   -1.098828
     3  O    2.421814
     4  C   -1.086127
     5  C   -0.086289
     6  H    0.001453
     7  H   -0.026672
     8  H    0.002336
     9  H   -0.019790
 Sum of Mulliken charges =   0.00000

 Dipole moment (field-independent basis, Debye):
    X=              2.3556    Y=             -9.8122    Z=              0.3386  Tot=             10.0967
 N-N= 1.057611433044D+02 E-N=-1.729585224933D+02  KE=-2.167756594978D+01
 Orbital energies and kinetic energies (alpha):
                                 1                 2
   1         O                -3.765044         -3.043371
   2         O                -1.269065         -1.060323
   3         O                -0.973003         -0.723197
   4         O                -0.924508         -0.780881
   5         O                -0.871259         -0.761039
   6         O                -0.846828         -0.661933
   7         O                -0.806597         -0.770219

 Normal termination of Gaussian 09 at Fri Dec 11 13:41:30 2015.
