 Gaussian 09, Revision D.01,
 Gaussian 09:  ES64L-G09RevD.01 24-Apr-2013

 ------------------------------------------------------------
 #P AM1(Input,print) CIS(Singlets,NStates=15) pop(full) force
 ------------------------------------------------------------

 -----------------
 AM1-Reparam Input
 -----------------
 Symbolic Z-matrix:
 Charge =  0 Multiplicity = 1

                         Standard orientation:
 ---------------------------------------------------------------------
 Center     Atomic      Atomic             Coordinates (Angstroms)
 Number     Number       Type             X           Y           Z
 ---------------------------------------------------------------------
      1          6           0        0.210344    1.215219    0.000537
      2          6           0        1.154654    0.153317    0.005513
      3          8           0        0.507579   -1.068729   -0.020091
      4          6           0       -0.798119   -0.745271    0.028571
      5          6           0       -1.090367    0.497913   -0.007144
      6          1           0       -2.018436    1.049665   -0.014923
      7          1           0       -1.467395   -1.591341   -0.012691
      8          1           0        2.158500    0.144025    0.042539
      9          1           0        0.407627    2.220422   -0.019058
 ---------------------------------------------------------------------

 SCF Done:  E(RAM1) =   2.15700524355     A.U. after   13 cycles

 Excitation energies and oscillator strengths:

 Excited State   1:      Singlet-A      5.2827 eV  234.70 nm  f=0.3642  <S**2>=0.000
      13 -> 14         0.69739
 This state for optimization and/or second-order correction.
 Total Energy, E(CIS) =   2.35114205361
 Copying the excited state density for this state as the 1-particle RhoCI density.

 Excited State   2:      Singlet-A      5.9600 eV  208.03 nm  f=0.0005  <S**2>=0.000
      11 -> 15         0.10200
      13 -> 15         0.68448
      13 -> 18         0.11010

 Excited State   3:      Singlet-A      6.7018 eV  185.00 nm  f=0.0022  <S**2>=0.000
      13 -> 16         0.65771
      13 -> 17        -0.17829
      13 -> 19        -0.13662

 Excited State   4:      Singlet-A      6.9299 eV  178.91 nm  f=0.0002  <S**2>=0.000
      12 -> 14         0.70183

 Excited State   5:      Singlet-A      7.9008 eV  156.93 nm  f=0.0018  <S**2>=0.000
      13 -> 16         0.13926
      13 -> 17         0.32269
      13 -> 18         0.50825
      13 -> 22         0.28942

 Excited State   6:      Singlet-A      8.2756 eV  149.82 nm  f=0.0083  <S**2>=0.000
      10 -> 14         0.62239
      13 -> 17        -0.24680
      13 -> 18         0.17461

 Excited State   7:      Singlet-A      8.4965 eV  145.92 nm  f=0.0022  <S**2>=0.000
      10 -> 14         0.31452
      13 -> 17         0.51108
      13 -> 18        -0.31469
      13 -> 19        -0.12481

 Excited State   8:      Singlet-A      8.8105 eV  140.72 nm  f=0.0674  <S**2>=0.000
      11 -> 14         0.61982
      12 -> 15        -0.23276
      13 -> 20         0.12735

 Excited State   9:      Singlet-A      9.0683 eV  136.72 nm  f=0.0034  <S**2>=0.000
      11 -> 16        -0.12208
      13 -> 16         0.10174
      13 -> 18        -0.19438
      13 -> 19         0.64399

 Excited State  10:      Singlet-A      9.3330 eV  132.85 nm  f=0.2060  <S**2>=0.000
       9 -> 15        -0.12081
      11 -> 14         0.25018
      12 -> 15         0.57240
      12 -> 16        -0.15496
      12 -> 18         0.13053

 Excited State  11:      Singlet-A      9.5343 eV  130.04 nm  f=0.0008  <S**2>=0.000
      13 -> 17        -0.16505
      13 -> 18        -0.23310
      13 -> 21         0.15309
      13 -> 22         0.61092

 Excited State  12:      Singlet-A      9.7825 eV  126.74 nm  f=0.0993  <S**2>=0.000
      11 -> 15         0.10446
      13 -> 20         0.46372
      13 -> 21        -0.45282
      13 -> 22         0.17185

 Excited State  13:      Singlet-A      9.9836 eV  124.19 nm  f=0.0045  <S**2>=0.000
      10 -> 15         0.18699
      10 -> 17        -0.12434
      10 -> 18         0.15848
      12 -> 15         0.24002
      12 -> 16         0.37427
      12 -> 17        -0.28073
      12 -> 18        -0.19538
      12 -> 22        -0.12023
      13 -> 20        -0.10501
      13 -> 21        -0.15149

 Excited State  14:      Singlet-A     10.0943 eV  122.83 nm  f=0.0004  <S**2>=0.000
       7 -> 15        -0.14564
      11 -> 15         0.63916
      11 -> 16         0.13406
      13 -> 15        -0.12094

 Excited State  15:      Singlet-A     10.1792 eV  121.80 nm  f=0.1052  <S**2>=0.000
      10 -> 15         0.17502
      11 -> 14        -0.16116
      13 -> 20         0.44587
      13 -> 21         0.43931

 The electronic state is 1-A.
 Alpha  occ. eigenvalues --   -1.93663  -1.18691  -0.93893  -0.80762  -0.78753
 Alpha  occ. eigenvalues --   -0.70091  -0.65850  -0.54273  -0.53355  -0.45417
 Alpha  occ. eigenvalues --   -0.44064  -0.40843  -0.27866
 Alpha virt. eigenvalues --    0.11598   0.16541   0.20548   0.27061   0.28417
 Alpha virt. eigenvalues --    0.30276   0.31629   0.31960   0.32927   0.40467
 Alpha virt. eigenvalues --    0.43896

 Mulliken charges:
               1
     1  C   -0.158661
     2  C   -1.887388
     3  O    3.195163
     4  C   -1.840956
     5  C   -0.135202
     6  H    0.152765
     7  H    0.267613
     8  H    0.253813
     9  H    0.152853
 Sum of Mulliken charges =   0.00000

 Dipole moment (field-independent basis, Debye):
    X=              3.8839    Y=            -10.5396    Z=             -0.5184  Tot=             11.2444
 N-N= 1.041548052151D+02 E-N=-1.692984802793D+02  KE=-1.534675833388D+01
 Orbital energies and kinetic energies (alpha):
                                 1                 2
   1         O                -1.936626         -1.357186
   2         O                -1.186912         -1.054992
   3         O                -0.938925         -0.888383
   4         O                -0.807617         -0.569419
   5         O                -0.787528         -0.694734
   6         O                -0.700912         -0.589023
   7         O                -0.658496         -0.524611

 Normal termination of Gaussian 09 at Tue Dec 15 17:09:17 2015.
