 Gaussian 09, Revision D.01,
 Gaussian 09:  ES64L-G09RevD.01 24-Apr-2013

 ------------------------------------------------------------
 #P AM1(Input,print) CIS(Singlets,NStates=15) pop(full) force
 ------------------------------------------------------------

 -----------------
 AM1-Reparam Input
 -----------------
 Symbolic Z-matrix:
 Charge =  0 Multiplicity = 1

                         Standard orientation:
 ---------------------------------------------------------------------
 Center     Atomic      Atomic             Coordinates (Angstroms)
 Number     Number       Type             X           Y           Z
 ---------------------------------------------------------------------
      1          6           0       -0.885270    0.787392    0.015701
      2          6           0       -1.065905   -0.472591   -0.015346
      3          8           0        0.213108   -1.146504    0.022311
      4          6           0        1.169657   -0.156108   -0.021829
      5          6           0        0.536669    1.068398   -0.009674
      6          1           0        1.077165    1.969415    0.057703
      7          1           0        2.133243   -0.528447   -0.004625
      8          1           0       -1.874166   -1.175156   -0.029939
      9          1           0       -1.572016    1.543671   -0.014736
 ---------------------------------------------------------------------

 SCF Done:  E(RAM1) =  -7.61169511707     A.U. after   13 cycles

 Excitation energies and oscillator strengths:

 Excited State   1:      Singlet-A      6.7379 eV  184.01 nm  f=0.3973  <S**2>=0.000
      13 -> 14         0.69523
 This state for optimization and/or second-order correction.
 Total Energy, E(CIS) =  -7.36408139075
 Copying the excited state density for this state as the 1-particle RhoCI density.

 Excited State   2:      Singlet-A      7.1070 eV  174.45 nm  f=0.0011  <S**2>=0.000
      12 -> 14         0.70294

 Excited State   3:      Singlet-A      8.0965 eV  153.13 nm  f=0.0053  <S**2>=0.000
      11 -> 14         0.70169

 Excited State   4:      Singlet-A      9.3337 eV  132.83 nm  f=0.0093  <S**2>=0.000
      13 -> 15         0.20235
      13 -> 16         0.64817
      13 -> 18         0.14537

 Excited State   5:      Singlet-A      9.5894 eV  129.29 nm  f=0.0744  <S**2>=0.000
      10 -> 14         0.16235
      13 -> 15         0.64025
      13 -> 16        -0.18698
      13 -> 17         0.13111

 Excited State   6:      Singlet-A      9.7946 eV  126.58 nm  f=0.0074  <S**2>=0.000
      13 -> 15        -0.12008
      13 -> 17         0.65784
      13 -> 19         0.10534
      13 -> 20        -0.12192

 Excited State   7:      Singlet-A     11.3307 eV  109.42 nm  f=0.1527  <S**2>=0.000
      10 -> 14         0.61930
      12 -> 17        -0.16606
      13 -> 15        -0.14931

 Excited State   8:      Singlet-A     11.4636 eV  108.15 nm  f=0.0140  <S**2>=0.000
      10 -> 17        -0.11498
      13 -> 16        -0.11892
      13 -> 18         0.66399
      13 -> 19         0.10635

 Excited State   9:      Singlet-A     11.8221 eV  104.87 nm  f=0.0009  <S**2>=0.000
      13 -> 17        -0.16301
      13 -> 19         0.49758
      13 -> 20        -0.39818
      13 -> 24         0.14916

 Excited State  10:      Singlet-A     11.8655 eV  104.49 nm  f=0.0235  <S**2>=0.000
       8 -> 14        -0.18948
      12 -> 15         0.55674
      12 -> 16         0.18582
      12 -> 17        -0.21964
      12 -> 19        -0.10406

 Excited State  11:      Singlet-A     11.8906 eV  104.27 nm  f=0.1465  <S**2>=0.000
       8 -> 14        -0.10113
      10 -> 14         0.21777
      11 -> 17        -0.10250
      12 -> 15         0.34092
      12 -> 16        -0.31809
      12 -> 17         0.32438
      12 -> 19         0.15815
      12 -> 20        -0.15891

 Excited State  12:      Singlet-A     12.0933 eV  102.52 nm  f=0.0144  <S**2>=0.000
       7 -> 14        -0.11469
       9 -> 14         0.63829
      11 -> 15        -0.13623
      12 -> 16        -0.14506

 Excited State  13:      Singlet-A     12.2152 eV  101.50 nm  f=0.0294  <S**2>=0.000
       8 -> 14         0.16608
       9 -> 14         0.10428
      11 -> 16        -0.13109
      12 -> 16         0.46346
      12 -> 17         0.41364
      12 -> 18         0.11490

 Excited State  14:      Singlet-A     12.3145 eV  100.68 nm  f=0.0096  <S**2>=0.000
      13 -> 19         0.41729
      13 -> 20         0.51676

 Excited State  15:      Singlet-A     12.4986 eV   99.20 nm  f=0.0167  <S**2>=0.000
       8 -> 14         0.62462
       9 -> 14        -0.11366
      12 -> 15         0.20842
      12 -> 17        -0.12789

 The electronic state is 1-A.
 Alpha  occ. eigenvalues --   -3.68860  -1.22360  -0.92857  -0.92266  -0.87887
 Alpha  occ. eigenvalues --   -0.85718  -0.73700  -0.59691  -0.58560  -0.53999
 Alpha  occ. eigenvalues --   -0.46830  -0.44038  -0.34599
 Alpha virt. eigenvalues --    0.11395   0.23207   0.24385   0.25065   0.30754
 Alpha virt. eigenvalues --    0.35713   0.36899   0.38747   0.41041   0.44365
 Alpha virt. eigenvalues --    0.45840

 Mulliken charges:
               1
     1  C   -0.214012
     2  C   -1.624357
     3  O    2.916374
     4  C   -1.685452
     5  C   -0.367528
     6  H    0.228012
     7  H    0.268299
     8  H    0.255515
     9  H    0.223148
 Sum of Mulliken charges =   0.00000

 Dipole moment (field-independent basis, Debye):
    X=              1.6398    Y=            -10.9823    Z=              0.5746  Tot=             11.1189
 N-N= 1.018087879154D+02 E-N=-1.697924316688D+02  KE=-2.462126927217D+01
 Orbital energies and kinetic energies (alpha):
                                 1                 2
   1         O                -3.688601         -3.045084
   2         O                -1.223596         -1.237685
   3         O                -0.928570         -0.939867
   4         O                -0.922664         -0.894013
   5         O                -0.878868         -0.901762
   6         O                -0.857177         -1.008135
   7         O                -0.736999         -0.814376

 Normal termination of Gaussian 09 at Fri Dec 11 13:41:38 2015.
