 Gaussian 09, Revision D.01,
 Gaussian 09:  ES64L-G09RevD.01 24-Apr-2013

 -------------------------------------------------------
 #P B3LYP/3-21G CIS(Singlets,NStates=15) pop(full) force
 -------------------------------------------------------

 --------
 FuranDFT
 --------
 Symbolic Z-matrix:
 Charge =  0 Multiplicity = 1

                         Standard orientation:
 ---------------------------------------------------------------------
 Center     Atomic      Atomic             Coordinates (Angstroms)
 Number     Number       Type             X           Y           Z
 ---------------------------------------------------------------------
      1          6           0       -0.611481    1.018234   -0.012699
      2          6           0       -1.096582   -0.170793    0.015960
      3          8           0       -0.181562   -1.109748   -0.010608
      4          6           0        1.017743   -0.505011    0.001332
      5          6           0        0.894040    0.834652    0.013340
      6          1           0        1.602161    1.597933   -0.015683
      7          1           0        1.865715   -1.158445   -0.001804
      8          1           0       -2.192187   -0.563814    0.011929
      9          1           0       -1.045513    1.939813   -0.017174
 ---------------------------------------------------------------------

 SCF Done:  E(RB3LYP) =  -228.726715605     A.U. after   14 cycles

 Excitation energies and oscillator strengths:

 Excited State   1:      Singlet-A      7.5308 eV  164.64 nm  f=0.0192  <S**2>=0.000
      17 -> 19         0.50754
      18 -> 19         0.22761
      18 -> 20         0.42492
 This state for optimization and/or second-order correction.
 Total Energy, E(CIS) =  -228.449963059
 Copying the excited state density for this state as the 1-particle RhoCI density.

 Excited State   2:      Singlet-A      7.9316 eV  156.32 nm  f=0.1943  <S**2>=0.000
      17 -> 19        -0.11037
      18 -> 19         0.64040
      18 -> 20        -0.22472

 Excited State   3:      Singlet-A      8.9026 eV  139.27 nm  f=0.0005  <S**2>=0.000
      17 -> 21         0.11667
      18 -> 21         0.68388

 Excited State   4:      Singlet-A      9.1882 eV  134.94 nm  f=0.1147  <S**2>=0.000
      17 -> 19         0.18430
      17 -> 20         0.62764
      18 -> 20        -0.17561

 Excited State   5:      Singlet-A      9.3061 eV  133.23 nm  f=0.0066  <S**2>=0.000
      16 -> 19         0.68805

 Excited State   6:      Singlet-A      9.5669 eV  129.60 nm  f=0.0002  <S**2>=0.000
      15 -> 19        -0.10094
      17 -> 21        -0.11628
      18 -> 22         0.67069

 Excited State   7:      Singlet-A      9.6746 eV  128.15 nm  f=0.0012  <S**2>=0.000
      17 -> 21         0.67448
      18 -> 21        -0.10992
      18 -> 22         0.11272

 Excited State   8:      Singlet-A      9.9227 eV  124.95 nm  f=0.0003  <S**2>=0.000
      15 -> 19         0.59306
      16 -> 20        -0.11096
      18 -> 22         0.14125
      18 -> 23        -0.31784

 Excited State   9:      Singlet-A     10.0170 eV  123.77 nm  f=0.0177  <S**2>=0.000
      15 -> 19         0.32669
      18 -> 23         0.58704

 Excited State  10:      Singlet-A     10.2019 eV  121.53 nm  f=0.5336  <S**2>=0.000
      16 -> 26        -0.10118
      17 -> 19        -0.37884
      17 -> 20         0.24313
      18 -> 20         0.43394
      18 -> 23        -0.12805

 Excited State  11:      Singlet-A     10.4313 eV  118.86 nm  f=0.0176  <S**2>=0.000
      15 -> 20         0.10849
      16 -> 20        -0.43953
      17 -> 22         0.49576
      18 -> 23         0.10184

 Excited State  12:      Singlet-A     10.4407 eV  118.75 nm  f=0.0011  <S**2>=0.000
      15 -> 20        -0.10878
      16 -> 20         0.48807
      17 -> 22         0.47362

 Excited State  13:      Singlet-A     10.7611 eV  115.22 nm  f=0.0042  <S**2>=0.000
      17 -> 23         0.68419

 Excited State  14:      Singlet-A     11.0147 eV  112.56 nm  f=0.0012  <S**2>=0.000
      14 -> 19         0.12838
      15 -> 20         0.66101
      16 -> 20         0.13021
      18 -> 24         0.10304

 Excited State  15:      Singlet-A     11.0680 eV  112.02 nm  f=0.0015  <S**2>=0.000
      15 -> 20        -0.11486
      18 -> 24         0.67711
      18 -> 25        -0.12127

 The electronic state is 1-A.
 Alpha  occ. eigenvalues --  -19.11218 -10.17480 -10.17398 -10.12430 -10.11358
 Alpha  occ. eigenvalues --   -1.15378  -0.80432  -0.76247  -0.62012  -0.56004
 Alpha  occ. eigenvalues --   -0.55121  -0.46336  -0.45143  -0.43047  -0.38360
 Alpha  occ. eigenvalues --   -0.36034  -0.27171  -0.24354
 Alpha virt. eigenvalues --    0.03809   0.08089   0.12770   0.15830   0.16730
 Alpha virt. eigenvalues --    0.20338   0.21598   0.24376   0.38356   0.43044
 Alpha virt. eigenvalues --    0.47582   0.67778   0.69496   0.69894   0.75468

 Mulliken charges:
               1
     1  C   -0.282012
     2  C    0.159141
     3  O   -0.506234
     4  C    0.093266
     5  C   -0.255377
     6  H    0.188035
     7  H    0.215190
     8  H    0.201023
     9  H    0.186969
 Sum of Mulliken charges =   0.00000

 Dipole moment (field-independent basis, Debye):
    X=              0.1511    Y=              0.6468    Z=             -0.0162  Tot=              0.6645
 Quadrupole moment (field-independent basis, Debye-Ang):
   XX=            -24.0936   YY=            -27.7446   ZZ=            -31.5870
   XY=             -0.4894   XZ=             -0.0447   YZ=             -0.0851

 Normal termination of Gaussian 09 at Tue Dec 15 16:12:59 2015.
