 Gaussian 09, Revision D.01,
 Gaussian 09:  ES64L-G09RevD.01 24-Apr-2013

 ------------------------------------------------------------
 #P AM1(Input,print) CIS(Singlets,NStates=15) pop(full) force
 ------------------------------------------------------------

 -----------------
 AM1-Reparam Input
 -----------------
 Symbolic Z-matrix:
 Charge =  0 Multiplicity = 1

                         Standard orientation:
 ---------------------------------------------------------------------
 Center     Atomic      Atomic             Coordinates (Angstroms)
 Number     Number       Type             X           Y           Z
 ---------------------------------------------------------------------
      1          6           0        0.804052    0.840071    0.001280
      2          6           0        1.027364   -0.520018   -0.011118
      3          8           0       -0.188200   -1.107461    0.028342
      4          6           0       -1.102251   -0.202701   -0.025629
      5          6           0       -0.527351    1.054121   -0.014606
      6          1           0       -1.063821    1.971322    0.073959
      7          1           0       -2.176746   -0.569906    0.004219
      8          1           0        1.924076   -1.135306   -0.049914
      9          1           0        1.611208    1.564739    0.045441
 ---------------------------------------------------------------------

 SCF Done:  E(RAM1) =  0.353203878322E-01 A.U. after   13 cycles

 Excitation energies and oscillator strengths:

 Excited State   1:      Singlet-A      4.3417 eV  285.57 nm  f=0.1107  <S**2>=0.000
      12 -> 15         0.18549
      13 -> 14         0.66715
 This state for optimization and/or second-order correction.
 Total Energy, E(CIS) =  0.194873561198
 Copying the excited state density for this state as the 1-particle RhoCI density.

 Excited State   2:      Singlet-A      4.5238 eV  274.07 nm  f=0.0034  <S**2>=0.000
      13 -> 16         0.67367
      13 -> 21        -0.10108

 Excited State   3:      Singlet-A      4.9534 eV  250.30 nm  f=0.0250  <S**2>=0.000
      12 -> 14        -0.34709
      13 -> 15         0.61003

 Excited State   4:      Singlet-A      5.7834 eV  214.38 nm  f=0.0007  <S**2>=0.000
      12 -> 17        -0.12439
      12 -> 19         0.11773
      13 -> 17         0.36769
      13 -> 18         0.35437
      13 -> 19        -0.22869
      13 -> 21        -0.28834
      13 -> 22        -0.10284
      13 -> 23        -0.13030

 Excited State   5:      Singlet-A      5.9071 eV  209.89 nm  f=0.0022  <S**2>=0.000
      12 -> 18         0.16610
      12 -> 22        -0.11145
      13 -> 17        -0.14698
      13 -> 18         0.37352
      13 -> 19         0.39499
      13 -> 21        -0.11132
      13 -> 22        -0.17043
      13 -> 23         0.24796

 Excited State   6:      Singlet-A      6.2736 eV  197.63 nm  f=0.2474  <S**2>=0.000
      12 -> 14         0.51262
      12 -> 16         0.29183
      13 -> 15         0.28692

 Excited State   7:      Singlet-A      6.2926 eV  197.03 nm  f=0.0546  <S**2>=0.000
       7 -> 16        -0.13758
      12 -> 14        -0.23060
      12 -> 16         0.56890
      13 -> 15        -0.12636
      13 -> 17        -0.14947

 Excited State   8:      Singlet-A      6.4437 eV  192.41 nm  f=0.0224  <S**2>=0.000
      12 -> 14        -0.12255
      13 -> 17         0.45043
      13 -> 18        -0.21374
      13 -> 19         0.40439

 Excited State   9:      Singlet-A      6.6860 eV  185.44 nm  f=0.1676  <S**2>=0.000
      12 -> 15         0.66289
      13 -> 14        -0.16951

 Excited State  10:      Singlet-A      6.9687 eV  177.92 nm  f=0.0169  <S**2>=0.000
       9 -> 14         0.18999
      10 -> 14         0.39533
      10 -> 15         0.11669
      11 -> 14         0.43057
      11 -> 15        -0.24975

 Excited State  11:      Singlet-A      7.0990 eV  174.65 nm  f=0.0003  <S**2>=0.000
      12 -> 17        -0.12302
      12 -> 18         0.12831
      12 -> 19        -0.21181
      13 -> 16         0.12844
      13 -> 17         0.11354
      13 -> 18         0.29943
      13 -> 20        -0.14839
      13 -> 21         0.48777
      13 -> 22         0.15552

 Excited State  12:      Singlet-A      7.2806 eV  170.29 nm  f=0.0007  <S**2>=0.000
      10 -> 14         0.43599
      10 -> 15         0.28484
      11 -> 14        -0.41608
      11 -> 15         0.13023

 Excited State  13:      Singlet-A      7.4917 eV  165.50 nm  f=0.0093  <S**2>=0.000
      12 -> 17         0.17177
      12 -> 18        -0.19575
      12 -> 19         0.11710
      12 -> 20         0.20036
      12 -> 22        -0.22136
      12 -> 23        -0.25899
      13 -> 17         0.13645
      13 -> 20        -0.18889
      13 -> 22         0.24104
      13 -> 23         0.34405

 Excited State  14:      Singlet-A      7.5105 eV  165.08 nm  f=0.0038  <S**2>=0.000
      12 -> 18         0.38014
      12 -> 20         0.10914
      12 -> 21        -0.25070
      13 -> 17         0.17988
      13 -> 18        -0.15488
      13 -> 19        -0.24075
      13 -> 22        -0.11273
      13 -> 23         0.24233
      13 -> 24        -0.22978

 Excited State  15:      Singlet-A      7.6343 eV  162.40 nm  f=0.0011  <S**2>=0.000
       9 -> 15         0.11827
      12 -> 17        -0.24224
      12 -> 19         0.40713
      13 -> 18        -0.12837
      13 -> 20        -0.39522
      13 -> 21         0.14086
      13 -> 22        -0.13169

 The electronic state is 1-A.
 Alpha  occ. eigenvalues --   -1.61402  -1.25614  -1.09548  -0.83063  -0.81648
 Alpha  occ. eigenvalues --   -0.69173  -0.62516  -0.56797  -0.51448  -0.49690
 Alpha  occ. eigenvalues --   -0.49190  -0.40124  -0.33633
 Alpha virt. eigenvalues --    0.03297   0.06889   0.09192   0.13717   0.14735
 Alpha virt. eigenvalues --    0.15636   0.18371   0.18922   0.19075   0.20909
 Alpha virt. eigenvalues --    0.23255

 Mulliken charges:
               1
     1  C   -0.184452
     2  C   -0.157441
     3  O   -0.028543
     4  C   -0.118330
     5  C   -0.217222
     6  H    0.156303
     7  H    0.197692
     8  H    0.199093
     9  H    0.152900
 Sum of Mulliken charges =   0.00000

 Dipole moment (field-independent basis, Debye):
    X=             -0.0814    Y=              0.0268    Z=              0.1024  Tot=              0.1336
 N-N= 1.042955113756D+02 E-N=-1.723935181588D+02  KE=-1.664993386475D+01
 Orbital energies and kinetic energies (alpha):
                                 1                 2
   1         O                -1.614021         -1.344521
   2         O                -1.256137         -1.068434
   3         O                -1.095484         -0.951414
   4         O                -0.830634         -0.704568
   5         O                -0.816477         -0.720167
   6         O                -0.691732         -0.608171
   7         O                -0.625157         -0.501069

 Normal termination of Gaussian 09 at Tue Dec 15 16:14:40 2015.
