 Gaussian 09, Revision D.01,
 Gaussian 09:  ES64L-G09RevD.01 24-Apr-2013

 ------------------------------------------------------------
 #P AM1(Input,print) CIS(Singlets,NStates=15) pop(full) force
 ------------------------------------------------------------

 -----------------
 AM1-Reparam Input
 -----------------
 Symbolic Z-matrix:
 Charge =  0 Multiplicity = 1

                         Standard orientation:
 ---------------------------------------------------------------------
 Center     Atomic      Atomic             Coordinates (Angstroms)
 Number     Number       Type             X           Y           Z
 ---------------------------------------------------------------------
      1          6           0       -0.255349    1.154326   -0.018917
      2          6           0       -1.171603    0.043826    0.001751
      3          8           0       -0.444608   -1.028435    0.007647
      4          6           0        0.888982   -0.700744   -0.033743
      5          6           0        0.990899    0.587051    0.036535
      6          1           0        1.995673    1.179372   -0.013098
      7          1           0        1.550679   -1.601472    0.026153
      8          1           0       -2.157597    0.016672    0.021472
      9          1           0       -0.549466    2.126148   -0.009459
 ---------------------------------------------------------------------

 SCF Done:  E(RAM1) =   1.39420417244     A.U. after   13 cycles

 Excitation energies and oscillator strengths:

 Excited State   1:      Singlet-A      6.2346 eV  198.87 nm  f=0.3038  <S**2>=0.000
      13 -> 14         0.69208
 This state for optimization and/or second-order correction.
 Total Energy, E(CIS) =   1.62332076342
 Copying the excited state density for this state as the 1-particle RhoCI density.

 Excited State   2:      Singlet-A      6.4461 eV  192.34 nm  f=0.0017  <S**2>=0.000
      13 -> 15         0.62040
      13 -> 16         0.21949
      13 -> 17        -0.17328
      13 -> 18         0.11254

 Excited State   3:      Singlet-A      6.7942 eV  182.49 nm  f=0.0044  <S**2>=0.000
      12 -> 15        -0.12529
      13 -> 15        -0.24526
      13 -> 16         0.59904
      13 -> 17        -0.15269
      13 -> 20         0.11677
      13 -> 22         0.10051

 Excited State   4:      Singlet-A      7.6041 eV  163.05 nm  f=0.0014  <S**2>=0.000
       9 -> 14         0.10595
      11 -> 14         0.58443
      12 -> 14         0.34439

 Excited State   5:      Singlet-A      7.9023 eV  156.90 nm  f=0.0025  <S**2>=0.000
      10 -> 14        -0.13109
      12 -> 16        -0.12901
      13 -> 15         0.10687
      13 -> 16         0.15153
      13 -> 17         0.61961
      13 -> 20         0.14529

 Excited State   6:      Singlet-A      8.2027 eV  151.15 nm  f=0.0037  <S**2>=0.000
      10 -> 14        -0.10730
      13 -> 18         0.47825
      13 -> 21        -0.13049
      13 -> 22        -0.44696

 Excited State   7:      Singlet-A      8.2991 eV  149.40 nm  f=0.0039  <S**2>=0.000
      10 -> 14         0.66500
      13 -> 17         0.12593
      13 -> 18         0.12602

 Excited State   8:      Singlet-A      8.7220 eV  142.15 nm  f=0.0258  <S**2>=0.000
      11 -> 14        -0.31252
      11 -> 15         0.10704
      12 -> 14         0.54135
      13 -> 19         0.22746

 Excited State   9:      Singlet-A      8.8583 eV  139.96 nm  f=0.0064  <S**2>=0.000
      11 -> 16        -0.11933
      12 -> 15         0.23716
      12 -> 16         0.26901
      13 -> 18         0.35804
      13 -> 20         0.28085
      13 -> 21        -0.11349
      13 -> 22         0.32022

 Excited State  10:      Singlet-A      9.0817 eV  136.52 nm  f=0.0008  <S**2>=0.000
      13 -> 17        -0.13577
      13 -> 18        -0.21701
      13 -> 20         0.51579
      13 -> 21        -0.27986
      13 -> 22        -0.23073

 Excited State  11:      Singlet-A      9.3054 eV  133.24 nm  f=0.0061  <S**2>=0.000
      11 -> 16        -0.13943
      12 -> 15         0.23039
      12 -> 16         0.38412
      13 -> 16         0.18932
      13 -> 18        -0.16550
      13 -> 19         0.11385
      13 -> 21         0.23470
      13 -> 22        -0.31710

 Excited State  12:      Singlet-A      9.4380 eV  131.37 nm  f=0.0701  <S**2>=0.000
      10 -> 15         0.13919
      10 -> 17        -0.14267
      11 -> 16        -0.17944
      11 -> 17         0.22178
      12 -> 15         0.30702
      13 -> 18        -0.10853
      13 -> 19        -0.27235
      13 -> 20        -0.15865
      13 -> 21        -0.29960

 Excited State  13:      Singlet-A      9.5589 eV  129.71 nm  f=0.0990  <S**2>=0.000
       8 -> 15        -0.10054
      10 -> 15         0.15647
      10 -> 17        -0.13875
      11 -> 15         0.23871
      11 -> 16        -0.20774
      11 -> 17         0.17450
      11 -> 18         0.11069
      12 -> 15        -0.14854
      12 -> 17         0.13134
      13 -> 19        -0.13331
      13 -> 20         0.20912
      13 -> 21         0.39372

 Excited State  14:      Singlet-A      9.6857 eV  128.01 nm  f=0.1520  <S**2>=0.000
      10 -> 16        -0.11142
      10 -> 18        -0.10114
      11 -> 15         0.49522
      12 -> 14        -0.15682
      12 -> 15         0.27508
      13 -> 19         0.23448

 Excited State  15:      Singlet-A      9.8518 eV  125.85 nm  f=0.2411  <S**2>=0.000
       9 -> 15         0.11945
      10 -> 15         0.11772
      10 -> 17        -0.11721
      11 -> 15        -0.28431
      11 -> 17         0.21078
      11 -> 18         0.11343
      12 -> 14        -0.15782
      12 -> 16        -0.18051
      13 -> 19         0.42974

 The electronic state is 1-A.
 Alpha  occ. eigenvalues --   -1.91665  -1.20781  -0.97492  -0.79862  -0.78079
 Alpha  occ. eigenvalues --   -0.67996  -0.63719  -0.51884  -0.48140  -0.40550
 Alpha  occ. eigenvalues --   -0.38435  -0.37958  -0.26496
 Alpha virt. eigenvalues --    0.17442   0.20808   0.22707   0.26481   0.30265
 Alpha virt. eigenvalues --    0.31742   0.31863   0.34069   0.35191   0.41361
 Alpha virt. eigenvalues --    0.47679

 Mulliken charges:
               1
     1  C   -0.122474
     2  C   -1.634627
     3  O    2.817733
     4  C   -1.545343
     5  C    0.013468
     6  H    0.060415
     7  H    0.147954
     8  H    0.186665
     9  H    0.076208
 Sum of Mulliken charges =   0.00000

 Dipole moment (field-independent basis, Debye):
    X=             -3.1746    Y=             -8.2958    Z=              0.4107  Tot=              8.8920
 N-N= 1.044166827634D+02 E-N=-1.712181038017D+02  KE=-1.596572553769D+01
 Orbital energies and kinetic energies (alpha):
                                 1                 2
   1         O                -1.916647         -1.420127
   2         O                -1.207810         -1.079229
   3         O                -0.974920         -0.877596
   4         O                -0.798623         -0.652424
   5         O                -0.780786         -0.695132
   6         O                -0.679959         -0.623574
   7         O                -0.637185         -0.553997

 Normal termination of Gaussian 09 at Tue Dec 15 17:08:01 2015.
