 Gaussian 09, Revision D.01,
 Gaussian 09:  ES64L-G09RevD.01 24-Apr-2013

 ------------------------------------------------------------
 #P AM1(Input,print) CIS(Singlets,NStates=15) pop(full) force
 ------------------------------------------------------------

 -----------------
 AM1-Reparam Input
 -----------------
 Symbolic Z-matrix:
 Charge =  0 Multiplicity = 1

                         Standard orientation:
 ---------------------------------------------------------------------
 Center     Atomic      Atomic             Coordinates (Angstroms)
 Number     Number       Type             X           Y           Z
 ---------------------------------------------------------------------
      1          6           0       -0.685111    0.991015    0.021160
      2          6           0       -1.135127   -0.328947   -0.015221
      3          8           0       -0.036305   -1.156871   -0.007342
      4          6           0        1.072902   -0.396633    0.016351
      5          6           0        0.773493    0.935706   -0.028227
      6          1           0        1.464876    1.811487   -0.020138
      7          1           0        2.075037   -0.919432    0.058898
      8          1           0       -2.062794   -0.716989    0.015417
      9          1           0       -1.343626    1.873056    0.040183
 ---------------------------------------------------------------------

 SCF Done:  E(RAM1) =  -1.21240880346     A.U. after   13 cycles

 Excitation energies and oscillator strengths:

 Excited State   1:      Singlet-A      4.6120 eV  268.83 nm  f=0.0759  <S**2>=0.000
      12 -> 15         0.23960
      13 -> 14         0.65684
 This state for optimization and/or second-order correction.
 Total Energy, E(CIS) =  -1.04292103025
 Copying the excited state density for this state as the 1-particle RhoCI density.

 Excited State   2:      Singlet-A      5.0315 eV  246.42 nm  f=0.0015  <S**2>=0.000
      12 -> 14        -0.44856
      13 -> 15         0.52846
      13 -> 16         0.10922

 Excited State   3:      Singlet-A      5.2254 eV  237.27 nm  f=0.0004  <S**2>=0.000
      12 -> 14         0.10206
      13 -> 16         0.68814

 Excited State   4:      Singlet-A      5.8874 eV  210.59 nm  f=0.0049  <S**2>=0.000
       7 -> 16        -0.17772
      12 -> 16         0.65840

 Excited State   5:      Singlet-A      6.2196 eV  199.34 nm  f=0.3428  <S**2>=0.000
      11 -> 16         0.11745
      12 -> 14         0.44868
      12 -> 15         0.24532
      13 -> 15         0.40492

 Excited State   6:      Singlet-A      6.3117 eV  196.44 nm  f=0.2193  <S**2>=0.000
      12 -> 14        -0.19177
      12 -> 15         0.58291
      13 -> 14        -0.20329
      13 -> 15        -0.17237

 Excited State   7:      Singlet-A      6.5212 eV  190.13 nm  f=0.0110  <S**2>=0.000
       9 -> 14        -0.15798
       9 -> 15         0.18751
      10 -> 14         0.43584
      10 -> 15         0.13727
      11 -> 14         0.12824
      12 -> 15        -0.13575
      12 -> 18         0.14675
      13 -> 17         0.28387
      13 -> 19         0.20363

 Excited State   8:      Singlet-A      6.6839 eV  185.50 nm  f=0.0012  <S**2>=0.000
       9 -> 14         0.23064
       9 -> 15        -0.12475
      11 -> 15        -0.10608
      12 -> 17         0.30372
      12 -> 19         0.14597
      12 -> 21        -0.10602
      13 -> 18         0.48140
      13 -> 19         0.10080
      13 -> 20        -0.11188
      13 -> 22         0.11229

 Excited State   9:      Singlet-A      6.8060 eV  182.17 nm  f=0.0050  <S**2>=0.000
      10 -> 14        -0.34529
      10 -> 15        -0.14149
      11 -> 14        -0.13443
      12 -> 18         0.22661
      13 -> 17         0.44815
      13 -> 19         0.16294
      13 -> 21        -0.14312

 Excited State  10:      Singlet-A      6.9971 eV  177.19 nm  f=0.0023  <S**2>=0.000
       8 -> 14         0.10660
       9 -> 14         0.40566
       9 -> 15        -0.15640
      10 -> 15         0.23796
      11 -> 14         0.29603
      11 -> 15        -0.21298
      12 -> 17        -0.17621
      13 -> 17         0.12012
      13 -> 18        -0.18139

 Excited State  11:      Singlet-A      7.2415 eV  171.21 nm  f=0.0024  <S**2>=0.000
       9 -> 14        -0.26253
      10 -> 14        -0.16318
      10 -> 15        -0.11262
      11 -> 14         0.51461
      13 -> 17         0.16841
      13 -> 19        -0.15059
      13 -> 20        -0.10846
      13 -> 21         0.11652

 Excited State  12:      Singlet-A      7.3590 eV  168.48 nm  f=0.0029  <S**2>=0.000
       8 -> 14        -0.10780
       9 -> 14         0.21550
       9 -> 15        -0.23797
      11 -> 15         0.57327
      12 -> 17        -0.12854

 Excited State  13:      Singlet-A      7.4802 eV  165.75 nm  f=0.0005  <S**2>=0.000
      11 -> 15         0.12663
      12 -> 17         0.54206
      12 -> 20        -0.17625
      12 -> 21         0.13615
      13 -> 18        -0.29842

 Excited State  14:      Singlet-A      7.5863 eV  163.43 nm  f=0.0022  <S**2>=0.000
      10 -> 14         0.15116
      11 -> 14        -0.26639
      12 -> 18        -0.23751
      13 -> 17         0.37467
      13 -> 19        -0.25795
      13 -> 20        -0.14651
      13 -> 21         0.28568

 Excited State  15:      Singlet-A      8.0337 eV  154.33 nm  f=0.0106  <S**2>=0.000
       9 -> 14         0.17100
       9 -> 15         0.50355
      10 -> 14        -0.28039
      10 -> 15         0.23494
      11 -> 15         0.19946

 The electronic state is 1-A.
 Alpha  occ. eigenvalues --   -1.63413  -1.27554  -1.12652  -0.85707  -0.84326
 Alpha  occ. eigenvalues --   -0.72778  -0.65268  -0.59926  -0.53767  -0.53694
 Alpha  occ. eigenvalues --   -0.53206  -0.43820  -0.40218
 Alpha virt. eigenvalues --   -0.01842   0.01008   0.05632   0.11270   0.13836
 Alpha virt. eigenvalues --    0.14750   0.16167   0.17243   0.17659   0.18241
 Alpha virt. eigenvalues --    0.18446

 Mulliken charges:
               1
     1  C   -0.310879
     2  C   -0.289509
     3  O    0.085113
     4  C   -0.285240
     5  C   -0.320618
     6  H    0.273270
     7  H    0.301180
     8  H    0.278679
     9  H    0.268004
 Sum of Mulliken charges =   0.00000

 Dipole moment (field-independent basis, Debye):
    X=              0.2858    Y=              0.3657    Z=              0.1384  Tot=              0.4843
 N-N= 1.030033587953D+02 E-N=-1.701179236182D+02  KE=-1.798702609544D+01
 Orbital energies and kinetic energies (alpha):
                                 1                 2
   1         O                -1.634130         -1.390585
   2         O                -1.275539         -1.118124
   3         O                -1.126522         -1.012653
   4         O                -0.857071         -0.746972
   5         O                -0.843256         -0.774646
   6         O                -0.727784         -0.652900
   7         O                -0.652685         -0.551447

 Normal termination of Gaussian 09 at Sat Nov 14 17:36:38 2015.
