 Gaussian 09, Revision D.01,
 Gaussian 09:  ES64L-G09RevD.01 24-Apr-2013

 ------------------------------------------------------------
 #P AM1(Input,print) CIS(Singlets,NStates=15) pop(full) force
 ------------------------------------------------------------

 -----------------
 AM1-Reparam Input
 -----------------
 Symbolic Z-matrix:
 Charge =  0 Multiplicity = 1

                         Standard orientation:
 ---------------------------------------------------------------------
 Center     Atomic      Atomic             Coordinates (Angstroms)
 Number     Number       Type             X           Y           Z
 ---------------------------------------------------------------------
      1          6           0        0.998752    0.679922   -0.001949
      2          6           0        0.970490   -0.617294   -0.003461
      3          8           0       -0.401906   -1.116253   -0.007436
      4          6           0       -1.112923    0.025511    0.003450
      5          6           0       -0.424883    1.084749   -0.002005
      6          1           0       -0.759060    2.137273    0.008006
      7          1           0       -2.161964   -0.160181    0.024412
      8          1           0        1.666415   -1.403271    0.051075
      9          1           0        1.881249    1.318878   -0.000214
 ---------------------------------------------------------------------

 SCF Done:  E(RAM1) =   2.15528506159     A.U. after   14 cycles

 Excitation energies and oscillator strengths:

 Excited State   1:      Singlet-A      4.9691 eV  249.51 nm  f=0.3410  <S**2>=0.000
      13 -> 14         0.69680
 This state for optimization and/or second-order correction.
 Total Energy, E(CIS) =   2.33789715739
 Copying the excited state density for this state as the 1-particle RhoCI density.

 Excited State   2:      Singlet-A      5.8300 eV  212.67 nm  f=0.0015  <S**2>=0.000
      13 -> 15         0.66649
      13 -> 17         0.14808
      13 -> 18         0.13772

 Excited State   3:      Singlet-A      6.4549 eV  192.08 nm  f=0.0002  <S**2>=0.000
      12 -> 14         0.69299

 Excited State   4:      Singlet-A      6.5600 eV  189.00 nm  f=0.0038  <S**2>=0.000
      12 -> 14         0.10992
      13 -> 16         0.61514
      13 -> 18        -0.27570

 Excited State   5:      Singlet-A      7.4604 eV  166.19 nm  f=0.0012  <S**2>=0.000
      13 -> 15        -0.11514
      13 -> 16         0.23179
      13 -> 17         0.17596
      13 -> 18         0.50561
      13 -> 19        -0.23337
      13 -> 20         0.12237
      13 -> 21        -0.25130

 Excited State   6:      Singlet-A      7.7804 eV  159.35 nm  f=0.0127  <S**2>=0.000
      11 -> 14         0.66643
      13 -> 17         0.19334

 Excited State   7:      Singlet-A      7.9431 eV  156.09 nm  f=0.0119  <S**2>=0.000
      11 -> 14        -0.21229
      13 -> 15        -0.12987
      13 -> 17         0.61515
      13 -> 19         0.18024

 Excited State   8:      Singlet-A      8.6150 eV  143.92 nm  f=0.0028  <S**2>=0.000
      13 -> 16         0.14618
      13 -> 17        -0.11391
      13 -> 18         0.30043
      13 -> 19         0.57903
      13 -> 21         0.14512

 Excited State   9:      Singlet-A      8.8655 eV  139.85 nm  f=0.0514  <S**2>=0.000
      10 -> 14         0.62878
      12 -> 15        -0.18138
      13 -> 22        -0.18848

 Excited State  10:      Singlet-A      9.0474 eV  137.04 nm  f=0.1376  <S**2>=0.000
      10 -> 14         0.12246
      11 -> 17        -0.12954
      12 -> 15         0.50388
      12 -> 16        -0.24746
      12 -> 18         0.29647

 Excited State  11:      Singlet-A      9.1264 eV  135.85 nm  f=0.0096  <S**2>=0.000
      13 -> 18        -0.19099
      13 -> 19         0.24638
      13 -> 20         0.46845
      13 -> 21        -0.41796

 Excited State  12:      Singlet-A      9.4586 eV  131.08 nm  f=0.0704  <S**2>=0.000
      13 -> 19        -0.10302
      13 -> 20         0.49389
      13 -> 21         0.47772

 Excited State  13:      Singlet-A      9.5996 eV  129.16 nm  f=0.0260  <S**2>=0.000
      10 -> 14         0.13965
      11 -> 15         0.26083
      11 -> 17         0.19815
      12 -> 15         0.36785
      12 -> 16         0.25349
      12 -> 17         0.11431
      12 -> 18        -0.29009
      12 -> 19         0.17672

 Excited State  14:      Singlet-A      9.9972 eV  124.02 nm  f=0.1133  <S**2>=0.000
      10 -> 14         0.19911
      13 -> 22         0.65858

 Excited State  15:      Singlet-A     10.1657 eV  121.96 nm  f=0.1620  <S**2>=0.000
       8 -> 16         0.11583
       9 -> 16        -0.10576
      11 -> 16        -0.21712
      11 -> 17        -0.12061
      11 -> 18         0.10023
      12 -> 16         0.51227
      12 -> 18         0.19027
      12 -> 19        -0.22684
      12 -> 21        -0.11359

 The electronic state is 1-A.
 Alpha  occ. eigenvalues --   -1.93734  -1.20596  -0.97017  -0.81835  -0.78600
 Alpha  occ. eigenvalues --   -0.69201  -0.64873  -0.53354  -0.52217  -0.43917
 Alpha  occ. eigenvalues --   -0.42419  -0.38299  -0.25831
 Alpha virt. eigenvalues --    0.12525   0.18275   0.21887   0.27747   0.28659
 Alpha virt. eigenvalues --    0.30735   0.32321   0.32449   0.32922   0.42616
 Alpha virt. eigenvalues --    0.45538

 Mulliken charges:
               1
     1  C   -0.166756
     2  C   -1.930836
     3  O    3.162952
     4  C   -1.937195
     5  C   -0.321426
     6  H    0.257090
     7  H    0.357877
     8  H    0.334665
     9  H    0.243628
 Sum of Mulliken charges =   0.00000

 Dipole moment (field-independent basis, Debye):
    X=             -4.3304    Y=            -10.8587    Z=              0.0699  Tot=             11.6905
 N-N= 1.045055134918D+02 E-N=-1.699602684138D+02  KE=-1.550230892220D+01
 Orbital energies and kinetic energies (alpha):
                                 1                 2
   1         O                -1.937336         -1.364067
   2         O                -1.205961         -1.078332
   3         O                -0.970172         -0.900599
   4         O                -0.818345         -0.592636
   5         O                -0.786005         -0.678244
   6         O                -0.692013         -0.553473
   7         O                -0.648733         -0.525358

 Normal termination of Gaussian 09 at Tue Dec 15 17:07:29 2015.
