 Gaussian 09, Revision D.01,
 Gaussian 09:  ES64L-G09RevD.01 24-Apr-2013

 -------------------------------------------------------
 #P B3LYP/3-21G CIS(Singlets,NStates=15) pop(full) force
 -------------------------------------------------------

 --------
 FuranDFT
 --------
 Symbolic Z-matrix:
 Charge =  0 Multiplicity = 1

                         Standard orientation:
 ---------------------------------------------------------------------
 Center     Atomic      Atomic             Coordinates (Angstroms)
 Number     Number       Type             X           Y           Z
 ---------------------------------------------------------------------
      1          6           0        0.867254    0.750367   -0.006659
      2          6           0        1.031277   -0.573175    0.003733
      3          8           0       -0.267478   -1.103384   -0.017968
      4          6           0       -1.161435   -0.142458    0.039961
      5          6           0       -0.452088    1.109645   -0.021723
      6          1           0       -0.915346    2.034524    0.000670
      7          1           0       -2.163544   -0.350638   -0.026643
      8          1           0        1.785176   -1.221629    0.023659
      9          1           0        1.723492    1.498536    0.054184
 ---------------------------------------------------------------------

 SCF Done:  E(RB3LYP) =  -228.726688268     A.U. after   14 cycles

 Excitation energies and oscillator strengths:

 Excited State   1:      Singlet-A      7.0193 eV  176.63 nm  f=0.2028  <S**2>=0.000
      17 -> 19         0.18845
      18 -> 19         0.62619
      18 -> 20        -0.19443
 This state for optimization and/or second-order correction.
 Total Energy, E(CIS) =  -228.468732501
 Copying the excited state density for this state as the 1-particle RhoCI density.

 Excited State   2:      Singlet-A      7.2521 eV  170.96 nm  f=0.0432  <S**2>=0.000
      17 -> 19         0.48263
      18 -> 19        -0.26354
      18 -> 20        -0.42890

 Excited State   3:      Singlet-A      8.2306 eV  150.64 nm  f=0.0025  <S**2>=0.000
      16 -> 19        -0.22141
      18 -> 21         0.65691

 Excited State   4:      Singlet-A      8.2437 eV  150.40 nm  f=0.0050  <S**2>=0.000
      16 -> 19         0.66631
      18 -> 21         0.22442

 Excited State   5:      Singlet-A      9.1680 eV  135.24 nm  f=0.0194  <S**2>=0.000
      15 -> 19        -0.13295
      18 -> 20        -0.10879
      18 -> 22         0.66608

 Excited State   6:      Singlet-A      9.4269 eV  131.52 nm  f=0.3380  <S**2>=0.000
      15 -> 19         0.33813
      17 -> 19         0.34136
      17 -> 20         0.15182
      18 -> 20         0.39448
      18 -> 22         0.19044

 Excited State   7:      Singlet-A      9.6172 eV  128.92 nm  f=0.1530  <S**2>=0.000
      15 -> 19         0.58158
      16 -> 20        -0.11344
      17 -> 19        -0.22122
      18 -> 20        -0.24683

 Excited State   8:      Singlet-A      9.7656 eV  126.96 nm  f=0.0130  <S**2>=0.000
      17 -> 20         0.24334
      17 -> 21         0.64999

 Excited State   9:      Singlet-A     10.1544 eV  122.10 nm  f=0.1999  <S**2>=0.000
      16 -> 20        -0.13162
      17 -> 19        -0.11587
      17 -> 20         0.57692
      17 -> 21        -0.22108
      18 -> 23         0.15113
      18 -> 24         0.10822

 Excited State  10:      Singlet-A     10.2486 eV  120.98 nm  f=0.0193  <S**2>=0.000
      16 -> 20        -0.11264
      17 -> 20        -0.17036
      17 -> 21         0.10670
      18 -> 23         0.60018
      18 -> 24         0.23919

 Excited State  11:      Singlet-A     10.3252 eV  120.08 nm  f=0.0041  <S**2>=0.000
      17 -> 22        -0.10130
      18 -> 23        -0.26463
      18 -> 24         0.62779
      18 -> 25         0.10996

 Excited State  12:      Singlet-A     10.4660 eV  118.46 nm  f=0.0061  <S**2>=0.000
      14 -> 19        -0.29581
      15 -> 19         0.12342
      16 -> 20         0.59336
      18 -> 23         0.15101

 Excited State  13:      Singlet-A     10.6788 eV  116.10 nm  f=0.0008  <S**2>=0.000
      14 -> 19         0.26177
      18 -> 25         0.63105

 Excited State  14:      Singlet-A     10.6849 eV  116.04 nm  f=0.0032  <S**2>=0.000
      14 -> 19         0.55729
      16 -> 20         0.26767
      17 -> 22         0.16152
      18 -> 25        -0.26671

 Excited State  15:      Singlet-A     10.8021 eV  114.78 nm  f=0.0006  <S**2>=0.000
      14 -> 19        -0.13062
      16 -> 20        -0.11165
      17 -> 22         0.66620
      18 -> 24         0.10536

 The electronic state is 1-A.
 Alpha  occ. eigenvalues --  -19.11292 -10.17648 -10.16425 -10.12427 -10.11656
 Alpha  occ. eigenvalues --   -1.13075  -0.80795  -0.75211  -0.59882  -0.58811
 Alpha  occ. eigenvalues --   -0.54169  -0.47157  -0.44978  -0.42965  -0.39094
 Alpha  occ. eigenvalues --   -0.34952  -0.28355  -0.22355
 Alpha virt. eigenvalues --    0.01447   0.08752   0.12812   0.15590   0.19345
 Alpha virt. eigenvalues --    0.20038   0.21411   0.25058   0.33711   0.42172
 Alpha virt. eigenvalues --    0.49553   0.67172   0.69915   0.71280   0.75414

 Mulliken charges:
               1
     1  C   -0.233326
     2  C    0.060968
     3  O   -0.492803
     4  C    0.117103
     5  C   -0.261329
     6  H    0.183446
     7  H    0.223199
     8  H    0.221980
     9  H    0.180763
 Sum of Mulliken charges =   0.00000

 Dipole moment (field-independent basis, Debye):
    X=              0.1030    Y=              0.5450    Z=              0.0636  Tot=              0.5583
 Quadrupole moment (field-independent basis, Debye-Ang):
   XX=            -23.5981   YY=            -27.9522   ZZ=            -31.6520
   XY=             -0.9808   XZ=              0.2400   YZ=              0.0572

 Normal termination of Gaussian 09 at Tue Dec 15 16:31:16 2015.
