 Gaussian 09, Revision D.01,
 Gaussian 09:  ES64L-G09RevD.01 24-Apr-2013

 ------------------------------------------------------------
 #P AM1(Input,print) CIS(Singlets,NStates=15) pop(full) force
 ------------------------------------------------------------

 -----------------
 AM1-Reparam Input
 -----------------
 Symbolic Z-matrix:
 Charge =  0 Multiplicity = 1

                         Standard orientation:
 ---------------------------------------------------------------------
 Center     Atomic      Atomic             Coordinates (Angstroms)
 Number     Number       Type             X           Y           Z
 ---------------------------------------------------------------------
      1          6           0       -0.600845    1.011082   -0.011114
      2          6           0       -1.134477   -0.269980   -0.037861
      3          8           0       -0.093479   -1.155839    0.034801
      4          6           0        1.096304   -0.450574   -0.034439
      5          6           0        0.759577    0.910126    0.013513
      6          1           0        1.468851    1.740545    0.047492
      7          1           0        1.958711   -0.939815   -0.005863
      8          1           0       -2.157857   -0.646201    0.045303
      9          1           0       -1.245235    1.888258    0.054067
 ---------------------------------------------------------------------

 SCF Done:  E(RAM1) =   1.77423305501     A.U. after   14 cycles

 Excitation energies and oscillator strengths:

 Excited State   1:      Singlet-A      5.7952 eV  213.94 nm  f=0.3088  <S**2>=0.000
      13 -> 14         0.68454
 This state for optimization and/or second-order correction.
 Total Energy, E(CIS) =   1.98720320062
 Copying the excited state density for this state as the 1-particle RhoCI density.

 Excited State   2:      Singlet-A      7.0636 eV  175.53 nm  f=0.0101  <S**2>=0.000
      13 -> 15         0.66307
      13 -> 16         0.15528
      13 -> 17        -0.13126

 Excited State   3:      Singlet-A      7.5126 eV  165.03 nm  f=0.0014  <S**2>=0.000
      13 -> 15        -0.13384
      13 -> 16         0.65060
      13 -> 19         0.15110

 Excited State   4:      Singlet-A      7.8971 eV  157.00 nm  f=0.0007  <S**2>=0.000
      10 -> 14         0.12819
      11 -> 14         0.23861
      12 -> 14         0.64217

 Excited State   5:      Singlet-A      8.0807 eV  153.43 nm  f=0.0051  <S**2>=0.000
      10 -> 14        -0.38572
      11 -> 14         0.57031
      12 -> 14        -0.13645

 Excited State   6:      Singlet-A      8.6731 eV  142.95 nm  f=0.0001  <S**2>=0.000
      13 -> 17        -0.18863
      13 -> 18         0.60824
      13 -> 21        -0.25943

 Excited State   7:      Singlet-A      9.0524 eV  136.96 nm  f=0.1074  <S**2>=0.000
      10 -> 14         0.56595
      11 -> 14         0.32418
      12 -> 14        -0.23359

 Excited State   8:      Singlet-A      9.4491 eV  131.21 nm  f=0.0073  <S**2>=0.000
      10 -> 16        -0.14993
      13 -> 17         0.61309
      13 -> 18         0.20914

 Excited State   9:      Singlet-A      9.7819 eV  126.75 nm  f=0.1810  <S**2>=0.000
       9 -> 16         0.12855
      10 -> 15        -0.26488
      10 -> 17         0.15061
      11 -> 15         0.34358
      11 -> 16         0.18666
      11 -> 17        -0.14999
      11 -> 18        -0.17515
      12 -> 15        -0.14528
      12 -> 17         0.12222
      12 -> 18        -0.24461
      13 -> 14         0.15269

 Excited State  10:      Singlet-A     10.0541 eV  123.32 nm  f=0.0001  <S**2>=0.000
      10 -> 15         0.26285
      10 -> 16         0.15801
      11 -> 15         0.16587
      12 -> 15        -0.13413
      12 -> 16        -0.11007
      13 -> 18         0.10175
      13 -> 19         0.53692
      13 -> 21         0.12313

 Excited State  11:      Singlet-A     10.3830 eV  119.41 nm  f=0.0128  <S**2>=0.000
      10 -> 16         0.16317
      11 -> 15         0.42590
      11 -> 16        -0.22861
      11 -> 19        -0.12493
      12 -> 15         0.39914
      12 -> 16         0.10178
      12 -> 17        -0.12664

 Excited State  12:      Singlet-A     10.4906 eV  118.19 nm  f=0.0020  <S**2>=0.000
      10 -> 15         0.37704
      11 -> 15         0.25255
      12 -> 15        -0.25772
      12 -> 16        -0.15127
      13 -> 15        -0.11072
      13 -> 16         0.16904
      13 -> 19        -0.34521

 Excited State  13:      Singlet-A     10.6478 eV  116.44 nm  f=0.1470  <S**2>=0.000
      10 -> 15         0.21026
      10 -> 16         0.15861
      11 -> 15        -0.10228
      12 -> 16         0.57649
      12 -> 19         0.12899

 Excited State  14:      Singlet-A     10.7254 eV  115.60 nm  f=0.0012  <S**2>=0.000
      13 -> 18         0.24039
      13 -> 19        -0.16478
      13 -> 21         0.62402

 Excited State  15:      Singlet-A     10.8108 eV  114.69 nm  f=0.0678  <S**2>=0.000
      10 -> 16        -0.36761
      11 -> 16        -0.20834
      13 -> 17        -0.10084
      13 -> 20         0.51326

 The electronic state is 1-A.
 Alpha  occ. eigenvalues --   -1.98568  -1.27539  -1.00097  -0.88941  -0.86212
 Alpha  occ. eigenvalues --   -0.76988  -0.73623  -0.64558  -0.62309  -0.51929
 Alpha  occ. eigenvalues --   -0.51396  -0.51185  -0.38863
 Alpha virt. eigenvalues --    0.04394   0.11128   0.13075   0.19270   0.19918
 Alpha virt. eigenvalues --    0.22716   0.24782   0.26437   0.28578   0.36401
 Alpha virt. eigenvalues --    0.42058

 Mulliken charges:
               1
     1  C   -0.122016
     2  C   -1.923924
     3  O    3.187883
     4  C   -1.909811
     5  C   -0.105507
     6  H    0.158534
     7  H    0.264369
     8  H    0.290476
     9  H    0.159995
 Sum of Mulliken charges =   0.00000

 Dipole moment (field-independent basis, Debye):
    X=             -1.2527    Y=             -9.9688    Z=              1.2309  Tot=             10.1223
 N-N= 1.053735658847D+02 E-N=-1.701005169914D+02  KE=-1.565397605727D+01
 Orbital energies and kinetic energies (alpha):
                                 1                 2
   1         O                -1.985685         -1.362757
   2         O                -1.275387         -1.050908
   3         O                -1.000970         -0.880029
   4         O                -0.889415         -0.590361
   5         O                -0.862124         -0.699667
   6         O                -0.769881         -0.618890
   7         O                -0.736231         -0.547941

 Normal termination of Gaussian 09 at Tue Dec 15 17:08:58 2015.
