 Gaussian 09, Revision D.01,
 Gaussian 09:  ES64L-G09RevD.01 24-Apr-2013

 ------------------------------------------------------------
 #P AM1(Input,print) CIS(Singlets,NStates=15) pop(full) force
 ------------------------------------------------------------

 -----------------
 AM1-Reparam Input
 -----------------
 Symbolic Z-matrix:
 Charge =  0 Multiplicity = 1

                         Standard orientation:
 ---------------------------------------------------------------------
 Center     Atomic      Atomic             Coordinates (Angstroms)
 Number     Number       Type             X           Y           Z
 ---------------------------------------------------------------------
      1          6           0        0.793690    0.909031   -0.010062
      2          6           0        1.055359   -0.510029    0.011774
      3          8           0       -0.149891   -1.129275   -0.013064
      4          6           0       -1.121935   -0.230682   -0.006400
      5          6           0       -0.571771    1.008855    0.009104
      6          1           0       -1.136870    2.020088    0.001615
      7          1           0       -2.183792   -0.585309    0.049894
      8          1           0        1.969325   -1.125736    0.039170
      9          1           0        1.618412    1.662100   -0.012663
 ---------------------------------------------------------------------

 SCF Done:  E(RAM1) =   1.98742381568     A.U. after   13 cycles

 Excitation energies and oscillator strengths:

 Excited State   1:      Singlet-A      5.7520 eV  215.55 nm  f=0.3217  <S**2>=0.000
      13 -> 14         0.69010
 This state for optimization and/or second-order correction.
 Total Energy, E(CIS) =   2.19880643427
 Copying the excited state density for this state as the 1-particle RhoCI density.

 Excited State   2:      Singlet-A      7.0263 eV  176.46 nm  f=0.0110  <S**2>=0.000
      12 -> 14         0.56656
      13 -> 15        -0.35867
      13 -> 16        -0.14079
      13 -> 17         0.12343

 Excited State   3:      Singlet-A      7.0723 eV  175.31 nm  f=0.0070  <S**2>=0.000
      12 -> 14         0.39673
      13 -> 15         0.49069
      13 -> 16         0.22238
      13 -> 17        -0.16195

 Excited State   4:      Singlet-A      7.3881 eV  167.82 nm  f=0.0007  <S**2>=0.000
      13 -> 15        -0.24268
      13 -> 16         0.57143
      13 -> 18        -0.25135
      13 -> 21        -0.13180

 Excited State   5:      Singlet-A      7.6421 eV  162.24 nm  f=0.0040  <S**2>=0.000
      10 -> 14         0.49106
      11 -> 14        -0.47826
      12 -> 14         0.10341

 Excited State   6:      Singlet-A      8.4458 eV  146.80 nm  f=0.0007  <S**2>=0.000
      13 -> 16         0.13398
      13 -> 17         0.10596
      13 -> 18         0.25701
      13 -> 19         0.34663
      13 -> 21         0.50123

 Excited State   7:      Singlet-A      8.7022 eV  142.47 nm  f=0.1067  <S**2>=0.000
      10 -> 14         0.48447
      11 -> 14         0.50080

 Excited State   8:      Singlet-A      8.9452 eV  138.60 nm  f=0.0142  <S**2>=0.000
      10 -> 16        -0.12353
      11 -> 16        -0.13265
      13 -> 15         0.17304
      13 -> 17         0.60073
      13 -> 18        -0.18499
      13 -> 19         0.10692

 Excited State   9:      Singlet-A      9.3407 eV  132.73 nm  f=0.0011  <S**2>=0.000
      10 -> 15         0.11628
      10 -> 16         0.11999
      11 -> 15         0.12549
      11 -> 16         0.13894
      13 -> 16        -0.15350
      13 -> 17        -0.17209
      13 -> 18        -0.40513
      13 -> 19         0.43191

 Excited State  10:      Singlet-A      9.4698 eV  130.93 nm  f=0.1323  <S**2>=0.000
       9 -> 16         0.11264
      10 -> 15         0.22880
      10 -> 17        -0.13006
      11 -> 15        -0.21597
      11 -> 17         0.12751
      12 -> 15         0.28459
      12 -> 16         0.26636
      12 -> 17        -0.21933
      12 -> 19        -0.14720
      13 -> 14        -0.12176

 Excited State  11:      Singlet-A      9.6743 eV  128.16 nm  f=0.0099  <S**2>=0.000
      13 -> 18        -0.37718
      13 -> 19        -0.37775
      13 -> 21         0.44500

 Excited State  12:      Singlet-A      9.8833 eV  125.45 nm  f=0.0575  <S**2>=0.000
      12 -> 15         0.55135
      12 -> 16        -0.19687
      12 -> 18         0.27036

 Excited State  13:      Singlet-A     10.0828 eV  122.97 nm  f=0.0701  <S**2>=0.000
      13 -> 20         0.67211

 Excited State  14:      Singlet-A     10.1060 eV  122.68 nm  f=0.0054  <S**2>=0.000
      10 -> 15         0.35601
      10 -> 16         0.11380
      11 -> 15         0.41403
      11 -> 16         0.22201
      11 -> 17        -0.11203
      13 -> 16         0.18458
      13 -> 18         0.10952
      13 -> 21         0.10547

 Excited State  15:      Singlet-A     10.2418 eV  121.06 nm  f=0.0605  <S**2>=0.000
      10 -> 15         0.12040
      10 -> 16         0.39477
      10 -> 18        -0.12057
      10 -> 19         0.12241
      11 -> 16        -0.32218
      11 -> 18         0.11966
      11 -> 19        -0.11616
      12 -> 16        -0.12133
      12 -> 17         0.18199
      12 -> 18         0.12009
      12 -> 19         0.19799

 The electronic state is 1-A.
 Alpha  occ. eigenvalues --   -1.94218  -1.19693  -0.94270  -0.81461  -0.78226
 Alpha  occ. eigenvalues --   -0.67477  -0.65316  -0.55633  -0.53787  -0.43798
 Alpha  occ. eigenvalues --   -0.43615  -0.42017  -0.31647
 Alpha virt. eigenvalues --    0.11004   0.18113   0.19798   0.24374   0.26336
 Alpha virt. eigenvalues --    0.27369   0.29094   0.29541   0.37790   0.46033
 Alpha virt. eigenvalues --    0.51558

 Mulliken charges:
               1
     1  C   -0.185778
     2  C   -2.061304
     3  O    3.194963
     4  C   -2.037610
     5  C   -0.200195
     6  H    0.266065
     7  H    0.388380
     8  H    0.373504
     9  H    0.261976
 Sum of Mulliken charges =   0.00000

 Dipole moment (field-independent basis, Debye):
    X=             -1.7147    Y=             -9.0042    Z=             -0.0408  Tot=              9.1661
 N-N= 1.041678716170D+02 E-N=-1.694860264756D+02  KE=-1.545171084140D+01
 Orbital energies and kinetic energies (alpha):
                                 1                 2
   1         O                -1.942178         -1.406182
   2         O                -1.196933         -1.058924
   3         O                -0.942698         -0.840231
   4         O                -0.814606         -0.604717
   5         O                -0.782264         -0.673035
   6         O                -0.674767         -0.577577
   7         O                -0.653162         -0.523931

 Normal termination of Gaussian 09 at Tue Dec 15 17:07:13 2015.
