 Gaussian 09, Revision D.01,
 Gaussian 09:  ES64L-G09RevD.01 24-Apr-2013

 ------------------------------------------------------------
 #P AM1(Input,print) CIS(Singlets,NStates=15) pop(full) force
 ------------------------------------------------------------

 -----------------
 AM1-Reparam Input
 -----------------
 Symbolic Z-matrix:
 Charge =  0 Multiplicity = 1

                         Standard orientation:
 ---------------------------------------------------------------------
 Center     Atomic      Atomic             Coordinates (Angstroms)
 Number     Number       Type             X           Y           Z
 ---------------------------------------------------------------------
      1          6           0        0.476524    1.086467    0.033147
      2          6           0        1.157561   -0.080477   -0.016795
      3          8           0        0.259620   -1.161541   -0.013717
      4          6           0       -0.983331   -0.547575    0.051192
      5          6           0       -0.933816    0.784504   -0.032855
      6          1           0       -1.724804    1.440999   -0.075685
      7          1           0       -1.811747   -1.292232   -0.027602
      8          1           0        2.184792   -0.385207   -0.014027
      9          1           0        0.973178    2.071253    0.018917
 ---------------------------------------------------------------------

 SCF Done:  E(RAM1) =   2.07180611882     A.U. after   14 cycles

 Excitation energies and oscillator strengths:

 Excited State   1:      Singlet-A      5.2366 eV  236.77 nm  f=0.3371  <S**2>=0.000
      13 -> 14         0.69466
 This state for optimization and/or second-order correction.
 Total Energy, E(CIS) =   2.26424644335
 Copying the excited state density for this state as the 1-particle RhoCI density.

 Excited State   2:      Singlet-A      6.4761 eV  191.45 nm  f=0.0025  <S**2>=0.000
      13 -> 15         0.65057
      13 -> 17         0.17218
      13 -> 18         0.16609

 Excited State   3:      Singlet-A      6.7605 eV  183.39 nm  f=0.0016  <S**2>=0.000
      12 -> 14         0.63530
      13 -> 16         0.25572
      13 -> 18        -0.10704

 Excited State   4:      Singlet-A      6.8336 eV  181.43 nm  f=0.0048  <S**2>=0.000
      12 -> 14        -0.28931
      13 -> 16         0.58239
      13 -> 17         0.13032
      13 -> 18        -0.20449

 Excited State   5:      Singlet-A      7.7764 eV  159.44 nm  f=0.0137  <S**2>=0.000
      10 -> 14         0.34980
      11 -> 14         0.46417
      13 -> 15        -0.10912
      13 -> 17         0.19218
      13 -> 18         0.19075
      13 -> 19         0.20601
      13 -> 20        -0.11457

 Excited State   6:      Singlet-A      7.8391 eV  158.16 nm  f=0.0027  <S**2>=0.000
      10 -> 14        -0.24037
      11 -> 14        -0.30264
      13 -> 15        -0.12401
      13 -> 16         0.12097
      13 -> 17         0.22288
      13 -> 18         0.32087
      13 -> 19         0.31181
      13 -> 20        -0.23060

 Excited State   7:      Singlet-A      8.3710 eV  148.11 nm  f=0.0275  <S**2>=0.000
      13 -> 15        -0.11435
      13 -> 16        -0.16400
      13 -> 17         0.58660
      13 -> 18        -0.12320
      13 -> 19        -0.23338
      13 -> 20         0.14030

 Excited State   8:      Singlet-A      8.7502 eV  141.69 nm  f=0.0788  <S**2>=0.000
      10 -> 14         0.49636
      11 -> 14        -0.37027
      13 -> 18         0.20532
      13 -> 19        -0.19510

 Excited State   9:      Singlet-A      8.7653 eV  141.45 nm  f=0.0200  <S**2>=0.000
      10 -> 14        -0.21834
      11 -> 14         0.18769
      13 -> 16         0.13469
      13 -> 18         0.43062
      13 -> 19        -0.41805

 Excited State  10:      Singlet-A      9.4585 eV  131.08 nm  f=0.0362  <S**2>=0.000
       9 -> 15        -0.13717
      10 -> 17         0.10593
      11 -> 16         0.11169
      11 -> 17         0.12926
      12 -> 15         0.38321
      12 -> 16        -0.18292
      12 -> 17         0.14977
      12 -> 18         0.23524
      12 -> 19         0.18862
      13 -> 19         0.11473
      13 -> 20         0.25459

 Excited State  11:      Singlet-A      9.5230 eV  130.19 nm  f=0.0227  <S**2>=0.000
      12 -> 15        -0.17212
      12 -> 18        -0.10091
      13 -> 18         0.13791
      13 -> 19         0.27007
      13 -> 20         0.53216
      13 -> 21         0.20492

 Excited State  12:      Singlet-A      9.9025 eV  125.20 nm  f=0.0715  <S**2>=0.000
      12 -> 15         0.13726
      13 -> 20        -0.20276
      13 -> 21         0.63915

 Excited State  13:      Singlet-A     10.0198 eV  123.74 nm  f=0.0481  <S**2>=0.000
      11 -> 15        -0.33597
      11 -> 17        -0.14134
      12 -> 15         0.36130
      12 -> 16         0.31352
      12 -> 18        -0.15046
      12 -> 19        -0.19985
      13 -> 21        -0.12268

 Excited State  14:      Singlet-A     10.0641 eV  123.19 nm  f=0.2130  <S**2>=0.000
      10 -> 16         0.18443
      11 -> 15         0.13023
      11 -> 16         0.20628
      11 -> 17         0.12886
      12 -> 15        -0.11971
      12 -> 16         0.46463
      12 -> 17         0.23270
      12 -> 19         0.19177

 Excited State  15:      Singlet-A     10.2928 eV  120.46 nm  f=0.0310  <S**2>=0.000
       7 -> 15        -0.12043
       9 -> 15         0.14349
      10 -> 15         0.40703
      10 -> 16         0.13249
      10 -> 17         0.10224
      11 -> 15        -0.37435
      12 -> 15        -0.16981
      12 -> 16        -0.10318
      12 -> 19         0.14471
      13 -> 15        -0.11608

 The electronic state is 1-A.
 Alpha  occ. eigenvalues --   -1.92665  -1.19483  -0.94548  -0.81555  -0.78596
 Alpha  occ. eigenvalues --   -0.68252  -0.63585  -0.53832  -0.52818  -0.43553
 Alpha  occ. eigenvalues --   -0.42983  -0.40032  -0.27829
 Alpha virt. eigenvalues --    0.11966   0.18738   0.20564   0.26585   0.28197
 Alpha virt. eigenvalues --    0.30224   0.31307   0.32616   0.33500   0.43019
 Alpha virt. eigenvalues --    0.46356

 Mulliken charges:
               1
     1  C   -0.207360
     2  C   -1.973810
     3  O    3.171461
     4  C   -1.974483
     5  C   -0.217004
     6  H    0.246960
     7  H    0.354816
     8  H    0.348499
     9  H    0.250920
 Sum of Mulliken charges =   0.00000

 Dipole moment (field-independent basis, Debye):
    X=              2.2427    Y=            -11.1193    Z=             -0.6310  Tot=             11.3607
 N-N= 1.039218770594D+02 E-N=-1.690534378259D+02  KE=-1.545206540552D+01
 Orbital energies and kinetic energies (alpha):
                                 1                 2
   1         O                -1.926654         -1.355027
   2         O                -1.194833         -1.075570
   3         O                -0.945479         -0.877502
   4         O                -0.815551         -0.599332
   5         O                -0.785962         -0.666351
   6         O                -0.682519         -0.574082
   7         O                -0.635854         -0.518829

 Normal termination of Gaussian 09 at Tue Dec 15 17:07:29 2015.
