 Gaussian 09, Revision D.01,
 Gaussian 09:  ES64L-G09RevD.01 24-Apr-2013

 ------------------------------------------------------------
 #P AM1(Input,print) CIS(Singlets,NStates=15) pop(full) force
 ------------------------------------------------------------

 -----------------
 AM1-Reparam Input
 -----------------
 Symbolic Z-matrix:
 Charge =  0 Multiplicity = 1

                         Standard orientation:
 ---------------------------------------------------------------------
 Center     Atomic      Atomic             Coordinates (Angstroms)
 Number     Number       Type             X           Y           Z
 ---------------------------------------------------------------------
      1          6           0       -0.947164    0.716686   -0.010814
      2          6           0       -1.014519   -0.569908    0.008926
      3          8           0        0.305405   -1.133132   -0.007615
      4          6           0        1.159974   -0.111578   -0.002272
      5          6           0        0.462598    1.147134    0.014043
      6          1           0        0.936790    2.101913   -0.021668
      7          1           0        2.235390   -0.305277    0.012470
      8          1           0       -1.786927   -1.281373    0.020675
      9          1           0       -1.793824    1.455788   -0.009853
 ---------------------------------------------------------------------

 SCF Done:  E(RAM1) =  0.259271867587E-01 A.U. after   14 cycles

 Excitation energies and oscillator strengths:

 Excited State   1:      Singlet-A      4.3055 eV  287.97 nm  f=0.0918  <S**2>=0.000
      12 -> 15         0.17861
      13 -> 14         0.67117
 This state for optimization and/or second-order correction.
 Total Energy, E(CIS) =  0.184150695328
 Copying the excited state density for this state as the 1-particle RhoCI density.

 Excited State   2:      Singlet-A      4.7125 eV  263.10 nm  f=0.0002  <S**2>=0.000
      13 -> 16         0.68549

 Excited State   3:      Singlet-A      5.0174 eV  247.11 nm  f=0.0235  <S**2>=0.000
      12 -> 14        -0.34127
      13 -> 15         0.60778

 Excited State   4:      Singlet-A      5.3957 eV  229.78 nm  f=0.0004  <S**2>=0.000
      13 -> 17         0.47975
      13 -> 18         0.26984
      13 -> 20        -0.25111
      13 -> 21         0.16547
      13 -> 22         0.23586
      13 -> 23        -0.11772

 Excited State   5:      Singlet-A      5.8841 eV  210.71 nm  f=0.0012  <S**2>=0.000
       7 -> 16        -0.15668
      12 -> 16         0.65884
      12 -> 22         0.13848

 Excited State   6:      Singlet-A      6.1534 eV  201.49 nm  f=0.1737  <S**2>=0.000
      12 -> 14         0.46157
      13 -> 15         0.24039
      13 -> 17         0.18609
      13 -> 18        -0.33000
      13 -> 23        -0.11591

 Excited State   7:      Singlet-A      6.1746 eV  200.80 nm  f=0.1136  <S**2>=0.000
      12 -> 14         0.35792
      13 -> 15         0.19832
      13 -> 17        -0.23648
      13 -> 18         0.41807
      13 -> 23         0.15158

 Excited State   8:      Singlet-A      6.4896 eV  191.05 nm  f=0.0598  <S**2>=0.000
      11 -> 14         0.11502
      12 -> 15         0.39919
      12 -> 19        -0.13439
      12 -> 21        -0.11592
      12 -> 23        -0.15738
      13 -> 19         0.37404
      13 -> 21         0.17624
      13 -> 22         0.12532
      13 -> 23         0.10273

 Excited State   9:      Singlet-A      6.5063 eV  190.56 nm  f=0.0987  <S**2>=0.000
      12 -> 15         0.52110
      12 -> 19         0.10749
      12 -> 23         0.12591
      13 -> 14        -0.12746
      13 -> 19        -0.29735
      13 -> 21        -0.12979

 Excited State  10:      Singlet-A      6.6463 eV  186.55 nm  f=0.0017  <S**2>=0.000
      10 -> 14        -0.29409
      11 -> 14         0.55204
      11 -> 15         0.23655
      13 -> 19        -0.11024

 Excited State  11:      Singlet-A      7.0537 eV  175.77 nm  f=0.0094  <S**2>=0.000
      12 -> 17        -0.15711
      12 -> 18         0.24727
      12 -> 19         0.22392
      12 -> 23         0.14166
      13 -> 19         0.41858
      13 -> 21        -0.33249
      13 -> 24        -0.15187

 Excited State  12:      Singlet-A      7.1651 eV  173.04 nm  f=0.0022  <S**2>=0.000
       7 -> 16        -0.10221
      12 -> 18         0.46461
      13 -> 17        -0.18366
      13 -> 18        -0.22946
      13 -> 19        -0.11776
      13 -> 21         0.10552
      13 -> 22         0.34021

 Excited State  13:      Singlet-A      7.2953 eV  169.95 nm  f=0.0026  <S**2>=0.000
      12 -> 17        -0.10200
      12 -> 18        -0.26059
      12 -> 19         0.25525
      12 -> 21         0.16747
      12 -> 22         0.12247
      13 -> 17        -0.20493
      13 -> 20         0.16229
      13 -> 21         0.11613
      13 -> 22         0.33919
      13 -> 23        -0.25731
      13 -> 24        -0.12334

 Excited State  14:      Singlet-A      7.5227 eV  164.81 nm  f=0.0007  <S**2>=0.000
       9 -> 14         0.12822
       9 -> 15        -0.16157
      10 -> 14         0.56721
      11 -> 14         0.29851

 Excited State  15:      Singlet-A      7.6877 eV  161.28 nm  f=0.0009  <S**2>=0.000
       9 -> 15        -0.11522
      10 -> 15         0.34290
      11 -> 14        -0.12028
      11 -> 15         0.41152
      12 -> 17         0.22033
      13 -> 21        -0.14761
      13 -> 23        -0.16649
      13 -> 24         0.10842

 The electronic state is 1-A.
 Alpha  occ. eigenvalues --   -1.54272  -1.23008  -1.09100  -0.82184  -0.80253
 Alpha  occ. eigenvalues --   -0.67975  -0.59297  -0.56849  -0.51771  -0.49600
 Alpha  occ. eigenvalues --   -0.48421  -0.39848  -0.33925
 Alpha virt. eigenvalues --    0.02982   0.06377   0.08953   0.13631   0.14148
 Alpha virt. eigenvalues --    0.16257   0.17337   0.17997   0.18919   0.20951
 Alpha virt. eigenvalues --    0.22198

 Mulliken charges:
               1
     1  C   -0.171350
     2  C   -0.096085
     3  O   -0.099504
     4  C   -0.084860
     5  C   -0.245770
     6  H    0.165792
     7  H    0.189841
     8  H    0.181615
     9  H    0.160322
 Sum of Mulliken charges =   0.00000

 Dipole moment (field-independent basis, Debye):
    X=             -0.0481    Y=              0.4549    Z=             -0.0164  Tot=              0.4578
 N-N= 1.028393122451D+02 E-N=-1.700170614479D+02  KE=-1.647961527816D+01
 Orbital energies and kinetic energies (alpha):
                                 1                 2
   1         O                -1.542717         -1.294455
   2         O                -1.230082         -1.045427
   3         O                -1.091002         -0.957620
   4         O                -0.821843         -0.712384
   5         O                -0.802532         -0.714675
   6         O                -0.679755         -0.599822
   7         O                -0.592968         -0.481258

 Normal termination of Gaussian 09 at Tue Dec 15 16:13:46 2015.
