 Gaussian 09, Revision D.01,
 Gaussian 09:  ES64L-G09RevD.01 24-Apr-2013

 ------------------------------------------------------------
 #P AM1(Input,print) CIS(Singlets,NStates=15) pop(full) force
 ------------------------------------------------------------

 -----------------
 AM1-Reparam Input
 -----------------
 Symbolic Z-matrix:
 Charge =  0 Multiplicity = 1

                         Standard orientation:
 ---------------------------------------------------------------------
 Center     Atomic      Atomic             Coordinates (Angstroms)
 Number     Number       Type             X           Y           Z
 ---------------------------------------------------------------------
      1          6           0        0.284427    1.155142   -0.014745
      2          6           0       -1.009958    0.597668   -0.004234
      3          8           0       -0.898506   -0.785851    0.003526
      4          6           0        0.448782   -1.041636    0.009463
      5          6           0        1.206793    0.132270   -0.010155
      6          1           0        2.319277    0.109767    0.026051
      7          1           0        0.757952   -2.073515   -0.015654
      8          1           0       -1.915603    0.955824    0.004693
      9          1           0        0.446161    2.234072    0.074725
 ---------------------------------------------------------------------

 SCF Done:  E(RAM1) =   1.68738359756     A.U. after   14 cycles

 Excitation energies and oscillator strengths:

 Excited State   1:      Singlet-A      5.7090 eV  217.17 nm  f=0.3040  <S**2>=0.000
      13 -> 14         0.68840
 This state for optimization and/or second-order correction.
 Total Energy, E(CIS) =   1.89718520252
 Copying the excited state density for this state as the 1-particle RhoCI density.

 Excited State   2:      Singlet-A      6.6467 eV  186.54 nm  f=0.0073  <S**2>=0.000
      13 -> 15         0.61863
      13 -> 16         0.17950
      13 -> 17        -0.23328

 Excited State   3:      Singlet-A      7.1803 eV  172.67 nm  f=0.0039  <S**2>=0.000
      12 -> 15        -0.11349
      13 -> 15        -0.17363
      13 -> 16         0.61144
      13 -> 19        -0.18852
      13 -> 21        -0.10715

 Excited State   4:      Singlet-A      7.4674 eV  166.03 nm  f=0.0022  <S**2>=0.000
      11 -> 14         0.58249
      12 -> 14        -0.31470
      13 -> 18        -0.11129
      13 -> 21         0.15932

 Excited State   5:      Singlet-A      7.8884 eV  157.17 nm  f=0.0077  <S**2>=0.000
      10 -> 14         0.28377
      11 -> 14        -0.13514
      12 -> 14         0.13330
      13 -> 15        -0.14349
      13 -> 17        -0.37826
      13 -> 18        -0.12772
      13 -> 21         0.41768

 Excited State   6:      Singlet-A      8.0916 eV  153.23 nm  f=0.0014  <S**2>=0.000
      10 -> 14         0.61511
      12 -> 14         0.10210
      13 -> 17         0.11852
      13 -> 21        -0.26668

 Excited State   7:      Singlet-A      8.1898 eV  151.39 nm  f=0.0079  <S**2>=0.000
      12 -> 16        -0.13815
      13 -> 15         0.13035
      13 -> 17         0.48077
      13 -> 18        -0.25682
      13 -> 21         0.34723

 Excited State   8:      Singlet-A      8.6827 eV  142.79 nm  f=0.1013  <S**2>=0.000
      10 -> 14        -0.13095
      11 -> 14         0.33542
      12 -> 14         0.58358

 Excited State   9:      Singlet-A      8.7082 eV  142.38 nm  f=0.0026  <S**2>=0.000
      12 -> 15        -0.10270
      13 -> 16         0.10051
      13 -> 17         0.13020
      13 -> 18         0.60035
      13 -> 19         0.12163
      13 -> 21         0.22960

 Excited State  10:      Singlet-A      8.8593 eV  139.95 nm  f=0.0003  <S**2>=0.000
      13 -> 16         0.12026
      13 -> 18        -0.13986
      13 -> 19         0.63400
      13 -> 21        -0.15893

 Excited State  11:      Singlet-A      9.2953 eV  133.38 nm  f=0.0972  <S**2>=0.000
      12 -> 16        -0.11917
      13 -> 20         0.67516

 Excited State  12:      Singlet-A      9.4539 eV  131.15 nm  f=0.0505  <S**2>=0.000
       8 -> 15        -0.12160
       9 -> 15         0.12624
       9 -> 19         0.11455
      10 -> 15        -0.22751
      10 -> 16        -0.25819
      10 -> 17         0.27502
      10 -> 21         0.10999
      11 -> 15         0.25356
      11 -> 17        -0.12181
      11 -> 18         0.11389
      11 -> 21         0.15792
      12 -> 15        -0.22103
      12 -> 17         0.12891
      13 -> 14        -0.11053

 Excited State  13:      Singlet-A      9.6611 eV  128.33 nm  f=0.0011  <S**2>=0.000
      11 -> 15         0.32688
      12 -> 15         0.48886
      12 -> 16         0.17522
      12 -> 17        -0.11506
      13 -> 15        -0.15421
      13 -> 16         0.15413

 Excited State  14:      Singlet-A     10.1030 eV  122.72 nm  f=0.2583  <S**2>=0.000
       6 -> 15         0.10279
       8 -> 15        -0.15593
       8 -> 16         0.12899
       9 -> 15         0.14659
      10 -> 15         0.11269
      10 -> 16         0.13664
      10 -> 19        -0.15572
      11 -> 15         0.31417
      11 -> 17         0.17849
      11 -> 18        -0.14410
      11 -> 19         0.19678
      11 -> 20        -0.16892
      11 -> 21        -0.13029
      12 -> 15        -0.17617
      12 -> 19        -0.12520
      12 -> 20         0.10545

 Excited State  15:      Singlet-A     10.1609 eV  122.02 nm  f=0.0101  <S**2>=0.000
      10 -> 15        -0.14276
      10 -> 17         0.11940
      11 -> 15        -0.16045
      11 -> 16        -0.15395
      11 -> 17         0.12096
      12 -> 16         0.50851
      12 -> 18        -0.11628
      12 -> 19        -0.10330
      12 -> 20        -0.12380

 The electronic state is 1-A.
 Alpha  occ. eigenvalues --   -1.89831  -1.21799  -0.98311  -0.81559  -0.81061
 Alpha  occ. eigenvalues --   -0.68589  -0.62151  -0.53774  -0.52007  -0.42946
 Alpha  occ. eigenvalues --   -0.41504  -0.41155  -0.29071
 Alpha virt. eigenvalues --    0.13380   0.18742   0.21286   0.24490   0.26535
 Alpha virt. eigenvalues --    0.28651   0.28745   0.30302   0.35700   0.44957
 Alpha virt. eigenvalues --    0.49155

 Mulliken charges:
               1
     1  C   -0.095352
     2  C   -1.956169
     3  O    3.182146
     4  C   -1.968644
     5  C   -0.100714
     6  H    0.176563
     7  H    0.301737
     8  H    0.287327
     9  H    0.173106
 Sum of Mulliken charges =   0.00000

 Dipole moment (field-independent basis, Debye):
    X=             -7.4556    Y=             -7.2450    Z=              0.0707  Tot=             10.3962
 N-N= 1.035141470399D+02 E-N=-1.686624001767D+02  KE=-1.571595658682D+01
 Orbital energies and kinetic energies (alpha):
                                 1                 2
   1         O                -1.898306         -1.356351
   2         O                -1.217993         -1.106044
   3         O                -0.983111         -0.909359
   4         O                -0.815589         -0.701954
   5         O                -0.810612         -0.642371
   6         O                -0.685895         -0.587200
   7         O                -0.621506         -0.507707

 Normal termination of Gaussian 09 at Tue Dec 15 17:07:02 2015.
