 Gaussian 09, Revision D.01,
 Gaussian 09:  ES64L-G09RevD.01 24-Apr-2013

 ------------------------------------------------------------
 #P AM1(Input,print) CIS(Singlets,NStates=15) pop(full) force
 ------------------------------------------------------------

 -----------------
 AM1-Reparam Input
 -----------------
 Symbolic Z-matrix:
 Charge =  0 Multiplicity = 1

                         Standard orientation:
 ---------------------------------------------------------------------
 Center     Atomic      Atomic             Coordinates (Angstroms)
 Number     Number       Type             X           Y           Z
 ---------------------------------------------------------------------
      1          6           0        0.742803    0.936896   -0.010631
      2          6           0        1.121547   -0.390514   -0.001570
      3          8           0       -0.036720   -1.126727   -0.003046
      4          6           0       -1.137069   -0.293390   -0.004775
      5          6           0       -0.695913    0.939560    0.009100
      6          1           0       -1.292563    1.819857   -0.003905
      7          1           0       -2.080019   -0.819037    0.021126
      8          1           0        2.038956   -0.905150    0.038451
      9          1           0        1.439177    1.762834    0.015956
 ---------------------------------------------------------------------

 SCF Done:  E(RAM1) =   1.73324582273     A.U. after   13 cycles

 Excitation energies and oscillator strengths:

 Excited State   1:      Singlet-A      5.3461 eV  231.91 nm  f=0.3661  <S**2>=0.000
      13 -> 14         0.69417
 This state for optimization and/or second-order correction.
 Total Energy, E(CIS) =   1.92971270408
 Copying the excited state density for this state as the 1-particle RhoCI density.

 Excited State   2:      Singlet-A      6.9797 eV  177.63 nm  f=0.0005  <S**2>=0.000
      12 -> 14         0.70153

 Excited State   3:      Singlet-A      7.2005 eV  172.19 nm  f=0.0020  <S**2>=0.000
      10 -> 15         0.10800
      13 -> 15         0.66969
      13 -> 17        -0.10340

 Excited State   4:      Singlet-A      7.2806 eV  170.29 nm  f=0.0037  <S**2>=0.000
      13 -> 16         0.66075
      13 -> 17        -0.14540
      13 -> 19        -0.11813

 Excited State   5:      Singlet-A      7.8854 eV  157.23 nm  f=0.0058  <S**2>=0.000
      11 -> 14         0.70076

 Excited State   6:      Singlet-A      8.7094 eV  142.36 nm  f=0.0003  <S**2>=0.000
      13 -> 16         0.10597
      13 -> 18         0.62734
      13 -> 22         0.25337

 Excited State   7:      Singlet-A      9.1968 eV  134.81 nm  f=0.0114  <S**2>=0.000
      13 -> 16         0.10826
      13 -> 17         0.66334
      13 -> 18        -0.10469

 Excited State   8:      Singlet-A      9.4402 eV  131.34 nm  f=0.0759  <S**2>=0.000
      10 -> 14         0.66099
      12 -> 15        -0.13032
      13 -> 21         0.11412

 Excited State   9:      Singlet-A      9.7647 eV  126.97 nm  f=0.0000  <S**2>=0.000
      13 -> 19         0.67509

 Excited State  10:      Singlet-A      9.9692 eV  124.37 nm  f=0.0304  <S**2>=0.000
      10 -> 14         0.12974
      11 -> 15        -0.13429
      11 -> 16        -0.12196
      11 -> 17         0.22319
      12 -> 15         0.30176
      12 -> 16        -0.31656
      12 -> 18         0.34644

 Excited State  11:      Singlet-A     10.3131 eV  120.22 nm  f=0.1504  <S**2>=0.000
      11 -> 15         0.23697
      11 -> 17        -0.12140
      12 -> 15         0.57143
      12 -> 16         0.12433
      12 -> 17        -0.13411
      12 -> 18        -0.11137

 Excited State  12:      Singlet-A     10.5816 eV  117.17 nm  f=0.0474  <S**2>=0.000
      13 -> 18         0.19443
      13 -> 20         0.53235
      13 -> 22        -0.39383

 Excited State  13:      Singlet-A     10.6679 eV  116.22 nm  f=0.1673  <S**2>=0.000
      11 -> 16        -0.42755
      11 -> 17         0.15544
      12 -> 16         0.46992
      12 -> 18         0.12978

 Excited State  14:      Singlet-A     10.7338 eV  115.51 nm  f=0.0521  <S**2>=0.000
      13 -> 18        -0.16358
      13 -> 20         0.43528
      13 -> 22         0.51415

 Excited State  15:      Singlet-A     10.9206 eV  113.53 nm  f=0.0613  <S**2>=0.000
      10 -> 14        -0.13381
      11 -> 15         0.13427
      11 -> 16        -0.15471
      13 -> 21         0.64028

 The electronic state is 1-A.
 Alpha  occ. eigenvalues --   -1.91154  -1.17455  -0.93562  -0.82453  -0.78804
 Alpha  occ. eigenvalues --   -0.70098  -0.67928  -0.58542  -0.55892  -0.47908
 Alpha  occ. eigenvalues --   -0.44970  -0.42171  -0.30420
 Alpha virt. eigenvalues --    0.10064   0.18681   0.19762   0.26996   0.28222
 Alpha virt. eigenvalues --    0.30067   0.32398   0.32803   0.34614   0.41093
 Alpha virt. eigenvalues --    0.45539

 Mulliken charges:
               1
     1  C   -0.206661
     2  C   -2.035812
     3  O    3.314045
     4  C   -1.994090
     5  C   -0.167698
     6  H    0.214644
     7  H    0.326286
     8  H    0.332734
     9  H    0.216550
 Sum of Mulliken charges =   0.00000

 Dipole moment (field-independent basis, Debye):
    X=             -0.6047    Y=            -10.5880    Z=              0.1515  Tot=             10.6064
 N-N= 1.038433647553D+02 E-N=-1.690913062299D+02  KE=-1.550177882902D+01
 Orbital energies and kinetic energies (alpha):
                                 1                 2
   1         O                -1.911544         -1.365095
   2         O                -1.174546         -1.039599
   3         O                -0.935620         -0.890612
   4         O                -0.824528         -0.577682
   5         O                -0.788037         -0.698183
   6         O                -0.700981         -0.589287
   7         O                -0.679280         -0.537706

 Normal termination of Gaussian 09 at Tue Dec 15 17:09:39 2015.
