 Gaussian 09, Revision D.01,
 Gaussian 09:  ES64L-G09RevD.01 24-Apr-2013

 ------------------------------------------------------------
 #P AM1(Input,print) CIS(Singlets,NStates=15) pop(full) force
 ------------------------------------------------------------

 -----------------
 AM1-Reparam Input
 -----------------
 Symbolic Z-matrix:
 Charge =  0 Multiplicity = 1

                         Standard orientation:
 ---------------------------------------------------------------------
 Center     Atomic      Atomic             Coordinates (Angstroms)
 Number     Number       Type             X           Y           Z
 ---------------------------------------------------------------------
      1          6           0        0.426935    1.086993    0.006452
      2          6           0        1.158484   -0.062068    0.034016
      3          8           0        0.323832   -1.092775   -0.013920
      4          6           0       -0.987586   -0.654582   -0.000887
      5          6           0       -0.950789    0.774502   -0.023468
      6          1           0       -1.781889    1.417671    0.030627
      7          1           0       -1.744242   -1.345937    0.070045
      8          1           0        2.197984   -0.256572   -0.078761
      9          1           0        0.855220    2.057965   -0.007227
 ---------------------------------------------------------------------

 SCF Done:  E(RAM1) =   2.50252455425     A.U. after   13 cycles

 Excitation energies and oscillator strengths:

 Excited State   1:      Singlet-A      5.4923 eV  225.74 nm  f=0.3407  <S**2>=0.000
      13 -> 14         0.69359
 This state for optimization and/or second-order correction.
 Total Energy, E(CIS) =   2.70436377881
 Copying the excited state density for this state as the 1-particle RhoCI density.

 Excited State   2:      Singlet-A      6.6609 eV  186.14 nm  f=0.0076  <S**2>=0.000
      11 -> 15         0.10329
      13 -> 15         0.64201
      13 -> 16         0.16542
      13 -> 17         0.18496

 Excited State   3:      Singlet-A      6.9654 eV  178.00 nm  f=0.0006  <S**2>=0.000
       9 -> 14        -0.14370
      12 -> 14         0.68280

 Excited State   4:      Singlet-A      7.0673 eV  175.43 nm  f=0.0028  <S**2>=0.000
      13 -> 15        -0.14696
      13 -> 16         0.63093
      13 -> 18         0.14992
      13 -> 19         0.14670

 Excited State   5:      Singlet-A      7.8512 eV  157.92 nm  f=0.0049  <S**2>=0.000
      10 -> 14         0.69128

 Excited State   6:      Singlet-A      8.1830 eV  151.51 nm  f=0.0001  <S**2>=0.000
      13 -> 16        -0.11185
      13 -> 17         0.11839
      13 -> 18         0.55973
      13 -> 19        -0.16104
      13 -> 21        -0.33469

 Excited State   7:      Singlet-A      8.6313 eV  143.65 nm  f=0.0126  <S**2>=0.000
      11 -> 14        -0.15910
      11 -> 15        -0.11548
      11 -> 16         0.12388
      13 -> 15        -0.15596
      13 -> 17         0.61499
      13 -> 18        -0.12265
      13 -> 19        -0.10101

 Excited State   8:      Singlet-A      8.6653 eV  143.08 nm  f=0.1073  <S**2>=0.000
      11 -> 14         0.67119
      13 -> 17         0.13997

 Excited State   9:      Singlet-A      9.2730 eV  133.70 nm  f=0.0016  <S**2>=0.000
      11 -> 15         0.10708
      11 -> 16         0.19709
      13 -> 16        -0.11053
      13 -> 17         0.10413
      13 -> 19         0.62385

 Excited State  10:      Singlet-A      9.5342 eV  130.04 nm  f=0.0620  <S**2>=0.000
       9 -> 15         0.17535
      10 -> 15         0.31632
      10 -> 16         0.14146
      10 -> 17         0.21594
      12 -> 15         0.31308
      12 -> 16         0.21157
      12 -> 17         0.18021
      12 -> 18         0.21521

 Excited State  11:      Singlet-A      9.6264 eV  128.80 nm  f=0.0444  <S**2>=0.000
       8 -> 15         0.11204
      10 -> 16        -0.14079
      10 -> 17        -0.11854
      12 -> 15         0.55614
      12 -> 16        -0.18901
      12 -> 18        -0.23252

 Excited State  12:      Singlet-A      9.6997 eV  127.82 nm  f=0.0015  <S**2>=0.000
       9 -> 14         0.27491
      13 -> 18         0.33724
      13 -> 21         0.52854

 Excited State  13:      Singlet-A      9.8800 eV  125.49 nm  f=0.0007  <S**2>=0.000
       9 -> 14         0.60701
      12 -> 14         0.11814
      13 -> 18        -0.13796
      13 -> 21        -0.25967

 Excited State  14:      Singlet-A     10.0344 eV  123.56 nm  f=0.0148  <S**2>=0.000
       7 -> 15        -0.11870
      11 -> 15         0.58364
      11 -> 16         0.10699
      13 -> 15        -0.13239
      13 -> 16         0.10335
      13 -> 19        -0.11996
      13 -> 20         0.18930
      13 -> 21         0.10028

 Excited State  15:      Singlet-A     10.0959 eV  122.81 nm  f=0.0865  <S**2>=0.000
      11 -> 15        -0.12868
      11 -> 16        -0.20184
      13 -> 20         0.64757

 The electronic state is 1-A.
 Alpha  occ. eigenvalues --   -1.74125  -1.15549  -0.95942  -0.81316  -0.76834
 Alpha  occ. eigenvalues --   -0.68218  -0.64714  -0.56619  -0.50385  -0.45042
 Alpha  occ. eigenvalues --   -0.44127  -0.42012  -0.30746
 Alpha virt. eigenvalues --    0.10290   0.17019   0.19522   0.24710   0.26681
 Alpha virt. eigenvalues --    0.27979   0.30130   0.30869   0.40091   0.48666
 Alpha virt. eigenvalues --    0.54356

 Mulliken charges:
               1
     1  C   -0.082886
     2  C   -1.948281
     3  O    3.240860
     4  C   -1.960647
     5  C   -0.029231
     6  H    0.123182
     7  H    0.257101
     8  H    0.272236
     9  H    0.127665
 Sum of Mulliken charges =   0.00000

 Dipole moment (field-independent basis, Debye):
    X=              3.2504    Y=             -9.2217    Z=             -0.4733  Tot=              9.7892
 N-N= 1.037093110958D+02 E-N=-1.684544562499D+02  KE=-1.504652793726D+01
 Orbital energies and kinetic energies (alpha):
                                 1                 2
   1         O                -1.741245         -1.238848
   2         O                -1.155493         -1.007392
   3         O                -0.959422         -0.859302
   4         O                -0.813164         -0.624037
   5         O                -0.768336         -0.691073
   6         O                -0.682176         -0.582637
   7         O                -0.647142         -0.518339

 Normal termination of Gaussian 09 at Tue Dec 15 17:06:13 2015.
