 Gaussian 09, Revision D.01,
 Gaussian 09:  ES64L-G09RevD.01 24-Apr-2013

 ------------------------------------------------------------
 #P AM1(Input,print) CIS(Singlets,NStates=15) pop(full) force
 ------------------------------------------------------------

 -----------------
 AM1-Reparam Input
 -----------------
 Symbolic Z-matrix:
 Charge =  0 Multiplicity = 1

                         Standard orientation:
 ---------------------------------------------------------------------
 Center     Atomic      Atomic             Coordinates (Angstroms)
 Number     Number       Type             X           Y           Z
 ---------------------------------------------------------------------
      1          6           0        0.863239    0.784245   -0.020767
      2          6           0        1.033205   -0.481976    0.015390
      3          8           0       -0.225510   -1.153029    0.003608
      4          6           0       -1.105698   -0.133167   -0.010492
      5          6           0       -0.522442    1.046167   -0.000348
      6          1           0       -1.117619    1.976527    0.081247
      7          1           0       -2.183631   -0.462451   -0.015577
      8          1           0        1.851522   -1.191054    0.001046
      9          1           0        1.643985    1.609587    0.001716
 ---------------------------------------------------------------------

 SCF Done:  E(RAM1) =   1.78319093874     A.U. after   14 cycles

 Excitation energies and oscillator strengths:

 Excited State   1:      Singlet-A      5.2937 eV  234.21 nm  f=0.3181  <S**2>=0.000
      13 -> 14         0.69279
 This state for optimization and/or second-order correction.
 Total Energy, E(CIS) =   1.97773187924
 Copying the excited state density for this state as the 1-particle RhoCI density.

 Excited State   2:      Singlet-A      5.5728 eV  222.48 nm  f=0.0007  <S**2>=0.000
      13 -> 15         0.67554
      13 -> 17        -0.13097

 Excited State   3:      Singlet-A      6.1452 eV  201.76 nm  f=0.0004  <S**2>=0.000
      10 -> 16        -0.11270
      13 -> 16         0.67046
      13 -> 20        -0.12968

 Excited State   4:      Singlet-A      7.0632 eV  175.54 nm  f=0.0003  <S**2>=0.000
      12 -> 14         0.66395
      13 -> 21        -0.18662

 Excited State   5:      Singlet-A      7.1736 eV  172.83 nm  f=0.0155  <S**2>=0.000
      12 -> 14         0.11442
      13 -> 15         0.13654
      13 -> 17         0.64933
      13 -> 21         0.13996

 Excited State   6:      Singlet-A      7.5000 eV  165.31 nm  f=0.0038  <S**2>=0.000
      12 -> 14         0.18615
      13 -> 16        -0.10089
      13 -> 17        -0.17639
      13 -> 20        -0.31493
      13 -> 21         0.55691

 Excited State   7:      Singlet-A      8.1053 eV  152.97 nm  f=0.0019  <S**2>=0.000
      10 -> 14        -0.24707
      11 -> 14         0.54953
      13 -> 18         0.14256
      13 -> 19        -0.31755

 Excited State   8:      Singlet-A      8.1466 eV  152.19 nm  f=0.0011  <S**2>=0.000
      13 -> 18         0.63018
      13 -> 19         0.22239
      13 -> 20         0.17839

 Excited State   9:      Singlet-A      8.2398 eV  150.47 nm  f=0.0015  <S**2>=0.000
      10 -> 14        -0.13542
      11 -> 14         0.31214
      13 -> 18        -0.25113
      13 -> 19         0.45880
      13 -> 20         0.24502
      13 -> 21         0.18187

 Excited State  10:      Singlet-A      8.7825 eV  141.17 nm  f=0.0734  <S**2>=0.000
      10 -> 14         0.28088
      12 -> 16        -0.13327
      13 -> 19        -0.30524
      13 -> 20         0.44990
      13 -> 21         0.25952

 Excited State  11:      Singlet-A      8.8061 eV  140.79 nm  f=0.0319  <S**2>=0.000
       8 -> 16         0.10256
      10 -> 14         0.44166
      11 -> 14         0.24233
      12 -> 15        -0.12354
      12 -> 16        -0.21013
      12 -> 17        -0.10240
      13 -> 19         0.16319
      13 -> 20        -0.24572
      13 -> 21        -0.13818
      13 -> 22        -0.10362

 Excited State  12:      Singlet-A      8.9635 eV  138.32 nm  f=0.0784  <S**2>=0.000
       8 -> 15         0.15005
       9 -> 15         0.14701
      11 -> 15         0.10061
      11 -> 17         0.13378
      12 -> 15         0.52152
      12 -> 16        -0.23832
      12 -> 21        -0.13794

 Excited State  13:      Singlet-A      9.3753 eV  132.25 nm  f=0.0260  <S**2>=0.000
       7 -> 15        -0.12617
      10 -> 14         0.13259
      10 -> 15         0.40403
      11 -> 15         0.45401
      11 -> 17        -0.15417
      12 -> 16         0.10505
      13 -> 15        -0.11489

 Excited State  14:      Singlet-A      9.5733 eV  129.51 nm  f=0.2072  <S**2>=0.000
      10 -> 14         0.29000
      10 -> 15        -0.31010
      11 -> 14         0.14098
      12 -> 15         0.27829
      12 -> 16         0.36828
      12 -> 18         0.12116

 Excited State  15:      Singlet-A      9.6344 eV  128.69 nm  f=0.1854  <S**2>=0.000
       9 -> 15         0.15017
      10 -> 15         0.34387
      10 -> 17        -0.14898
      11 -> 15        -0.25183
      11 -> 17         0.24058
      12 -> 16         0.34246
      12 -> 18        -0.13916
      12 -> 21        -0.11108

 The electronic state is 1-A.
 Alpha  occ. eigenvalues --   -1.91232  -1.23983  -0.99439  -0.81303  -0.80342
 Alpha  occ. eigenvalues --   -0.68080  -0.63598  -0.52661  -0.50983  -0.42033
 Alpha  occ. eigenvalues --   -0.41469  -0.38527  -0.25661
 Alpha virt. eigenvalues --    0.14753   0.16754   0.19324   0.25818   0.28212
 Alpha virt. eigenvalues --    0.29855   0.30662   0.31392   0.34915   0.44545
 Alpha virt. eigenvalues --    0.48027

 Mulliken charges:
               1
     1  C   -0.077215
     2  C   -1.865320
     3  O    3.163745
     4  C   -1.910676
     5  C   -0.208558
     6  H    0.175599
     7  H    0.292708
     8  H    0.269604
     9  H    0.160113
 Sum of Mulliken charges =   0.00000

 Dipole moment (field-independent basis, Debye):
    X=             -2.4840    Y=            -11.2132    Z=              0.0520  Tot=             11.4851
 N-N= 1.042183879990D+02 E-N=-1.699395934664D+02  KE=-1.574456094876D+01
 Orbital energies and kinetic energies (alpha):
                                 1                 2
   1         O                -1.912324         -1.371388
   2         O                -1.239831         -1.116697
   3         O                -0.994390         -0.930699
   4         O                -0.813035         -0.613997
   5         O                -0.803424         -0.698994
   6         O                -0.680798         -0.577184
   7         O                -0.635984         -0.524155

 Normal termination of Gaussian 09 at Tue Dec 15 17:07:03 2015.
