 Gaussian 09, Revision D.01,
 Gaussian 09:  ES64L-G09RevD.01 24-Apr-2013

 ------------------------------------------------------------
 #P AM1(Input,print) CIS(Singlets,NStates=15) pop(full) force
 ------------------------------------------------------------

 -----------------
 AM1-Reparam Input
 -----------------
 Symbolic Z-matrix:
 Charge =  0 Multiplicity = 1

                         Standard orientation:
 ---------------------------------------------------------------------
 Center     Atomic      Atomic             Coordinates (Angstroms)
 Number     Number       Type             X           Y           Z
 ---------------------------------------------------------------------
      1          6           0        0.666294    1.023339    0.017408
      2          6           0        1.136860   -0.249874   -0.014082
      3          8           0        0.089896   -1.178830   -0.004540
      4          6           0       -1.096074   -0.398709    0.011096
      5          6           0       -0.792337    0.873631   -0.015119
      6          1           0       -1.484298    1.786474   -0.001429
      7          1           0       -2.044421   -0.954456    0.016592
      8          1           0        2.101279   -0.747939    0.035972
      9          1           0        1.219823    1.856243   -0.010626
 ---------------------------------------------------------------------

 SCF Done:  E(RAM1) =   2.85636766710     A.U. after   13 cycles

 Excitation energies and oscillator strengths:

 Excited State   1:      Singlet-A      5.0632 eV  244.87 nm  f=0.3501  <S**2>=0.000
      13 -> 14         0.69675
 This state for optimization and/or second-order correction.
 Total Energy, E(CIS) =   3.04243809654
 Copying the excited state density for this state as the 1-particle RhoCI density.

 Excited State   2:      Singlet-A      6.1228 eV  202.50 nm  f=0.0003  <S**2>=0.000
      11 -> 15        -0.10910
      13 -> 15         0.62772
      13 -> 16        -0.17061
      13 -> 17        -0.15932
      13 -> 18        -0.12482
      13 -> 19         0.13176

 Excited State   3:      Singlet-A      6.3134 eV  196.38 nm  f=0.0015  <S**2>=0.000
      11 -> 16         0.10883
      13 -> 15         0.17893
      13 -> 16         0.63645
      13 -> 17        -0.12260
      13 -> 18         0.16602

 Excited State   4:      Singlet-A      6.5478 eV  189.35 nm  f=0.0002  <S**2>=0.000
      12 -> 14         0.69741

 Excited State   5:      Singlet-A      7.3731 eV  168.16 nm  f=0.0039  <S**2>=0.000
      13 -> 15         0.19046
      13 -> 17         0.48248
      13 -> 18         0.31668
      13 -> 20         0.30510
      13 -> 21         0.10965

 Excited State   6:      Singlet-A      7.6804 eV  161.43 nm  f=0.0175  <S**2>=0.000
      10 -> 14        -0.19894
      13 -> 16         0.16482
      13 -> 17         0.42000
      13 -> 18        -0.41589
      13 -> 20        -0.25812

 Excited State   7:      Singlet-A      7.8955 eV  157.03 nm  f=0.0005  <S**2>=0.000
      10 -> 14         0.66211
      13 -> 17         0.17804

 Excited State   8:      Singlet-A      8.2842 eV  149.66 nm  f=0.0051  <S**2>=0.000
      13 -> 19         0.64069
      13 -> 20         0.23602

 Excited State   9:      Singlet-A      8.6037 eV  144.11 nm  f=0.0605  <S**2>=0.000
      11 -> 14         0.65513
      12 -> 16        -0.13681
      13 -> 22         0.11182

 Excited State  10:      Singlet-A      8.7468 eV  141.75 nm  f=0.0242  <S**2>=0.000
      13 -> 17        -0.10650
      13 -> 18        -0.40087
      13 -> 19        -0.22425
      13 -> 20         0.48956
      13 -> 21         0.15679

 Excited State  11:      Singlet-A      9.1341 eV  135.74 nm  f=0.1120  <S**2>=0.000
       8 -> 15         0.11552
       8 -> 16         0.10349
      10 -> 17        -0.15423
      12 -> 15         0.38379
      12 -> 16        -0.35852
      12 -> 17        -0.17572
      12 -> 18        -0.25356
      12 -> 20        -0.12941

 Excited State  12:      Singlet-A      9.3722 eV  132.29 nm  f=0.0691  <S**2>=0.000
      13 -> 20        -0.18109
      13 -> 21         0.66147

 Excited State  13:      Singlet-A      9.6473 eV  128.52 nm  f=0.0722  <S**2>=0.000
      10 -> 15        -0.10233
      10 -> 16         0.10613
      11 -> 14         0.14977
      12 -> 15         0.36980
      12 -> 16         0.50201
      12 -> 17        -0.11679

 Excited State  14:      Singlet-A      9.7988 eV  126.53 nm  f=0.2586  <S**2>=0.000
       8 -> 15         0.12498
      10 -> 15        -0.17618
      10 -> 16        -0.14489
      10 -> 17         0.22555
      12 -> 15         0.29472
      12 -> 16        -0.17733
      12 -> 17         0.31200
      12 -> 18         0.19232
      12 -> 19         0.20662
      12 -> 20         0.14225

 Excited State  15:      Singlet-A      9.9868 eV  124.15 nm  f=0.0032  <S**2>=0.000
       7 -> 15         0.14412
      11 -> 15         0.63280
      11 -> 16         0.14117
      13 -> 15         0.14548

 The electronic state is 1-A.
 Alpha  occ. eigenvalues --   -1.69240  -1.10766  -0.91373  -0.78467  -0.74722
 Alpha  occ. eigenvalues --   -0.65910  -0.62024  -0.52873  -0.49946  -0.43009
 Alpha  occ. eigenvalues --   -0.42555  -0.38582  -0.26421
 Alpha virt. eigenvalues --    0.12198   0.18654   0.19125   0.25683   0.28297
 Alpha virt. eigenvalues --    0.28841   0.31037   0.32152   0.34091   0.43472
 Alpha virt. eigenvalues --    0.46871

 Mulliken charges:
               1
     1  C   -0.179833
     2  C   -1.914722
     3  O    3.204860
     4  C   -1.906757
     5  C   -0.122928
     6  H    0.171790
     7  H    0.293704
     8  H    0.277386
     9  H    0.176500
 Sum of Mulliken charges =   0.00000

 Dipole moment (field-independent basis, Debye):
    X=              0.5348    Y=            -11.4307    Z=              0.0418  Tot=             11.4432
 N-N= 1.032672808340D+02 E-N=-1.679971111250D+02  KE=-1.470696816496D+01
 Orbital energies and kinetic energies (alpha):
                                 1                 2
   1         O                -1.692400         -1.164151
   2         O                -1.107661         -0.983794
   3         O                -0.913728         -0.853200
   4         O                -0.784670         -0.595919
   5         O                -0.747220         -0.670414
   6         O                -0.659098         -0.565407
   7         O                -0.620245         -0.516923

 Normal termination of Gaussian 09 at Tue Dec 15 17:05:53 2015.
