 Gaussian 09, Revision D.01,
 Gaussian 09:  ES64L-G09RevD.01 24-Apr-2013

 ------------------------------------------------------------
 #P AM1(Input,print) CIS(Singlets,NStates=15) pop(full) force
 ------------------------------------------------------------

 -----------------
 AM1-Reparam Input
 -----------------
 Symbolic Z-matrix:
 Charge =  0 Multiplicity = 1

                         Standard orientation:
 ---------------------------------------------------------------------
 Center     Atomic      Atomic             Coordinates (Angstroms)
 Number     Number       Type             X           Y           Z
 ---------------------------------------------------------------------
      1          6           0       -0.409688    1.107866    0.020502
      2          6           0       -1.136864   -0.016702   -0.004374
      3          8           0       -0.361389   -1.094562    0.000825
      4          6           0        0.901189   -0.638383    0.008814
      5          6           0        1.003535    0.698559   -0.022100
      6          1           0        1.949464    1.271398    0.049859
      7          1           0        1.671334   -1.509186   -0.021189
      8          1           0       -2.193206   -0.109073   -0.007104
      9          1           0       -0.685512    2.195320   -0.045213
 ---------------------------------------------------------------------

 SCF Done:  E(RAM1) =   2.60750438868     A.U. after   13 cycles

 Excitation energies and oscillator strengths:

 Excited State   1:      Singlet-A      4.9309 eV  251.44 nm  f=0.3636  <S**2>=0.000
      13 -> 14         0.69939
 This state for optimization and/or second-order correction.
 Total Energy, E(CIS) =   2.78871087317
 Copying the excited state density for this state as the 1-particle RhoCI density.

 Excited State   2:      Singlet-A      5.7582 eV  215.32 nm  f=0.0003  <S**2>=0.000
      13 -> 15         0.66231
      13 -> 16        -0.11188
      13 -> 17        -0.14238
      13 -> 19        -0.10656

 Excited State   3:      Singlet-A      6.2566 eV  198.16 nm  f=0.0010  <S**2>=0.000
      12 -> 14         0.67936
      13 -> 16        -0.16246

 Excited State   4:      Singlet-A      6.3489 eV  195.28 nm  f=0.0031  <S**2>=0.000
      12 -> 14         0.17414
      13 -> 15         0.11930
      13 -> 16         0.64947

 Excited State   5:      Singlet-A      7.4654 eV  166.08 nm  f=0.0047  <S**2>=0.000
      10 -> 14         0.39045
      11 -> 14         0.46436
      13 -> 17        -0.33548

 Excited State   6:      Singlet-A      7.5318 eV  164.61 nm  f=0.0007  <S**2>=0.000
      10 -> 14         0.21951
      11 -> 14         0.27164
      13 -> 17         0.58061
      13 -> 21        -0.10104

 Excited State   7:      Singlet-A      8.4366 eV  146.96 nm  f=0.1218  <S**2>=0.000
      10 -> 14         0.53315
      11 -> 14        -0.44460

 Excited State   8:      Singlet-A      8.8360 eV  140.32 nm  f=0.0053  <S**2>=0.000
      10 -> 15         0.16818
      11 -> 15        -0.17169
      13 -> 18         0.63247
      13 -> 19         0.13644

 Excited State   9:      Singlet-A      8.9422 eV  138.65 nm  f=0.1420  <S**2>=0.000
       8 -> 15         0.13798
      12 -> 15         0.56845
      12 -> 16        -0.17991
      12 -> 17        -0.23850

 Excited State  10:      Singlet-A      9.2447 eV  134.11 nm  f=0.0001  <S**2>=0.000
      10 -> 16         0.18293
      11 -> 16        -0.13545
      13 -> 18        -0.11280
      13 -> 19         0.63582

 Excited State  11:      Singlet-A      9.6110 eV  129.00 nm  f=0.2186  <S**2>=0.000
      10 -> 16         0.16910
      10 -> 18        -0.12560
      11 -> 15         0.31403
      11 -> 16         0.21261
      11 -> 18        -0.15843
      12 -> 15         0.19460
      12 -> 16        -0.15380
      12 -> 17         0.39341

 Excited State  12:      Singlet-A      9.6453 eV  128.54 nm  f=0.0232  <S**2>=0.000
      10 -> 15         0.10367
      11 -> 15         0.26501
      12 -> 15         0.15307
      12 -> 16         0.57609
      12 -> 19         0.10861

 Excited State  13:      Singlet-A      9.7633 eV  126.99 nm  f=0.0101  <S**2>=0.000
       7 -> 15        -0.11980
      10 -> 15         0.48733
      11 -> 15        -0.35415
      12 -> 17         0.12708
      13 -> 15        -0.13523
      13 -> 18        -0.21013

 Excited State  14:      Singlet-A     10.0440 eV  123.44 nm  f=0.0268  <S**2>=0.000
       8 -> 15        -0.25627
       9 -> 15         0.12226
      10 -> 15         0.34794
      10 -> 19        -0.10240
      11 -> 15         0.28381
      11 -> 19        -0.10868
      12 -> 16        -0.17730
      12 -> 17        -0.30304

 Excited State  15:      Singlet-A     10.2325 eV  121.17 nm  f=0.0030  <S**2>=0.000
       7 -> 16         0.12187
       9 -> 14         0.19981
      10 -> 16         0.46956
      11 -> 16        -0.36949
      13 -> 16         0.12022
      13 -> 18         0.10566
      13 -> 19        -0.18526

 The electronic state is 1-A.
 Alpha  occ. eigenvalues --   -1.85574  -1.11769  -0.87413  -0.79648  -0.73479
 Alpha  occ. eigenvalues --   -0.66274  -0.63773  -0.54683  -0.54092  -0.44938
 Alpha  occ. eigenvalues --   -0.44810  -0.41331  -0.29017
 Alpha virt. eigenvalues --    0.08764   0.14968   0.17609   0.24851   0.27478
 Alpha virt. eigenvalues --    0.29463   0.35692   0.40016   0.50136   0.57875
 Alpha virt. eigenvalues --    0.61703

 Mulliken charges:
               1
     1  C   -0.201421
     2  C   -2.011945
     3  O    3.420017
     4  C   -1.980467
     5  C   -0.174183
     6  H    0.184753
     7  H    0.277769
     8  H    0.291375
     9  H    0.194101
 Sum of Mulliken charges =   0.00000

 Dipole moment (field-independent basis, Debye):
    X=             -3.2113    Y=            -10.8047    Z=             -0.0796  Tot=             11.2721
 N-N= 1.040858475708D+02 E-N=-1.699021231986D+02  KE=-1.431854843149D+01
 Orbital energies and kinetic energies (alpha):
                                 1                 2
   1         O                -1.855735         -1.271008
   2         O                -1.117686         -0.959594
   3         O                -0.874134         -0.781774
   4         O                -0.796477         -0.532184
   5         O                -0.734786         -0.623063
   6         O                -0.662744         -0.521167
   7         O                -0.637726         -0.497536

 Normal termination of Gaussian 09 at Tue Dec 15 17:07:46 2015.
