 Gaussian 09, Revision D.01,
 Gaussian 09:  ES64L-G09RevD.01 24-Apr-2013

 ------------------------------------------------------------
 #P AM1(Input,print) CIS(Singlets,NStates=15) pop(full) force
 ------------------------------------------------------------

 -----------------
 AM1-Reparam Input
 -----------------
 Symbolic Z-matrix:
 Charge =  0 Multiplicity = 1

                         Standard orientation:
 ---------------------------------------------------------------------
 Center     Atomic      Atomic             Coordinates (Angstroms)
 Number     Number       Type             X           Y           Z
 ---------------------------------------------------------------------
      1          6           0       -0.695082    0.999306   -0.007815
      2          6           0       -1.097835   -0.365665    0.016671
      3          8           0       -0.007775   -1.141947    0.000639
      4          6           0        1.078678   -0.372664   -0.009648
      5          6           0        0.747365    0.946265   -0.004641
      6          1           0        1.357938    1.753186    0.037363
      7          1           0        1.990748   -0.858447    0.020310
      8          1           0       -2.098460   -0.798087   -0.038623
      9          1           0       -1.386778    1.795466    0.008438
 ---------------------------------------------------------------------

 SCF Done:  E(RAM1) =   1.09751006894     A.U. after   14 cycles

 Excitation energies and oscillator strengths:

 Excited State   1:      Singlet-A      5.5966 eV  221.54 nm  f=0.2191  <S**2>=0.000
      12 -> 16        -0.13132
      13 -> 14         0.68101
 This state for optimization and/or second-order correction.
 Total Energy, E(CIS) =   1.30318011331
 Copying the excited state density for this state as the 1-particle RhoCI density.

 Excited State   2:      Singlet-A      6.5860 eV  188.25 nm  f=0.0054  <S**2>=0.000
      13 -> 15         0.68610
      13 -> 19        -0.12822

 Excited State   3:      Singlet-A      7.1096 eV  174.39 nm  f=0.0007  <S**2>=0.000
      12 -> 14        -0.22864
      13 -> 16        -0.33702
      13 -> 17         0.52066
      13 -> 18        -0.16774
      13 -> 21         0.13067

 Excited State   4:      Singlet-A      7.1809 eV  172.66 nm  f=0.0071  <S**2>=0.000
      12 -> 14         0.50585
      13 -> 16         0.29700
      13 -> 17         0.36656

 Excited State   5:      Singlet-A      7.4483 eV  166.46 nm  f=0.0004  <S**2>=0.000
       9 -> 14         0.22031
      10 -> 14        -0.15689
      11 -> 14         0.64911

 Excited State   6:      Singlet-A      7.9155 eV  156.64 nm  f=0.0036  <S**2>=0.000
       9 -> 14         0.10321
      10 -> 14         0.66809
      11 -> 14         0.13070
      11 -> 16        -0.10342

 Excited State   7:      Singlet-A      8.1602 eV  151.94 nm  f=0.2614  <S**2>=0.000
      12 -> 14        -0.41909
      13 -> 16         0.51038
      13 -> 17         0.13421

 Excited State   8:      Singlet-A      8.2455 eV  150.37 nm  f=0.0009  <S**2>=0.000
      12 -> 15         0.48898
      13 -> 18         0.46715
      13 -> 22         0.11311

 Excited State   9:      Singlet-A      8.4902 eV  146.03 nm  f=0.0044  <S**2>=0.000
      12 -> 15         0.46529
      13 -> 17        -0.17810
      13 -> 18        -0.43473
      13 -> 21        -0.11804

 Excited State  10:      Singlet-A      8.8517 eV  140.07 nm  f=0.0278  <S**2>=0.000
       9 -> 16        -0.25160
      10 -> 14         0.10969
      11 -> 16         0.59864
      11 -> 17         0.14712
      12 -> 16         0.12918

 Excited State  11:      Singlet-A      8.9814 eV  138.05 nm  f=0.1139  <S**2>=0.000
       9 -> 17         0.13298
      11 -> 16        -0.10289
      12 -> 16         0.56346
      12 -> 17        -0.25348
      13 -> 19        -0.11245
      13 -> 20         0.16318

 Excited State  12:      Singlet-A      9.0155 eV  137.52 nm  f=0.0099  <S**2>=0.000
      12 -> 16        -0.12660
      13 -> 19         0.14274
      13 -> 20         0.64439

 Excited State  13:      Singlet-A      9.0799 eV  136.55 nm  f=0.0721  <S**2>=0.000
      12 -> 16         0.23505
      12 -> 17         0.57173
      13 -> 19         0.20192

 Excited State  14:      Singlet-A      9.1478 eV  135.53 nm  f=0.0090  <S**2>=0.000
       9 -> 14         0.35701
       9 -> 15        -0.19920
      10 -> 15         0.15829
      10 -> 17        -0.13110
      11 -> 14        -0.12872
      11 -> 15         0.44827
      11 -> 20         0.12029
      12 -> 17        -0.10766

 Excited State  15:      Singlet-A      9.2101 eV  134.62 nm  f=0.0021  <S**2>=0.000
       9 -> 14         0.53781
       9 -> 15         0.12931
      10 -> 15        -0.10210
      10 -> 17         0.10195
      11 -> 14        -0.19747
      11 -> 15        -0.30015

 The electronic state is 1-A.
 Alpha  occ. eigenvalues --   -1.84467  -1.18739  -0.99640  -0.88338  -0.80674
 Alpha  occ. eigenvalues --   -0.74703  -0.72021  -0.61672  -0.55762  -0.53026
 Alpha  occ. eigenvalues --   -0.50893  -0.47443  -0.39315
 Alpha virt. eigenvalues --    0.02584   0.09443   0.10519   0.11252   0.18283
 Alpha virt. eigenvalues --    0.19111   0.20319   0.21147   0.26150   0.27116
 Alpha virt. eigenvalues --    0.28616

 Mulliken charges:
               1
     1  C   -0.111626
     2  C   -1.300809
     3  O    2.167374
     4  C   -1.273411
     5  C   -0.104664
     6  H    0.101933
     7  H    0.199673
     8  H    0.215119
     9  H    0.106412
 Sum of Mulliken charges =   0.00000

 Dipole moment (field-independent basis, Debye):
    X=             -0.0898    Y=             -6.8128    Z=             -0.0305  Tot=              6.8135
 N-N= 1.045017604092D+02 E-N=-1.712458503320D+02  KE=-1.502877936927D+01
 Orbital energies and kinetic energies (alpha):
                                 1                 2
   1         O                -1.844670         -1.257429
   2         O                -1.187391         -0.968240
   3         O                -0.996398         -0.800951
   4         O                -0.883383         -0.651385
   5         O                -0.806742         -0.668722
   6         O                -0.747030         -0.604332
   7         O                -0.720214         -0.508885

 Normal termination of Gaussian 09 at Tue Dec 15 17:05:46 2015.
