 Gaussian 09, Revision D.01,
 Gaussian 09:  ES64L-G09RevD.01 24-Apr-2013

 -------------------------------------------------------
 #P B3LYP/3-21G CIS(Singlets,NStates=15) pop(full) force
 -------------------------------------------------------

 --------
 FuranDFT
 --------
 Symbolic Z-matrix:
 Charge =  0 Multiplicity = 1

                         Standard orientation:
 ---------------------------------------------------------------------
 Center     Atomic      Atomic             Coordinates (Angstroms)
 Number     Number       Type             X           Y           Z
 ---------------------------------------------------------------------
      1          6           0        0.699464    0.957538   -0.011056
      2          6           0        1.134713   -0.301575   -0.003416
      3          8           0        0.025016   -1.146156   -0.012566
      4          6           0       -1.088091   -0.362235    0.026599
      5          6           0       -0.773046    0.941971    0.004832
      6          1           0       -1.398015    1.705741   -0.031000
      7          1           0       -2.025956   -0.964620   -0.042853
      8          1           0        2.075277   -0.823505    0.056105
      9          1           0        1.310319    1.837434    0.016522
 ---------------------------------------------------------------------

 SCF Done:  E(RB3LYP) =  -228.741338019     A.U. after   13 cycles

 Excitation energies and oscillator strengths:

 Excited State   1:      Singlet-A      7.2986 eV  169.87 nm  f=0.0107  <S**2>=0.000
      17 -> 19         0.51585
      18 -> 19         0.14879
      18 -> 20        -0.44703
 This state for optimization and/or second-order correction.
 Total Energy, E(CIS) =  -228.473118569
 Copying the excited state density for this state as the 1-particle RhoCI density.

 Excited State   2:      Singlet-A      7.4639 eV  166.11 nm  f=0.2023  <S**2>=0.000
      17 -> 19        -0.12070
      18 -> 19         0.66656

 Excited State   3:      Singlet-A      8.7934 eV  141.00 nm  f=0.0054  <S**2>=0.000
      16 -> 19         0.69855

 Excited State   4:      Singlet-A      8.9777 eV  138.10 nm  f=0.0003  <S**2>=0.000
      18 -> 21         0.64708
      18 -> 22        -0.24457

 Excited State   5:      Singlet-A      9.2285 eV  134.35 nm  f=0.0035  <S**2>=0.000
      18 -> 21         0.22077
      18 -> 22         0.63829
      18 -> 23        -0.13246

 Excited State   6:      Singlet-A      9.2912 eV  133.44 nm  f=0.1319  <S**2>=0.000
      17 -> 20         0.67729

 Excited State   7:      Singlet-A      9.6237 eV  128.83 nm  f=0.0535  <S**2>=0.000
      15 -> 19        -0.11584
      17 -> 19        -0.14172
      18 -> 20        -0.17546
      18 -> 21         0.10423
      18 -> 23         0.61924

 Excited State   8:      Singlet-A      9.8425 eV  125.97 nm  f=0.4403  <S**2>=0.000
      17 -> 19         0.37612
      17 -> 21        -0.16655
      18 -> 20         0.44356
      18 -> 23         0.19669

 Excited State   9:      Singlet-A      9.9241 eV  124.93 nm  f=0.0158  <S**2>=0.000
      15 -> 19        -0.32264
      17 -> 21         0.56270
      17 -> 22        -0.22499

 Excited State  10:      Singlet-A     10.0024 eV  123.95 nm  f=0.0012  <S**2>=0.000
      15 -> 19         0.59971
      16 -> 20        -0.11021
      17 -> 21         0.29351
      18 -> 23         0.16442

 Excited State  11:      Singlet-A     10.2169 eV  121.35 nm  f=0.0240  <S**2>=0.000
      17 -> 21         0.21090
      17 -> 22         0.64966

 Excited State  12:      Singlet-A     10.4083 eV  119.12 nm  f=0.0091  <S**2>=0.000
      13 -> 19        -0.14658
      14 -> 19        -0.15142
      15 -> 19         0.10086
      16 -> 20         0.65335

 Excited State  13:      Singlet-A     10.6012 eV  116.95 nm  f=0.0032  <S**2>=0.000
      17 -> 23         0.68917

 Excited State  14:      Singlet-A     10.8301 eV  114.48 nm  f=0.0036  <S**2>=0.000
      18 -> 24         0.67094

 Excited State  15:      Singlet-A     10.9860 eV  112.86 nm  f=0.0006  <S**2>=0.000
      12 -> 19         0.28465
      14 -> 19         0.57824
      15 -> 20         0.18252
      16 -> 20         0.15756
      18 -> 24         0.12269

 The electronic state is 1-A.
 Alpha  occ. eigenvalues --  -19.10294 -10.17809 -10.17384 -10.12659 -10.11831
 Alpha  occ. eigenvalues --   -1.11377  -0.80205  -0.75168  -0.60779  -0.56534
 Alpha  occ. eigenvalues --   -0.54550  -0.44448  -0.43810  -0.43296  -0.39613
 Alpha  occ. eigenvalues --   -0.35746  -0.27281  -0.23889
 Alpha virt. eigenvalues --    0.02459   0.07858   0.13670   0.14946   0.16059
 Alpha virt. eigenvalues --    0.20164   0.21354   0.22672   0.36447   0.41812
 Alpha virt. eigenvalues --    0.47242   0.68222   0.69265   0.69922   0.75314

 Mulliken charges:
               1
     1  C   -0.253824
     2  C    0.081390
     3  O   -0.485749
     4  C    0.112868
     5  C   -0.263340
     6  H    0.186827
     7  H    0.213578
     8  H    0.220625
     9  H    0.187625
 Sum of Mulliken charges =   0.00000

 Dipole moment (field-independent basis, Debye):
    X=              0.0094    Y=              0.6943    Z=              0.0125  Tot=              0.6945
 Quadrupole moment (field-independent basis, Debye-Ang):
   XX=            -23.4255   YY=            -28.0649   ZZ=            -31.7192
   XY=              0.0461   XZ=              0.3537   YZ=             -0.0484

 Normal termination of Gaussian 09 at Tue Dec 15 16:27:21 2015.
