 Gaussian 09, Revision D.01,
 Gaussian 09:  ES64L-G09RevD.01 24-Apr-2013

 ------------------------------------------------------------
 #P AM1(Input,print) CIS(Singlets,NStates=15) pop(full) force
 ------------------------------------------------------------

 -----------------
 AM1-Reparam Input
 -----------------
 Symbolic Z-matrix:
 Charge =  0 Multiplicity = 1

                         Standard orientation:
 ---------------------------------------------------------------------
 Center     Atomic      Atomic             Coordinates (Angstroms)
 Number     Number       Type             X           Y           Z
 ---------------------------------------------------------------------
      1          6           0       -0.585602    1.057473   -0.018000
      2          6           0       -1.120263   -0.201910    0.019622
      3          8           0       -0.163898   -1.148734   -0.002021
      4          6           0        1.014724   -0.518693   -0.021482
      5          6           0        0.875538    0.862879    0.004002
      6          1           0        1.588808    1.641524    0.066881
      7          1           0        1.873576   -1.106909    0.044213
      8          1           0       -2.169753   -0.487836    0.012103
      9          1           0       -1.087835    1.944592   -0.011880
 ---------------------------------------------------------------------

 SCF Done:  E(RAM1) =   1.78782380893     A.U. after   14 cycles

 Excitation energies and oscillator strengths:

 Excited State   1:      Singlet-A      5.3905 eV  230.00 nm  f=0.3734  <S**2>=0.000
      13 -> 14         0.69461
 This state for optimization and/or second-order correction.
 Total Energy, E(CIS) =   1.98592112208
 Copying the excited state density for this state as the 1-particle RhoCI density.

 Excited State   2:      Singlet-A      6.7646 eV  183.28 nm  f=0.0102  <S**2>=0.000
      13 -> 15         0.66139
      13 -> 16         0.15509
      13 -> 18         0.15962

 Excited State   3:      Singlet-A      6.8475 eV  181.06 nm  f=0.0002  <S**2>=0.000
      13 -> 15        -0.14823
      13 -> 16         0.64231
      13 -> 17        -0.19695
      13 -> 19         0.11320

 Excited State   4:      Singlet-A      7.3945 eV  167.67 nm  f=0.0003  <S**2>=0.000
      12 -> 14         0.69905

 Excited State   5:      Singlet-A      8.1425 eV  152.27 nm  f=0.0000  <S**2>=0.000
      13 -> 16         0.15823
      13 -> 17         0.62260
      13 -> 19         0.14436
      13 -> 21         0.19763

 Excited State   6:      Singlet-A      8.4841 eV  146.14 nm  f=0.0087  <S**2>=0.000
      10 -> 14         0.68806
      11 -> 14         0.12049

 Excited State   7:      Singlet-A      8.9597 eV  138.38 nm  f=0.1281  <S**2>=0.000
      10 -> 14        -0.11741
      11 -> 14         0.67839

 Excited State   8:      Singlet-A      9.1883 eV  134.94 nm  f=0.0116  <S**2>=0.000
      11 -> 16         0.16279
      13 -> 15        -0.12366
      13 -> 18         0.65471

 Excited State   9:      Singlet-A      9.6163 eV  128.93 nm  f=0.0003  <S**2>=0.000
      11 -> 15         0.14843
      13 -> 16        -0.11086
      13 -> 19         0.66525

 Excited State  10:      Singlet-A      9.8387 eV  126.02 nm  f=0.0196  <S**2>=0.000
       8 -> 15        -0.12141
       9 -> 16         0.12291
      10 -> 15         0.22997
      10 -> 18         0.20026
      12 -> 16         0.40447
      12 -> 17        -0.37924

 Excited State  11:      Singlet-A     10.3412 eV  119.89 nm  f=0.0181  <S**2>=0.000
      13 -> 17        -0.21554
      13 -> 20        -0.41916
      13 -> 21         0.49606

 Excited State  12:      Singlet-A     10.3960 eV  119.26 nm  f=0.0067  <S**2>=0.000
      10 -> 16        -0.14753
      11 -> 15        -0.31967
      11 -> 16        -0.18297
      12 -> 15         0.49750
      12 -> 16         0.11557
      12 -> 18         0.10379
      13 -> 20         0.11800

 Excited State  13:      Singlet-A     10.4872 eV  118.22 nm  f=0.0690  <S**2>=0.000
      10 -> 15         0.18209
      11 -> 15         0.45623
      11 -> 16         0.16494
      12 -> 15         0.35731
      12 -> 16        -0.15379

 Excited State  14:      Singlet-A     10.5748 eV  117.24 nm  f=0.0635  <S**2>=0.000
      11 -> 15         0.22740
      11 -> 16        -0.21345
      13 -> 20         0.42935
      13 -> 21         0.41942

 Excited State  15:      Singlet-A     10.6087 eV  116.87 nm  f=0.1931  <S**2>=0.000
      10 -> 15        -0.30410
      10 -> 16        -0.14872
      10 -> 18        -0.14108
      11 -> 15         0.17139
      12 -> 16         0.45298
      12 -> 17         0.12242
      12 -> 19         0.15050
      13 -> 20        -0.18756
      13 -> 21        -0.10397

 The electronic state is 1-A.
 Alpha  occ. eigenvalues --   -1.99911  -1.25939  -1.00390  -0.90239  -0.84868
 Alpha  occ. eigenvalues --   -0.77439  -0.74362  -0.63556  -0.61492  -0.53983
 Alpha  occ. eigenvalues --   -0.52358  -0.50376  -0.37028
 Alpha virt. eigenvalues --    0.03383   0.11214   0.11643   0.19925   0.20203
 Alpha virt. eigenvalues --    0.22736   0.25303   0.26493   0.30487   0.38436
 Alpha virt. eigenvalues --    0.43795

 Mulliken charges:
               1
     1  C   -0.099684
     2  C   -1.912022
     3  O    3.165552
     4  C   -1.905051
     5  C   -0.111714
     6  H    0.145217
     7  H    0.281814
     8  H    0.297976
     9  H    0.137912
 Sum of Mulliken charges =   0.00000

 Dipole moment (field-independent basis, Debye):
    X=             -1.6199    Y=            -10.1505    Z=              0.1332  Tot=             10.2798
 N-N= 1.055686576532D+02 E-N=-1.704564571333D+02  KE=-1.566641936101D+01
 Orbital energies and kinetic energies (alpha):
                                 1                 2
   1         O                -1.999113         -1.386376
   2         O                -1.259387         -1.045149
   3         O                -1.003898         -0.877690
   4         O                -0.902391         -0.595878
   5         O                -0.848675         -0.703922
   6         O                -0.774386         -0.610012
   7         O                -0.743617         -0.537079

 Normal termination of Gaussian 09 at Tue Dec 15 17:09:02 2015.
