 Gaussian 09, Revision D.01,
 Gaussian 09:  ES64L-G09RevD.01 24-Apr-2013

 ------------------------------------------------------------
 #P AM1(Input,print) CIS(Singlets,NStates=15) pop(full) force
 ------------------------------------------------------------

 -----------------
 AM1-Reparam Input
 -----------------
 Symbolic Z-matrix:
 Charge =  0 Multiplicity = 1

                         Standard orientation:
 ---------------------------------------------------------------------
 Center     Atomic      Atomic             Coordinates (Angstroms)
 Number     Number       Type             X           Y           Z
 ---------------------------------------------------------------------
      1          6           0        0.840675    0.877418   -0.029393
      2          6           0        1.038816   -0.456998    0.034124
      3          8           0       -0.116515   -1.147392   -0.019207
      4          6           0       -1.156456   -0.208652   -0.009037
      5          6           0       -0.596202    1.016042    0.020733
      6          1           0       -1.148709    1.900270    0.001793
      7          1           0       -2.129475   -0.596731    0.043148
      8          1           0        1.885026   -1.071493    0.022402
      9          1           0        1.564279    1.580225   -0.012250
 ---------------------------------------------------------------------

 SCF Done:  E(RAM1) =   1.12567165112     A.U. after   14 cycles

 Excitation energies and oscillator strengths:

 Excited State   1:      Singlet-A      5.4471 eV  227.62 nm  f=0.2034  <S**2>=0.000
      12 -> 15         0.14098
      13 -> 14         0.67965
 This state for optimization and/or second-order correction.
 Total Energy, E(CIS) =   1.32584853570
 Copying the excited state density for this state as the 1-particle RhoCI density.

 Excited State   2:      Singlet-A      6.3743 eV  194.51 nm  f=0.0040  <S**2>=0.000
      13 -> 15        -0.21831
      13 -> 16         0.63358
      13 -> 17         0.11680
      13 -> 19         0.12804

 Excited State   3:      Singlet-A      6.7737 eV  183.04 nm  f=0.0210  <S**2>=0.000
      12 -> 14        -0.34783
      13 -> 15         0.56089
      13 -> 16         0.21476

 Excited State   4:      Singlet-A      6.9330 eV  178.83 nm  f=0.0006  <S**2>=0.000
      13 -> 17         0.65282
      13 -> 18         0.13691
      13 -> 21         0.13885

 Excited State   5:      Singlet-A      7.3043 eV  169.74 nm  f=0.0016  <S**2>=0.000
       9 -> 14         0.15554
      11 -> 14         0.67800

 Excited State   6:      Singlet-A      7.9539 eV  155.88 nm  f=0.1760  <S**2>=0.000
      10 -> 14        -0.34567
      11 -> 15         0.13312
      12 -> 14         0.49755
      13 -> 15         0.26048

 Excited State   7:      Singlet-A      8.0362 eV  154.28 nm  f=0.0860  <S**2>=0.000
      10 -> 14         0.53680
      11 -> 15        -0.18262
      12 -> 14         0.31937
      13 -> 15         0.18309

 Excited State   8:      Singlet-A      8.1505 eV  152.12 nm  f=0.0011  <S**2>=0.000
      12 -> 16         0.15933
      13 -> 17        -0.12783
      13 -> 18         0.58797
      13 -> 19         0.18839
      13 -> 20        -0.14943
      13 -> 23         0.13104
      13 -> 24        -0.11103

 Excited State   9:      Singlet-A      8.4094 eV  147.44 nm  f=0.0009  <S**2>=0.000
      13 -> 19         0.48183
      13 -> 20         0.46481

 Excited State  10:      Singlet-A      8.4903 eV  146.03 nm  f=0.0187  <S**2>=0.000
       6 -> 15        -0.10105
       9 -> 15        -0.21289
      10 -> 14         0.26421
      10 -> 15         0.11355
      11 -> 15         0.58613

 Excited State  11:      Singlet-A      8.6107 eV  143.99 nm  f=0.0547  <S**2>=0.000
      12 -> 15        -0.44023
      12 -> 16         0.45604
      12 -> 17         0.12797
      13 -> 18        -0.12188

 Excited State  12:      Singlet-A      8.7739 eV  141.31 nm  f=0.1602  <S**2>=0.000
      12 -> 15         0.47079
      12 -> 16         0.43029
      12 -> 17         0.11933
      13 -> 14        -0.11400

 Excited State  13:      Singlet-A      9.0553 eV  136.92 nm  f=0.0043  <S**2>=0.000
      12 -> 16        -0.12300
      12 -> 17         0.52994
      13 -> 18        -0.16939
      13 -> 19         0.21689
      13 -> 20        -0.31882

 Excited State  14:      Singlet-A      9.3818 eV  132.15 nm  f=0.0431  <S**2>=0.000
       9 -> 14         0.31925
       9 -> 16        -0.15171
       9 -> 17        -0.11779
      10 -> 16         0.11593
      10 -> 17        -0.13766
      11 -> 16         0.41115
      11 -> 17         0.18697
      11 -> 18        -0.11563
      13 -> 21         0.17417

 Excited State  15:      Singlet-A      9.4339 eV  131.42 nm  f=0.0235  <S**2>=0.000
       9 -> 14         0.30642
       9 -> 16         0.11820
      10 -> 16        -0.11625
      11 -> 16        -0.26552
      11 -> 17        -0.14573
      12 -> 17         0.13604
      13 -> 19        -0.11623
      13 -> 21         0.40943

 The electronic state is 1-A.
 Alpha  occ. eigenvalues --   -1.82261  -1.19746  -1.00116  -0.88284  -0.81208
 Alpha  occ. eigenvalues --   -0.74896  -0.71492  -0.61275  -0.56330  -0.52849
 Alpha  occ. eigenvalues --   -0.49897  -0.47570  -0.38067
 Alpha virt. eigenvalues --    0.03259   0.08804   0.10008   0.11824   0.18446
 Alpha virt. eigenvalues --    0.19137   0.20113   0.21745   0.26594   0.27377
 Alpha virt. eigenvalues --    0.27669

 Mulliken charges:
               1
     1  C   -0.146423
     2  C   -1.224082
     3  O    2.124330
     4  C   -1.231076
     5  C   -0.110058
     6  H    0.106412
     7  H    0.187490
     8  H    0.191319
     9  H    0.102088
 Sum of Mulliken charges =   0.00000

 Dipole moment (field-independent basis, Debye):
    X=             -0.5553    Y=             -7.3731    Z=             -0.2061  Tot=              7.3969
 N-N= 1.045661864904D+02 E-N=-1.713811906280D+02  KE=-1.502001032752D+01
 Orbital energies and kinetic energies (alpha):
                                 1                 2
   1         O                -1.822608         -1.235214
   2         O                -1.197456         -0.975634
   3         O                -1.001157         -0.834154
   4         O                -0.882842         -0.633962
   5         O                -0.812080         -0.676773
   6         O                -0.748963         -0.598258
   7         O                -0.714925         -0.510727

 Normal termination of Gaussian 09 at Tue Dec 15 17:05:44 2015.
