 Gaussian 09, Revision D.01,
 Gaussian 09:  ES64L-G09RevD.01 24-Apr-2013

 ------------------------------------------------------------
 #P AM1(Input,print) CIS(Singlets,NStates=15) pop(full) force
 ------------------------------------------------------------

 -----------------
 AM1-Reparam Input
 -----------------
 Symbolic Z-matrix:
 Charge =  0 Multiplicity = 1

                         Standard orientation:
 ---------------------------------------------------------------------
 Center     Atomic      Atomic             Coordinates (Angstroms)
 Number     Number       Type             X           Y           Z
 ---------------------------------------------------------------------
      1          6           0        0.210344    1.215219    0.000537
      2          6           0        1.154654    0.153317    0.005513
      3          8           0        0.507579   -1.068729   -0.020091
      4          6           0       -0.798119   -0.745271    0.028571
      5          6           0       -1.090367    0.497913   -0.007144
      6          1           0       -2.018436    1.049665   -0.014923
      7          1           0       -1.467395   -1.591341   -0.012691
      8          1           0        2.158500    0.144025    0.042539
      9          1           0        0.407627    2.220422   -0.019058
 ---------------------------------------------------------------------

 SCF Done:  E(RAM1) =   2.08775406837     A.U. after   14 cycles

 Excitation energies and oscillator strengths:

 Excited State   1:      Singlet-A      5.1579 eV  240.38 nm  f=0.3590  <S**2>=0.000
      13 -> 14         0.69723
 This state for optimization and/or second-order correction.
 Total Energy, E(CIS) =   2.27730204595
 Copying the excited state density for this state as the 1-particle RhoCI density.

 Excited State   2:      Singlet-A      6.3816 eV  194.28 nm  f=0.0027  <S**2>=0.000
      13 -> 15         0.64703
      13 -> 17         0.23340

 Excited State   3:      Singlet-A      6.4820 eV  191.28 nm  f=0.0001  <S**2>=0.000
      12 -> 14         0.70104

 Excited State   4:      Singlet-A      6.7706 eV  183.12 nm  f=0.0084  <S**2>=0.000
      13 -> 15         0.14219
      13 -> 16         0.63145
      13 -> 18        -0.24779

 Excited State   5:      Singlet-A      7.7082 eV  160.85 nm  f=0.0049  <S**2>=0.000
      13 -> 15        -0.14526
      13 -> 16         0.20233
      13 -> 17         0.43778
      13 -> 18         0.24638
      13 -> 19         0.34523
      13 -> 20         0.22884

 Excited State   6:      Singlet-A      7.8934 eV  157.07 nm  f=0.0067  <S**2>=0.000
      10 -> 14         0.69455

 Excited State   7:      Singlet-A      8.5726 eV  144.63 nm  f=0.0143  <S**2>=0.000
      13 -> 15        -0.13811
      13 -> 17         0.46718
      13 -> 18        -0.32397
      13 -> 19        -0.36588

 Excited State   8:      Singlet-A      8.6200 eV  143.83 nm  f=0.1102  <S**2>=0.000
      11 -> 14         0.67480
      12 -> 15        -0.10886

 Excited State   9:      Singlet-A      9.1023 eV  136.21 nm  f=0.0030  <S**2>=0.000
      11 -> 16        -0.17864
      13 -> 16         0.15798
      13 -> 18         0.47170
      13 -> 19        -0.42775
      13 -> 20        -0.11320
      13 -> 21         0.10533

 Excited State  10:      Singlet-A      9.3047 eV  133.25 nm  f=0.1722  <S**2>=0.000
       9 -> 15        -0.11300
      10 -> 17        -0.10678
      11 -> 14         0.13164
      12 -> 15         0.43588
      12 -> 16        -0.26967
      12 -> 17         0.25849
      12 -> 18         0.21275
      12 -> 19         0.13185

 Excited State  11:      Singlet-A      9.4503 eV  131.20 nm  f=0.0190  <S**2>=0.000
      13 -> 17        -0.13769
      13 -> 19        -0.19857
      13 -> 20         0.63177
      13 -> 21         0.13931

 Excited State  12:      Singlet-A      9.8096 eV  126.39 nm  f=0.0263  <S**2>=0.000
      10 -> 15         0.15508
      10 -> 17         0.15347
      12 -> 15         0.47798
      12 -> 16         0.28818
      12 -> 18        -0.22625
      12 -> 19        -0.15565
      12 -> 20        -0.10379

 Excited State  13:      Singlet-A      9.8629 eV  125.71 nm  f=0.0536  <S**2>=0.000
      13 -> 19         0.10443
      13 -> 20        -0.10507
      13 -> 21         0.67011

 Excited State  14:      Singlet-A     10.2851 eV  120.55 nm  f=0.0022  <S**2>=0.000
       7 -> 15        -0.12795
      11 -> 15         0.56612
      11 -> 16         0.29047
      11 -> 17         0.11292
      13 -> 15        -0.10310

 Excited State  15:      Singlet-A     10.3665 eV  119.60 nm  f=0.0672  <S**2>=0.000
       9 -> 15         0.10605
      10 -> 16        -0.29014
      10 -> 18         0.12587
      11 -> 15         0.13291
      12 -> 16         0.42440
      12 -> 17         0.29447
      12 -> 19         0.26262

 The electronic state is 1-A.
 Alpha  occ. eigenvalues --   -1.93930  -1.19479  -0.96167  -0.82257  -0.79114
 Alpha  occ. eigenvalues --   -0.69486  -0.64904  -0.54136  -0.53440  -0.44734
 Alpha  occ. eigenvalues --   -0.43785  -0.40293  -0.28229
 Alpha virt. eigenvalues --    0.10786   0.18126   0.21415   0.27005   0.27419
 Alpha virt. eigenvalues --    0.29513   0.30888   0.32083   0.35331   0.44676
 Alpha virt. eigenvalues --    0.48241

 Mulliken charges:
               1
     1  C   -0.210697
     2  C   -2.007883
     3  O    3.170934
     4  C   -1.965787
     5  C   -0.206093
     6  H    0.251351
     7  H    0.371528
     8  H    0.351705
     9  H    0.244942
 Sum of Mulliken charges =   0.00000

 Dipole moment (field-independent basis, Debye):
    X=              3.5848    Y=            -10.0522    Z=             -0.5322  Tot=             10.6856
 N-N= 1.043922391281D+02 E-N=-1.696999736925D+02  KE=-1.550991338663D+01
 Orbital energies and kinetic energies (alpha):
                                 1                 2
   1         O                -1.939296         -1.382096
   2         O                -1.194787         -1.071059
   3         O                -0.961670         -0.879501
   4         O                -0.822573         -0.597820
   5         O                -0.791145         -0.683436
   6         O                -0.694862         -0.570430
   7         O                -0.649041         -0.517944

 Normal termination of Gaussian 09 at Tue Dec 15 17:07:16 2015.
