 Gaussian 09, Revision D.01,
 Gaussian 09:  ES64L-G09RevD.01 24-Apr-2013

 ------------------------------------------------------------
 #P AM1(Input,print) CIS(Singlets,NStates=15) pop(full) force
 ------------------------------------------------------------

 -----------------
 AM1-Reparam Input
 -----------------
 Symbolic Z-matrix:
 Charge =  0 Multiplicity = 1

                         Standard orientation:
 ---------------------------------------------------------------------
 Center     Atomic      Atomic             Coordinates (Angstroms)
 Number     Number       Type             X           Y           Z
 ---------------------------------------------------------------------
      1          6           0       -0.684561    0.942479   -0.004022
      2          6           0       -1.128426   -0.256752    0.028697
      3          8           0       -0.062078   -1.183638   -0.026626
      4          6           0        1.134487   -0.371953    0.024121
      5          6           0        0.738963    0.954621   -0.025195
      6          1           0        1.430802    1.758637    0.020651
      7          1           0        2.086086   -0.898317    0.043721
      8          1           0       -2.030648   -0.814098   -0.001215
      9          1           0       -1.352394    1.812515    0.008243
 ---------------------------------------------------------------------

 SCF Done:  E(RAM1) =   2.09972117134     A.U. after   14 cycles

 Excitation energies and oscillator strengths:

 Excited State   1:      Singlet-A      5.2503 eV  236.15 nm  f=0.3320  <S**2>=0.000
      13 -> 14         0.69377
 This state for optimization and/or second-order correction.
 Total Energy, E(CIS) =   2.29266579408
 Copying the excited state density for this state as the 1-particle RhoCI density.

 Excited State   2:      Singlet-A      6.5286 eV  189.91 nm  f=0.0024  <S**2>=0.000
      10 -> 15         0.10987
      13 -> 15         0.65595
      13 -> 17         0.14188
      13 -> 18         0.16891

 Excited State   3:      Singlet-A      6.8361 eV  181.37 nm  f=0.0053  <S**2>=0.000
      12 -> 14        -0.22073
      13 -> 16         0.59883
      13 -> 17         0.17385
      13 -> 18        -0.20028

 Excited State   4:      Singlet-A      6.8693 eV  180.49 nm  f=0.0030  <S**2>=0.000
      12 -> 14         0.65995
      13 -> 16         0.21229

 Excited State   5:      Singlet-A      7.6245 eV  162.61 nm  f=0.0063  <S**2>=0.000
      11 -> 14         0.69363

 Excited State   6:      Singlet-A      7.8690 eV  157.56 nm  f=0.0017  <S**2>=0.000
      13 -> 15        -0.11159
      13 -> 16         0.14566
      13 -> 18         0.35539
      13 -> 19         0.49002
      13 -> 21         0.26874

 Excited State   7:      Singlet-A      8.2957 eV  149.46 nm  f=0.0211  <S**2>=0.000
      13 -> 15        -0.15757
      13 -> 16        -0.10299
      13 -> 17         0.62756
      13 -> 18         0.17426
      13 -> 19        -0.12583

 Excited State   8:      Singlet-A      8.7886 eV  141.07 nm  f=0.0733  <S**2>=0.000
      10 -> 14         0.66610
      12 -> 15        -0.10270
      13 -> 20         0.15074

 Excited State   9:      Singlet-A      8.8301 eV  140.41 nm  f=0.0034  <S**2>=0.000
      10 -> 16        -0.12829
      13 -> 16         0.17580
      13 -> 17        -0.18301
      13 -> 18         0.47219
      13 -> 19        -0.41534

 Excited State  10:      Singlet-A      9.5126 eV  130.34 nm  f=0.0270  <S**2>=0.000
       8 -> 15        -0.11919
      11 -> 15        -0.16049
      11 -> 17        -0.20050
      12 -> 15         0.27742
      12 -> 16        -0.25238
      12 -> 17        -0.10600
      12 -> 18         0.23197
      12 -> 19         0.23605
      13 -> 19        -0.11650
      13 -> 20         0.10132
      13 -> 21         0.23726

 Excited State  11:      Singlet-A      9.5522 eV  129.80 nm  f=0.0129  <S**2>=0.000
      12 -> 15        -0.14017
      12 -> 16         0.11237
      12 -> 18        -0.10609
      12 -> 19        -0.10573
      13 -> 18        -0.15931
      13 -> 19        -0.20913
      13 -> 21         0.57208

 Excited State  12:      Singlet-A      9.7261 eV  127.48 nm  f=0.1575  <S**2>=0.000
       9 -> 15         0.10821
      11 -> 15         0.21747
      11 -> 17         0.13636
      12 -> 15         0.55777
      12 -> 17         0.20373
      12 -> 19        -0.13109

 Excited State  13:      Singlet-A      9.8197 eV  126.26 nm  f=0.0723  <S**2>=0.000
      13 -> 20        -0.36331
      13 -> 22         0.58559

 Excited State  14:      Singlet-A     10.0577 eV  123.27 nm  f=0.1038  <S**2>=0.000
      10 -> 14        -0.16038
      13 -> 20         0.54284
      13 -> 21        -0.15317
      13 -> 22         0.34802

 Excited State  15:      Singlet-A     10.3553 eV  119.73 nm  f=0.1371  <S**2>=0.000
      11 -> 16         0.51932
      11 -> 17         0.16417
      11 -> 18        -0.19031
      11 -> 19         0.10562
      12 -> 16        -0.30170
      12 -> 17        -0.16075

 The electronic state is 1-A.
 Alpha  occ. eigenvalues --   -1.92128  -1.19949  -0.95389  -0.81345  -0.78605
 Alpha  occ. eigenvalues --   -0.68102  -0.63449  -0.54132  -0.53431  -0.43257
 Alpha  occ. eigenvalues --   -0.42265  -0.40007  -0.27713
 Alpha virt. eigenvalues --    0.12234   0.19136   0.21400   0.26487   0.28649
 Alpha virt. eigenvalues --    0.29758   0.31261   0.31784   0.32252   0.40837
 Alpha virt. eigenvalues --    0.44361

 Mulliken charges:
               1
     1  C   -0.234447
     2  C   -1.930419
     3  O    3.183576
     4  C   -1.995911
     5  C   -0.223158
     6  H    0.253090
     7  H    0.354936
     8  H    0.333032
     9  H    0.259301
 Sum of Mulliken charges =   0.00000

 Dipole moment (field-independent basis, Debye):
    X=             -1.0090    Y=            -11.4841    Z=             -0.6756  Tot=             11.5481
 N-N= 1.037471686336D+02 E-N=-1.686608474563D+02  KE=-1.543859068557D+01
 Orbital energies and kinetic energies (alpha):
                                 1                 2
   1         O                -1.921276         -1.332926
   2         O                -1.199490         -1.073227
   3         O                -0.953888         -0.886902
   4         O                -0.813453         -0.611102
   5         O                -0.786049         -0.660482
   6         O                -0.681020         -0.575332
   7         O                -0.634494         -0.519941

 Normal termination of Gaussian 09 at Tue Dec 15 17:07:16 2015.
