 Gaussian 09, Revision D.01,
 Gaussian 09:  ES64L-G09RevD.01 24-Apr-2013

 ------------------------------------------------------------
 #P AM1(Input,print) CIS(Singlets,NStates=15) pop(full) force
 ------------------------------------------------------------

 -----------------
 AM1-Reparam Input
 -----------------
 Symbolic Z-matrix:
 Charge =  0 Multiplicity = 1

                         Standard orientation:
 ---------------------------------------------------------------------
 Center     Atomic      Atomic             Coordinates (Angstroms)
 Number     Number       Type             X           Y           Z
 ---------------------------------------------------------------------
      1          6           0       -0.885270    0.787392    0.015701
      2          6           0       -1.065905   -0.472591   -0.015346
      3          8           0        0.213108   -1.146504    0.022311
      4          6           0        1.169657   -0.156108   -0.021829
      5          6           0        0.536669    1.068398   -0.009674
      6          1           0        1.077165    1.969415    0.057703
      7          1           0        2.133243   -0.528447   -0.004625
      8          1           0       -1.874166   -1.175156   -0.029939
      9          1           0       -1.572016    1.543671   -0.014736
 ---------------------------------------------------------------------

 SCF Done:  E(RAM1) =  -4.89467463101     A.U. after   14 cycles

 Excitation energies and oscillator strengths:

 Excited State   1:      Singlet-A      6.6169 eV  187.37 nm  f=0.2908  <S**2>=0.000
      13 -> 14         0.68231
 This state for optimization and/or second-order correction.
 Total Energy, E(CIS) =  -4.65150768507
 Copying the excited state density for this state as the 1-particle RhoCI density.

 Excited State   2:      Singlet-A      7.0395 eV  176.13 nm  f=0.0026  <S**2>=0.000
      12 -> 14        -0.45469
      13 -> 15         0.50275
      13 -> 18         0.15285

 Excited State   3:      Singlet-A      7.0903 eV  174.87 nm  f=0.0095  <S**2>=0.000
      12 -> 14         0.51800
      13 -> 15         0.40076
      13 -> 16         0.19141
      13 -> 18         0.14211

 Excited State   4:      Singlet-A      7.3229 eV  169.31 nm  f=0.0023  <S**2>=0.000
      12 -> 14        -0.12396
      13 -> 15        -0.16897
      13 -> 16         0.64928
      13 -> 21         0.13419

 Excited State   5:      Singlet-A      8.2725 eV  149.88 nm  f=0.0052  <S**2>=0.000
      11 -> 14         0.69407

 Excited State   6:      Singlet-A      8.4526 eV  146.68 nm  f=0.0947  <S**2>=0.000
      10 -> 14         0.18753
      13 -> 17         0.67068

 Excited State   7:      Singlet-A      8.8383 eV  140.28 nm  f=0.0233  <S**2>=0.000
      13 -> 15        -0.18222
      13 -> 18         0.65703

 Excited State   8:      Singlet-A      9.3877 eV  132.07 nm  f=0.0830  <S**2>=0.000
      10 -> 14        -0.10525
      12 -> 15        -0.16615
      12 -> 16         0.60782
      12 -> 19         0.10417
      12 -> 21         0.17201

 Excited State   9:      Singlet-A      9.5520 eV  129.80 nm  f=0.0011  <S**2>=0.000
      13 -> 16        -0.10135
      13 -> 19         0.48344
      13 -> 20        -0.10104
      13 -> 21         0.41293
      13 -> 22        -0.20662

 Excited State  10:      Singlet-A      9.5782 eV  129.44 nm  f=0.0072  <S**2>=0.000
      12 -> 15         0.36327
      12 -> 16         0.10515
      12 -> 18         0.12852
      13 -> 20         0.52503
      13 -> 21         0.10545
      13 -> 23         0.10372

 Excited State  11:      Singlet-A      9.6059 eV  129.07 nm  f=0.0116  <S**2>=0.000
      11 -> 15        -0.10161
      11 -> 16         0.11002
      12 -> 15         0.44498
      12 -> 16         0.18271
      12 -> 18         0.15221
      13 -> 20        -0.42973

 Excited State  12:      Singlet-A     10.1038 eV  122.71 nm  f=0.0015  <S**2>=0.000
      13 -> 19         0.49703
      13 -> 21        -0.45312
      13 -> 22         0.16045

 Excited State  13:      Singlet-A     10.2887 eV  120.51 nm  f=0.0382  <S**2>=0.000
      10 -> 14         0.36100
      11 -> 15         0.30214
      11 -> 16         0.15605
      11 -> 18         0.12711
      12 -> 16         0.13095
      12 -> 17        -0.27708
      12 -> 18         0.22723
      12 -> 19        -0.12823

 Excited State  14:      Singlet-A     10.3655 eV  119.61 nm  f=0.0213  <S**2>=0.000
       8 -> 14        -0.11305
      11 -> 15         0.33273
      11 -> 18         0.16759
      12 -> 17         0.53557

 Excited State  15:      Singlet-A     10.4293 eV  118.88 nm  f=0.0094  <S**2>=0.000
       8 -> 15        -0.18462
       9 -> 15        -0.10918
      10 -> 14         0.28317
      11 -> 15        -0.25903
      11 -> 16        -0.10200
      11 -> 18        -0.17513
      12 -> 15        -0.10731
      12 -> 17         0.31077
      12 -> 18         0.28927
      12 -> 21         0.10805

 The electronic state is 1-A.
 Alpha  occ. eigenvalues --   -3.97933  -1.21665  -0.93331  -0.91411  -0.89824
 Alpha  occ. eigenvalues --   -0.82394  -0.70820  -0.52902  -0.52240  -0.48527
 Alpha  occ. eigenvalues --   -0.43869  -0.39922  -0.31606
 Alpha virt. eigenvalues --    0.14251   0.18634   0.18687   0.23097   0.24989
 Alpha virt. eigenvalues --    0.28301   0.28360   0.32722   0.35919   0.37324
 Alpha virt. eigenvalues --    0.39365

 Mulliken charges:
               1
     1  C   -0.249095
     2  C   -1.481368
     3  O    2.737665
     4  C   -1.538785
     5  C   -0.400538
     6  H    0.222441
     7  H    0.258361
     8  H    0.243161
     9  H    0.208159
 Sum of Mulliken charges =   0.00000

 Dipole moment (field-independent basis, Debye):
    X=              1.7179    Y=            -10.9386    Z=              0.5261  Tot=             11.0852
 N-N= 1.045149585730D+02 E-N=-1.713886844039D+02  KE=-2.310169642213D+01
 Orbital energies and kinetic energies (alpha):
                                 1                 2
   1         O                -3.979326         -3.274261
   2         O                -1.216651         -1.193792
   3         O                -0.933311         -0.961068
   4         O                -0.914114         -0.954147
   5         O                -0.898237         -0.873178
   6         O                -0.823938         -0.805969
   7         O                -0.708200         -0.706019

 Normal termination of Gaussian 09 at Fri Dec 11 13:41:25 2015.
