 Gaussian 09, Revision D.01,
 Gaussian 09:  ES64L-G09RevD.01 24-Apr-2013

 ------------------------------------------------------------
 #P AM1(Input,print) CIS(Singlets,NStates=15) pop(full) force
 ------------------------------------------------------------

 -----------------
 AM1-Reparam Input
 -----------------
 Symbolic Z-matrix:
 Charge =  0 Multiplicity = 1

                         Standard orientation:
 ---------------------------------------------------------------------
 Center     Atomic      Atomic             Coordinates (Angstroms)
 Number     Number       Type             X           Y           Z
 ---------------------------------------------------------------------
      1          6           0       -0.376584    1.124644   -0.024671
      2          6           0       -1.163767    0.018786   -0.011134
      3          8           0       -0.392425   -1.095488    0.009137
      4          6           0        0.940801   -0.648277   -0.018496
      5          6           0        1.003911    0.667765    0.015701
      6          1           0        1.949612    1.267863    0.039996
      7          1           0        1.649509   -1.489261    0.007927
      8          1           0       -2.235078   -0.102056    0.071992
      9          1           0       -0.650812    2.109852    0.038586
 ---------------------------------------------------------------------

 SCF Done:  E(RAM1) =  0.178342339005E-01 A.U. after   13 cycles

 Excitation energies and oscillator strengths:

 Excited State   1:      Singlet-A      4.5495 eV  272.52 nm  f=0.0800  <S**2>=0.000
      12 -> 15         0.20323
      13 -> 14         0.66825
 This state for optimization and/or second-order correction.
 Total Energy, E(CIS) =  0.185026888055
 Copying the excited state density for this state as the 1-particle RhoCI density.

 Excited State   2:      Singlet-A      5.1415 eV  241.15 nm  f=0.0005  <S**2>=0.000
      13 -> 15        -0.10156
      13 -> 16         0.67232

 Excited State   3:      Singlet-A      5.1961 eV  238.61 nm  f=0.0053  <S**2>=0.000
      12 -> 14        -0.42264
      13 -> 15         0.54578
      13 -> 16         0.12560

 Excited State   4:      Singlet-A      5.9082 eV  209.85 nm  f=0.0105  <S**2>=0.000
       7 -> 16        -0.15828
      12 -> 16         0.58438
      12 -> 22        -0.15181
      13 -> 18         0.20794

 Excited State   5:      Singlet-A      5.9629 eV  207.93 nm  f=0.0000  <S**2>=0.000
      12 -> 16        -0.26168
      12 -> 18         0.16344
      12 -> 20        -0.12325
      13 -> 17        -0.14529
      13 -> 18         0.40905
      13 -> 20        -0.18169
      13 -> 21         0.25135
      13 -> 22        -0.17357
      13 -> 23        -0.17547

 Excited State   6:      Singlet-A      6.2800 eV  197.43 nm  f=0.3547  <S**2>=0.000
      12 -> 14         0.50760
      12 -> 15         0.13571
      12 -> 16        -0.10359
      13 -> 15         0.39156

 Excited State   7:      Singlet-A      6.3350 eV  195.71 nm  f=0.0007  <S**2>=0.000
      12 -> 19        -0.29143
      12 -> 23         0.14358
      13 -> 17        -0.26605
      13 -> 19         0.36541
      13 -> 21        -0.14608
      13 -> 22         0.22683
      13 -> 23        -0.20275

 Excited State   8:      Singlet-A      6.4093 eV  193.45 nm  f=0.0453  <S**2>=0.000
      12 -> 15         0.39192
      13 -> 14        -0.10875
      13 -> 17         0.42464
      13 -> 18         0.15414
      13 -> 19         0.29410

 Excited State   9:      Singlet-A      6.4656 eV  191.76 nm  f=0.0940  <S**2>=0.000
      12 -> 15         0.51997
      13 -> 14        -0.15019
      13 -> 17        -0.32484
      13 -> 18        -0.12743
      13 -> 19        -0.20232

 Excited State  10:      Singlet-A      7.0085 eV  176.90 nm  f=0.0008  <S**2>=0.000
      12 -> 17         0.45644
      12 -> 18         0.30663
      12 -> 19         0.22404
      12 -> 20        -0.12024
      12 -> 21        -0.13061
      13 -> 18        -0.19448
      13 -> 19         0.14609
      13 -> 22        -0.12204

 Excited State  11:      Singlet-A      7.2085 eV  172.00 nm  f=0.0085  <S**2>=0.000
       9 -> 15        -0.19430
      10 -> 14         0.61503
      10 -> 15         0.19182

 Excited State  12:      Singlet-A      7.4629 eV  166.13 nm  f=0.0013  <S**2>=0.000
       8 -> 14        -0.11033
       9 -> 14         0.27159
       9 -> 15        -0.14081
      10 -> 15        -0.10721
      11 -> 14        -0.28328
      11 -> 15         0.37104
      12 -> 17        -0.15671
      12 -> 19         0.10206
      12 -> 20         0.11147
      12 -> 23        -0.11955
      13 -> 20         0.11700
      13 -> 21         0.15940

 Excited State  13:      Singlet-A      7.4868 eV  165.60 nm  f=0.0007  <S**2>=0.000
       9 -> 14        -0.19385
       9 -> 15         0.12210
      11 -> 14         0.26702
      12 -> 17        -0.23007
      12 -> 18         0.29623
      12 -> 20         0.18438
      12 -> 21         0.15278
      12 -> 23        -0.10038
      13 -> 18        -0.27909
      13 -> 19         0.16447
      13 -> 21         0.11561

 Excited State  14:      Singlet-A      7.5875 eV  163.41 nm  f=0.0023  <S**2>=0.000
       9 -> 14        -0.12774
      12 -> 17        -0.11764
      12 -> 18         0.12230
      12 -> 19         0.30482
      12 -> 22         0.14752
      12 -> 24         0.10690
      13 -> 17        -0.12687
      13 -> 18         0.17088
      13 -> 19         0.10410
      13 -> 21        -0.11455
      13 -> 22         0.39123
      13 -> 24         0.20741

 Excited State  15:      Singlet-A      7.6467 eV  162.14 nm  f=0.0046  <S**2>=0.000
       9 -> 14         0.33998
      10 -> 15        -0.16915
      11 -> 14         0.44948
      11 -> 15         0.19930
      13 -> 17        -0.10012
      13 -> 20        -0.16174
      13 -> 21        -0.13857
      13 -> 23         0.14143

 The electronic state is 1-A.
 Alpha  occ. eigenvalues --   -1.55450  -1.23413  -1.10279  -0.82270  -0.80831
 Alpha  occ. eigenvalues --   -0.68182  -0.59515  -0.56098  -0.51192  -0.50431
 Alpha  occ. eigenvalues --   -0.49442  -0.39571  -0.35086
 Alpha virt. eigenvalues --    0.03229   0.06447   0.09716   0.13520   0.14391
 Alpha virt. eigenvalues --    0.15611   0.17404   0.18724   0.19116   0.20841
 Alpha virt. eigenvalues --    0.22210

 Mulliken charges:
               1
     1  C   -0.218511
     2  C   -0.078890
     3  O   -0.106237
     4  C   -0.099567
     5  C   -0.188469
     6  H    0.166464
     7  H    0.185909
     8  H    0.188593
     9  H    0.150708
 Sum of Mulliken charges =   0.00000

 Dipole moment (field-independent basis, Debye):
    X=              0.2449    Y=              0.3759    Z=              0.1754  Tot=              0.4817
 N-N= 1.033286149487D+02 E-N=-1.708530148553D+02  KE=-1.653337327376D+01
 Orbital energies and kinetic energies (alpha):
                                 1                 2
   1         O                -1.554495         -1.309819
   2         O                -1.234129         -1.046230
   3         O                -1.102792         -0.963553
   4         O                -0.822702         -0.710495
   5         O                -0.808308         -0.717085
   6         O                -0.681815         -0.602452
   7         O                -0.595149         -0.484562

 Normal termination of Gaussian 09 at Tue Dec 15 16:23:07 2015.
