 Gaussian 09, Revision D.01,
 Gaussian 09:  ES64L-G09RevD.01 24-Apr-2013

 ------------------------------------------------------------
 #P AM1(Input,print) CIS(Singlets,NStates=15) pop(full) force
 ------------------------------------------------------------

 -----------------
 AM1-Reparam Input
 -----------------
 Symbolic Z-matrix:
 Charge =  0 Multiplicity = 1

                         Standard orientation:
 ---------------------------------------------------------------------
 Center     Atomic      Atomic             Coordinates (Angstroms)
 Number     Number       Type             X           Y           Z
 ---------------------------------------------------------------------
      1          6           0        0.891225    0.800723    0.015921
      2          6           0        1.016608   -0.509661    0.031629
      3          8           0       -0.214954   -1.150807   -0.014098
      4          6           0       -1.141199   -0.136255   -0.007561
      5          6           0       -0.532356    1.050949   -0.024795
      6          1           0       -1.111574    2.035757    0.060398
      7          1           0       -2.156911   -0.506916    0.075583
      8          1           0        1.919511   -1.151118   -0.050373
      9          1           0        1.662937    1.594196   -0.063994
 ---------------------------------------------------------------------

 SCF Done:  E(RAM1) =   2.06220401075     A.U. after   14 cycles

 Excitation energies and oscillator strengths:

 Excited State   1:      Singlet-A      5.2136 eV  237.81 nm  f=0.3397  <S**2>=0.000
      13 -> 14         0.69462
 This state for optimization and/or second-order correction.
 Total Energy, E(CIS) =   2.25380144215
 Copying the excited state density for this state as the 1-particle RhoCI density.

 Excited State   2:      Singlet-A      6.5733 eV  188.62 nm  f=0.0011  <S**2>=0.000
      12 -> 14         0.11239
      13 -> 15         0.50134
      13 -> 16        -0.37381
      13 -> 17         0.11533
      13 -> 18         0.24761

 Excited State   3:      Singlet-A      6.6395 eV  186.74 nm  f=0.0100  <S**2>=0.000
      13 -> 15         0.38532
      13 -> 16         0.52657
      13 -> 17         0.20030
      13 -> 18        -0.10121

 Excited State   4:      Singlet-A      6.7141 eV  184.66 nm  f=0.0011  <S**2>=0.000
      12 -> 14         0.68562
      13 -> 15        -0.13051

 Excited State   5:      Singlet-A      7.6477 eV  162.12 nm  f=0.0096  <S**2>=0.000
      11 -> 14         0.69628

 Excited State   6:      Singlet-A      7.7705 eV  159.56 nm  f=0.0003  <S**2>=0.000
      13 -> 15        -0.11047
      13 -> 16         0.17512
      13 -> 18         0.47427
      13 -> 19         0.22444
      13 -> 20         0.23742
      13 -> 21        -0.33024

 Excited State   7:      Singlet-A      8.2396 eV  150.47 nm  f=0.0183  <S**2>=0.000
      13 -> 15        -0.19966
      13 -> 17         0.65440

 Excited State   8:      Singlet-A      8.7454 eV  141.77 nm  f=0.0018  <S**2>=0.000
      13 -> 16        -0.14965
      13 -> 18        -0.32444
      13 -> 19         0.56746
      13 -> 20         0.13916
      13 -> 21        -0.11180

 Excited State   9:      Singlet-A      8.8401 eV  140.25 nm  f=0.0953  <S**2>=0.000
      10 -> 14         0.67936

 Excited State  10:      Singlet-A      9.2269 eV  134.37 nm  f=0.0018  <S**2>=0.000
      13 -> 18        -0.29067
      13 -> 19        -0.33967
      13 -> 20         0.38255
      13 -> 21        -0.38156

 Excited State  11:      Singlet-A      9.4137 eV  131.71 nm  f=0.0262  <S**2>=0.000
       8 -> 15        -0.11946
       9 -> 16         0.10292
      11 -> 15         0.15779
      11 -> 17         0.23424
      12 -> 15        -0.21940
      12 -> 16         0.35880
      12 -> 18        -0.34873
      12 -> 19        -0.13055
      12 -> 21         0.13688
      13 -> 21         0.10299

 Excited State  12:      Singlet-A      9.5457 eV  129.88 nm  f=0.0807  <S**2>=0.000
      13 -> 20         0.51028
      13 -> 21         0.45385

 Excited State  13:      Singlet-A      9.8895 eV  125.37 nm  f=0.1285  <S**2>=0.000
      11 -> 15         0.30693
      11 -> 17         0.14996
      11 -> 18         0.10234
      12 -> 15         0.53044
      12 -> 17         0.21991
      12 -> 19        -0.10386

 Excited State  14:      Singlet-A     10.0480 eV  123.39 nm  f=0.2028  <S**2>=0.000
       8 -> 16        -0.11666
      11 -> 15        -0.16747
      11 -> 16        -0.25730
      11 -> 17        -0.18209
      12 -> 15         0.14620
      12 -> 16         0.48726
      12 -> 19         0.19841
      12 -> 21        -0.11554

 Excited State  15:      Singlet-A     10.3510 eV  119.78 nm  f=0.0242  <S**2>=0.000
       8 -> 15         0.11523
       9 -> 16         0.11013
      10 -> 15         0.48785
      10 -> 16         0.21667
      10 -> 17         0.11769
      11 -> 16         0.21985
      11 -> 19         0.16923
      12 -> 15         0.12113
      12 -> 17        -0.10493

 The electronic state is 1-A.
 Alpha  occ. eigenvalues --   -1.93317  -1.19503  -0.95133  -0.81303  -0.78098
 Alpha  occ. eigenvalues --   -0.67912  -0.64524  -0.53967  -0.52937  -0.43749
 Alpha  occ. eigenvalues --   -0.42471  -0.39757  -0.27682
 Alpha virt. eigenvalues --    0.11970   0.19548   0.19746   0.26380   0.28092
 Alpha virt. eigenvalues --    0.29582   0.30689   0.31271   0.34592   0.43870
 Alpha virt. eigenvalues --    0.47697

 Mulliken charges:
               1
     1  C   -0.204473
     2  C   -1.987172
     3  O    3.177217
     4  C   -1.976430
     5  C   -0.243878
     6  H    0.258195
     7  H    0.353517
     8  H    0.370942
     9  H    0.252081
 Sum of Mulliken charges =   0.00000

 Dipole moment (field-independent basis, Debye):
    X=             -1.8353    Y=            -10.6550    Z=             -0.3397  Tot=             10.8172
 N-N= 1.040985453651D+02 E-N=-1.694203322377D+02  KE=-1.544528086713D+01
 Orbital energies and kinetic energies (alpha):
                                 1                 2
   1         O                -1.933171         -1.373525
   2         O                -1.195031         -1.065856
   3         O                -0.951326         -0.877026
   4         O                -0.813032         -0.591868
   5         O                -0.780979         -0.674138
   6         O                -0.679120         -0.557351
   7         O                -0.645238         -0.524290

 Normal termination of Gaussian 09 at Tue Dec 15 17:07:28 2015.
