 Gaussian 09, Revision D.01,
 Gaussian 09:  ES64L-G09RevD.01 24-Apr-2013

 ------------------------------------------------------------
 #P AM1(Input,print) CIS(Singlets,NStates=15) pop(full) force
 ------------------------------------------------------------

 -----------------
 AM1-Reparam Input
 -----------------
 Symbolic Z-matrix:
 Charge =  0 Multiplicity = 1

                         Standard orientation:
 ---------------------------------------------------------------------
 Center     Atomic      Atomic             Coordinates (Angstroms)
 Number     Number       Type             X           Y           Z
 ---------------------------------------------------------------------
      1          6           0       -0.409688    1.107866    0.020502
      2          6           0       -1.136864   -0.016702   -0.004374
      3          8           0       -0.361389   -1.094562    0.000825
      4          6           0        0.901189   -0.638383    0.008814
      5          6           0        1.003535    0.698559   -0.022100
      6          1           0        1.949464    1.271398    0.049859
      7          1           0        1.671334   -1.509186   -0.021189
      8          1           0       -2.193206   -0.109073   -0.007104
      9          1           0       -0.685512    2.195320   -0.045213
 ---------------------------------------------------------------------

 SCF Done:  E(RAM1) =   1.39126325281     A.U. after   13 cycles

 Excitation energies and oscillator strengths:

 Excited State   1:      Singlet-A      5.7795 eV  214.52 nm  f=0.0423  <S**2>=0.000
      11 -> 15        -0.11334
      13 -> 14        -0.24755
      13 -> 15         0.63262
      13 -> 17        -0.10460
 This state for optimization and/or second-order correction.
 Total Energy, E(CIS) =   1.60365586689
 Copying the excited state density for this state as the 1-particle RhoCI density.

 Excited State   2:      Singlet-A      5.8181 eV  213.10 nm  f=0.2795  <S**2>=0.000
      13 -> 14         0.64743
      13 -> 15         0.24185

 Excited State   3:      Singlet-A      6.3152 eV  196.33 nm  f=0.0014  <S**2>=0.000
      11 -> 16         0.10753
      13 -> 16         0.66724
      13 -> 21         0.14247

 Excited State   4:      Singlet-A      7.1658 eV  173.02 nm  f=0.0004  <S**2>=0.000
      12 -> 14         0.69465

 Excited State   5:      Singlet-A      7.4044 eV  167.45 nm  f=0.0036  <S**2>=0.000
      13 -> 15         0.11386
      13 -> 17         0.62550
      13 -> 18         0.12259
      13 -> 21         0.13097
      13 -> 22        -0.20407

 Excited State   6:      Singlet-A      7.8945 eV  157.05 nm  f=0.0024  <S**2>=0.000
      13 -> 16         0.12142
      13 -> 17         0.25992
      13 -> 18        -0.41769
      13 -> 21        -0.20125
      13 -> 22         0.42218

 Excited State   7:      Singlet-A      8.3221 eV  148.98 nm  f=0.0026  <S**2>=0.000
      11 -> 14         0.10730
      11 -> 15         0.14014
      13 -> 18         0.49958
      13 -> 21        -0.38604
      13 -> 22         0.20506

 Excited State   8:      Singlet-A      8.4307 eV  147.06 nm  f=0.0255  <S**2>=0.000
      11 -> 14         0.58951
      12 -> 15        -0.12415
      13 -> 19        -0.31570

 Excited State   9:      Singlet-A      8.4954 eV  145.94 nm  f=0.0010  <S**2>=0.000
      10 -> 14         0.68587

 Excited State  10:      Singlet-A      8.7324 eV  141.98 nm  f=0.0006  <S**2>=0.000
      13 -> 18         0.19758
      13 -> 21         0.48414
      13 -> 22         0.45327

 Excited State  11:      Singlet-A      8.8588 eV  139.96 nm  f=0.0125  <S**2>=0.000
      11 -> 15         0.62699
      13 -> 15         0.12564
      13 -> 20        -0.15647
      13 -> 21         0.10801
      13 -> 22        -0.12422

 Excited State  12:      Singlet-A      8.9910 eV  137.90 nm  f=0.0675  <S**2>=0.000
      11 -> 15         0.14224
      11 -> 16         0.24452
      13 -> 20         0.61527

 Excited State  13:      Singlet-A      9.2295 eV  134.33 nm  f=0.2332  <S**2>=0.000
       8 -> 15        -0.26172
      12 -> 15         0.56202
      12 -> 16        -0.20538

 Excited State  14:      Singlet-A      9.4048 eV  131.83 nm  f=0.0033  <S**2>=0.000
      11 -> 16         0.60881
      13 -> 16        -0.13466
      13 -> 20        -0.24680

 Excited State  15:      Singlet-A      9.4693 eV  130.93 nm  f=0.2103  <S**2>=0.000
      11 -> 14         0.32303
      12 -> 17        -0.10108
      13 -> 19         0.59303

 The electronic state is 1-A.
 Alpha  occ. eigenvalues --   -1.90695  -1.18398  -0.95836  -0.79080  -0.76200
 Alpha  occ. eigenvalues --   -0.67353  -0.62847  -0.49210  -0.47737  -0.41066
 Alpha  occ. eigenvalues --   -0.37404  -0.37041  -0.24140
 Alpha virt. eigenvalues --    0.17168   0.19445   0.22013   0.28746   0.30180
 Alpha virt. eigenvalues --    0.31797   0.33314   0.33810   0.35200   0.41963
 Alpha virt. eigenvalues --    0.47279

 Mulliken charges:
               1
     1  C   -0.076579
     2  C   -1.555906
     3  O    2.776649
     4  C   -1.526937
     5  C   -0.059477
     6  H    0.063122
     7  H    0.141367
     8  H    0.177527
     9  H    0.060233
 Sum of Mulliken charges =   0.00000

 Dipole moment (field-independent basis, Debye):
    X=             -2.9262    Y=             -9.0907    Z=             -0.0598  Tot=              9.5503
 N-N= 1.037249241578D+02 E-N=-1.702661832928D+02  KE=-1.586098606031D+01
 Orbital energies and kinetic energies (alpha):
                                 1                 2
   1         O                -1.906948         -1.407460
   2         O                -1.183979         -1.067474
   3         O                -0.958361         -0.872909
   4         O                -0.790798         -0.625127
   5         O                -0.761998         -0.699351
   6         O                -0.673534         -0.612341
   7         O                -0.628473         -0.546383

 Normal termination of Gaussian 09 at Tue Dec 15 17:08:07 2015.
