 Gaussian 09, Revision D.01,
 Gaussian 09:  ES64L-G09RevD.01 24-Apr-2013

 ------------------------------------------------------------
 #P AM1(Input,print) CIS(Singlets,NStates=15) pop(full) force
 ------------------------------------------------------------

 -----------------
 AM1-Reparam Input
 -----------------
 Symbolic Z-matrix:
 Charge =  0 Multiplicity = 1

                         Standard orientation:
 ---------------------------------------------------------------------
 Center     Atomic      Atomic             Coordinates (Angstroms)
 Number     Number       Type             X           Y           Z
 ---------------------------------------------------------------------
      1          6           0       -0.409688    1.107866    0.020502
      2          6           0       -1.136864   -0.016702   -0.004374
      3          8           0       -0.361389   -1.094562    0.000825
      4          6           0        0.901189   -0.638383    0.008814
      5          6           0        1.003535    0.698559   -0.022100
      6          1           0        1.949464    1.271398    0.049859
      7          1           0        1.671334   -1.509186   -0.021189
      8          1           0       -2.193206   -0.109073   -0.007104
      9          1           0       -0.685512    2.195320   -0.045213
 ---------------------------------------------------------------------

 SCF Done:  E(RAM1) =   2.83183256668     A.U. after   14 cycles

 Excitation energies and oscillator strengths:

 Excited State   1:      Singlet-A      5.1477 eV  240.85 nm  f=0.3490  <S**2>=0.000
      13 -> 14         0.69651
 This state for optimization and/or second-order correction.
 Total Energy, E(CIS) =   3.02100644776
 Copying the excited state density for this state as the 1-particle RhoCI density.

 Excited State   2:      Singlet-A      5.9340 eV  208.94 nm  f=0.0005  <S**2>=0.000
      11 -> 15        -0.11924
      13 -> 15         0.66559
      13 -> 17         0.14960

 Excited State   3:      Singlet-A      6.4319 eV  192.76 nm  f=0.0040  <S**2>=0.000
      11 -> 16         0.10003
      13 -> 16         0.64967
      13 -> 18         0.17622
      13 -> 19        -0.11391

 Excited State   4:      Singlet-A      6.4887 eV  191.08 nm  f=0.0002  <S**2>=0.000
       9 -> 14         0.10181
      12 -> 14         0.69314

 Excited State   5:      Singlet-A      7.3444 eV  168.82 nm  f=0.0059  <S**2>=0.000
      13 -> 15        -0.15663
      13 -> 17         0.52312
      13 -> 18        -0.29833
      13 -> 21         0.29074

 Excited State   6:      Singlet-A      7.8184 eV  158.58 nm  f=0.0106  <S**2>=0.000
      10 -> 14         0.51608
      13 -> 16         0.12654
      13 -> 17        -0.23555
      13 -> 18        -0.28466
      13 -> 21         0.24228

 Excited State   7:      Singlet-A      7.9395 eV  156.16 nm  f=0.0021  <S**2>=0.000
      10 -> 14         0.45099
      13 -> 16        -0.12218
      13 -> 17         0.36047
      13 -> 18         0.27571
      13 -> 21        -0.23714

 Excited State   8:      Singlet-A      8.3837 eV  147.89 nm  f=0.0007  <S**2>=0.000
      13 -> 16         0.10787
      13 -> 19         0.65903
      13 -> 21        -0.19902

 Excited State   9:      Singlet-A      8.5432 eV  145.13 nm  f=0.0789  <S**2>=0.000
      10 -> 14         0.10222
      11 -> 14         0.64306
      12 -> 15        -0.19791

 Excited State  10:      Singlet-A      8.7080 eV  142.38 nm  f=0.0047  <S**2>=0.000
      13 -> 18         0.45449
      13 -> 19         0.17695
      13 -> 21         0.49425

 Excited State  11:      Singlet-A      8.9439 eV  138.62 nm  f=0.1317  <S**2>=0.000
       8 -> 15        -0.15419
      10 -> 17        -0.13217
      11 -> 14         0.16533
      12 -> 15         0.52205
      12 -> 16        -0.21299
      12 -> 17         0.11158
      12 -> 18        -0.17856
      13 -> 20         0.15321

 Excited State  12:      Singlet-A      9.0964 eV  136.30 nm  f=0.0962  <S**2>=0.000
      12 -> 15        -0.14685
      13 -> 20         0.66966

 Excited State  13:      Singlet-A      9.4757 eV  130.84 nm  f=0.0917  <S**2>=0.000
       9 -> 15        -0.10044
      10 -> 15         0.21706
      10 -> 17         0.14849
      11 -> 14         0.14819
      11 -> 15        -0.18729
      12 -> 15         0.25781
      12 -> 16         0.43914
      12 -> 18         0.24125
      12 -> 21        -0.10928

 Excited State  14:      Singlet-A      9.5864 eV  129.33 nm  f=0.0107  <S**2>=0.000
       7 -> 15         0.12467
      11 -> 15         0.62209
      12 -> 16         0.19128
      13 -> 15         0.13695

 Excited State  15:      Singlet-A      9.6980 eV  127.84 nm  f=0.0882  <S**2>=0.000
       9 -> 16        -0.15604
      10 -> 15        -0.20994
      10 -> 16        -0.20110
      10 -> 17        -0.22761
      12 -> 16         0.36818
      12 -> 17         0.23937
      12 -> 18        -0.15491
      12 -> 19        -0.14366
      12 -> 21         0.17673

 The electronic state is 1-A.
 Alpha  occ. eigenvalues --   -1.73039  -1.10997  -0.92062  -0.79217  -0.74053
 Alpha  occ. eigenvalues --   -0.65454  -0.64074  -0.52763  -0.48741  -0.43567
 Alpha  occ. eigenvalues --   -0.42978  -0.39057  -0.27492
 Alpha virt. eigenvalues --    0.11522   0.16248   0.19038   0.25169   0.27066
 Alpha virt. eigenvalues --    0.28309   0.29523   0.30675   0.39042   0.48170
 Alpha virt. eigenvalues --    0.51870

 Mulliken charges:
               1
     1  C   -0.151018
     2  C   -1.952600
     3  O    3.200088
     4  C   -1.927007
     5  C   -0.128537
     6  H    0.175337
     7  H    0.291286
     8  H    0.316270
     9  H    0.176182
 Sum of Mulliken charges =   0.00000

 Dipole moment (field-independent basis, Debye):
    X=             -3.0110    Y=             -9.9221    Z=             -0.0819  Tot=             10.3692
 N-N= 1.040359634289D+02 E-N=-1.693862961174D+02  KE=-1.475209534271D+01
 Orbital energies and kinetic energies (alpha):
                                 1                 2
   1         O                -1.730391         -1.236332
   2         O                -1.109966         -0.980828
   3         O                -0.920617         -0.838619
   4         O                -0.792169         -0.593543
   5         O                -0.740529         -0.678515
   6         O                -0.654543         -0.558263
   7         O                -0.640743         -0.524253

 Normal termination of Gaussian 09 at Tue Dec 15 17:06:04 2015.
