 Gaussian 09, Revision D.01,
 Gaussian 09:  ES64L-G09RevD.01 24-Apr-2013

 ------------------------------------------------------------
 #P AM1(Input,print) CIS(Singlets,NStates=15) pop(full) force
 ------------------------------------------------------------

 -----------------
 AM1-Reparam Input
 -----------------
 Symbolic Z-matrix:
 Charge =  0 Multiplicity = 1

                         Standard orientation:
 ---------------------------------------------------------------------
 Center     Atomic      Atomic             Coordinates (Angstroms)
 Number     Number       Type             X           Y           Z
 ---------------------------------------------------------------------
      1          6           0       -0.947164    0.716686   -0.010814
      2          6           0       -1.014519   -0.569908    0.008926
      3          8           0        0.305405   -1.133132   -0.007615
      4          6           0        1.159974   -0.111578   -0.002272
      5          6           0        0.462598    1.147134    0.014043
      6          1           0        0.936790    2.101913   -0.021668
      7          1           0        2.235390   -0.305277    0.012470
      8          1           0       -1.786927   -1.281373    0.020675
      9          1           0       -1.793824    1.455788   -0.009853
 ---------------------------------------------------------------------

 SCF Done:  E(RAM1) =   1.79207730953     A.U. after   14 cycles

 Excitation energies and oscillator strengths:

 Excited State   1:      Singlet-A      5.3055 eV  233.69 nm  f=0.3695  <S**2>=0.000
      13 -> 14         0.69498
 This state for optimization and/or second-order correction.
 Total Energy, E(CIS) =   1.98705070891
 Copying the excited state density for this state as the 1-particle RhoCI density.

 Excited State   2:      Singlet-A      6.3439 eV  195.44 nm  f=0.0045  <S**2>=0.000
      13 -> 15         0.67036
      13 -> 17        -0.17688

 Excited State   3:      Singlet-A      6.9106 eV  179.41 nm  f=0.0029  <S**2>=0.000
      13 -> 16         0.66990
      13 -> 18         0.12774
      13 -> 19         0.13776

 Excited State   4:      Singlet-A      7.2328 eV  171.42 nm  f=0.0009  <S**2>=0.000
      12 -> 14         0.70198

 Excited State   5:      Singlet-A      7.9832 eV  155.31 nm  f=0.0001  <S**2>=0.000
      13 -> 15         0.10566
      13 -> 16        -0.10752
      13 -> 17         0.44523
      13 -> 18         0.45745
      13 -> 21         0.21740

 Excited State   6:      Singlet-A      8.4731 eV  146.33 nm  f=0.0061  <S**2>=0.000
      10 -> 14         0.66500
      11 -> 14         0.17367
      13 -> 18         0.11354

 Excited State   7:      Singlet-A      8.8095 eV  140.74 nm  f=0.0073  <S**2>=0.000
      10 -> 14         0.11903
      11 -> 15        -0.10855
      13 -> 15         0.12551
      13 -> 17         0.48539
      13 -> 18        -0.44430

 Excited State   8:      Singlet-A      9.0683 eV  136.72 nm  f=0.0463  <S**2>=0.000
      10 -> 14        -0.15545
      11 -> 14         0.60826
      12 -> 17        -0.18863

 Excited State   9:      Singlet-A      9.3148 eV  133.10 nm  f=0.0006  <S**2>=0.000
      13 -> 18        -0.13618
      13 -> 19         0.65584

 Excited State  10:      Singlet-A      9.7937 eV  126.60 nm  f=0.1085  <S**2>=0.000
       9 -> 15        -0.13103
      10 -> 16         0.15828
      10 -> 18         0.16552
      11 -> 14        -0.23840
      12 -> 15         0.40667
      12 -> 16        -0.12989
      12 -> 17        -0.28177
      12 -> 18        -0.18441

 Excited State  11:      Singlet-A     10.0922 eV  122.85 nm  f=0.0145  <S**2>=0.000
      13 -> 17         0.10769
      13 -> 18         0.14784
      13 -> 19         0.13960
      13 -> 20         0.48621
      13 -> 21        -0.44687

 Excited State  12:      Singlet-A     10.2393 eV  121.09 nm  f=0.1828  <S**2>=0.000
      12 -> 15         0.10597
      12 -> 16         0.65314
      12 -> 19         0.10816

 Excited State  13:      Singlet-A     10.3576 eV  119.70 nm  f=0.0250  <S**2>=0.000
       7 -> 15         0.10540
      11 -> 15         0.55951
      13 -> 20        -0.25589
      13 -> 21        -0.25122

 Excited State  14:      Singlet-A     10.4108 eV  119.09 nm  f=0.1510  <S**2>=0.000
      10 -> 15         0.47850
      10 -> 17        -0.14861
      12 -> 15        -0.38392
      12 -> 18        -0.19885

 Excited State  15:      Singlet-A     10.4831 eV  118.27 nm  f=0.0641  <S**2>=0.000
      11 -> 15         0.33442
      11 -> 16         0.10407
      13 -> 18        -0.11656
      13 -> 20         0.40371
      13 -> 21         0.41671

 The electronic state is 1-A.
 Alpha  occ. eigenvalues --   -1.98273  -1.25083  -0.99734  -0.89005  -0.84206
 Alpha  occ. eigenvalues --   -0.76329  -0.73283  -0.63851  -0.61041  -0.52650
 Alpha  occ. eigenvalues --   -0.52421  -0.48615  -0.35649
 Alpha virt. eigenvalues --    0.04339   0.10880   0.13085   0.19191   0.21244
 Alpha virt. eigenvalues --    0.22726   0.26037   0.26901   0.28087   0.36189
 Alpha virt. eigenvalues --    0.41266

 Mulliken charges:
               1
     1  C   -0.056147
     2  C   -1.839212
     3  O    3.172519
     4  C   -1.930511
     5  C   -0.205593
     6  H    0.151195
     7  H    0.295366
     8  H    0.262799
     9  H    0.149584
 Sum of Mulliken charges =   0.00000

 Dipole moment (field-independent basis, Debye):
    X=              2.7036    Y=            -10.6054    Z=             -0.1413  Tot=             10.9455
 N-N= 1.048452176845D+02 E-N=-1.693177894013D+02  KE=-1.558569985368D+01
 Orbital energies and kinetic energies (alpha):
                                 1                 2
   1         O                -1.982726         -1.351430
   2         O                -1.250827         -1.036203
   3         O                -0.997339         -0.880229
   4         O                -0.890054         -0.584588
   5         O                -0.842058         -0.701007
   6         O                -0.763290         -0.594166
   7         O                -0.732831         -0.534474

 Normal termination of Gaussian 09 at Tue Dec 15 17:08:55 2015.
