 Gaussian 09, Revision D.01,
 Gaussian 09:  ES64L-G09RevD.01 24-Apr-2013

 ------------------------------------------------------------
 #P AM1(Input,print) CIS(Singlets,NStates=15) pop(full) force
 ------------------------------------------------------------

 -----------------
 AM1-Reparam Input
 -----------------
 Symbolic Z-matrix:
 Charge =  0 Multiplicity = 1

                         Standard orientation:
 ---------------------------------------------------------------------
 Center     Atomic      Atomic             Coordinates (Angstroms)
 Number     Number       Type             X           Y           Z
 ---------------------------------------------------------------------
      1          6           0       -0.695082    0.999306   -0.007815
      2          6           0       -1.097835   -0.365665    0.016671
      3          8           0       -0.007775   -1.141947    0.000639
      4          6           0        1.078678   -0.372664   -0.009648
      5          6           0        0.747365    0.946265   -0.004641
      6          1           0        1.357938    1.753186    0.037363
      7          1           0        1.990748   -0.858447    0.020310
      8          1           0       -2.098460   -0.798087   -0.038623
      9          1           0       -1.386778    1.795466    0.008438
 ---------------------------------------------------------------------

 SCF Done:  E(RAM1) =   1.78557286941     A.U. after   14 cycles

 Excitation energies and oscillator strengths:

 Excited State   1:      Singlet-A      5.5453 eV  223.58 nm  f=0.3581  <S**2>=0.000
      13 -> 14         0.69175
 This state for optimization and/or second-order correction.
 Total Energy, E(CIS) =   1.98935888697
 Copying the excited state density for this state as the 1-particle RhoCI density.

 Excited State   2:      Singlet-A      6.8578 eV  180.79 nm  f=0.0112  <S**2>=0.000
      13 -> 15         0.67957
      13 -> 17         0.15715

 Excited State   3:      Singlet-A      7.1230 eV  174.06 nm  f=0.0000  <S**2>=0.000
      11 -> 15         0.10647
      13 -> 16         0.65962
      13 -> 18        -0.16148
      13 -> 19         0.13176

 Excited State   4:      Singlet-A      7.6267 eV  162.57 nm  f=0.0004  <S**2>=0.000
      12 -> 14         0.69695

 Excited State   5:      Singlet-A      8.3497 eV  148.49 nm  f=0.0043  <S**2>=0.000
      10 -> 14         0.61042
      11 -> 14        -0.11198
      13 -> 17         0.10668
      13 -> 18         0.27178

 Excited State   6:      Singlet-A      8.3747 eV  148.05 nm  f=0.0022  <S**2>=0.000
      10 -> 14        -0.31829
      13 -> 16         0.11738
      13 -> 17         0.12596
      13 -> 18         0.54805
      13 -> 19         0.12282
      13 -> 21        -0.17928

 Excited State   7:      Singlet-A      8.9754 eV  138.14 nm  f=0.1272  <S**2>=0.000
      10 -> 14         0.12584
      11 -> 14         0.68084

 Excited State   8:      Singlet-A      9.3552 eV  132.53 nm  f=0.0118  <S**2>=0.000
      11 -> 16        -0.20957
      13 -> 15        -0.11508
      13 -> 17         0.62434
      13 -> 18        -0.18502

 Excited State   9:      Singlet-A      9.7709 eV  126.89 nm  f=0.0008  <S**2>=0.000
      11 -> 15        -0.23521
      13 -> 16        -0.10477
      13 -> 19         0.64346

 Excited State  10:      Singlet-A      9.9546 eV  124.55 nm  f=0.0223  <S**2>=0.000
       8 -> 15        -0.12576
       9 -> 16         0.16679
      10 -> 15         0.38881
      10 -> 17         0.22349
      12 -> 16         0.24911
      12 -> 18        -0.33665
      13 -> 14         0.10119

 Excited State  11:      Singlet-A     10.3949 eV  119.27 nm  f=0.0173  <S**2>=0.000
      11 -> 15         0.56950
      12 -> 15         0.19516
      12 -> 16         0.15226
      13 -> 16        -0.15686
      13 -> 19         0.17929

 Excited State  12:      Singlet-A     10.4350 eV  118.82 nm  f=0.0054  <S**2>=0.000
      10 -> 16        -0.25689
      11 -> 15        -0.20791
      11 -> 16         0.11509
      12 -> 15         0.55748
      12 -> 17         0.13785

 Excited State  13:      Singlet-A     10.5458 eV  117.57 nm  f=0.2162  <S**2>=0.000
      10 -> 15        -0.32993
      10 -> 16         0.10736
      12 -> 16         0.52098
      12 -> 19         0.10327
      13 -> 20        -0.11614
      13 -> 21         0.16041

 Excited State  14:      Singlet-A     10.5596 eV  117.41 nm  f=0.0314  <S**2>=0.000
      10 -> 15         0.11834
      12 -> 16        -0.15093
      13 -> 18         0.19288
      13 -> 20        -0.43412
      13 -> 21         0.45020

 Excited State  15:      Singlet-A     10.7589 eV  115.24 nm  f=0.0488  <S**2>=0.000
      11 -> 15         0.10489
      11 -> 16         0.42245
      13 -> 20         0.34047
      13 -> 21         0.39748

 The electronic state is 1-A.
 Alpha  occ. eigenvalues --   -2.00516  -1.26618  -1.00976  -0.90834  -0.84844
 Alpha  occ. eigenvalues --   -0.77475  -0.74914  -0.64561  -0.61856  -0.53776
 Alpha  occ. eigenvalues --   -0.52568  -0.51425  -0.38269
 Alpha virt. eigenvalues --    0.03132   0.10731   0.11541   0.19313   0.19924
 Alpha virt. eigenvalues --    0.21984   0.24897   0.26104   0.30782   0.38376
 Alpha virt. eigenvalues --    0.44341

 Mulliken charges:
               1
     1  C   -0.108625
     2  C   -1.937014
     3  O    3.172874
     4  C   -1.901517
     5  C   -0.096361
     6  H    0.142711
     7  H    0.281224
     8  H    0.297549
     9  H    0.149159
 Sum of Mulliken charges =   0.00000

 Dipole moment (field-independent basis, Debye):
    X=             -0.0725    Y=             -9.9143    Z=             -0.0519  Tot=              9.9147
 N-N= 1.057519712959D+02 E-N=-1.706726038051D+02  KE=-1.568758735909D+01
 Orbital energies and kinetic energies (alpha):
                                 1                 2
   1         O                -2.005159         -1.394766
   2         O                -1.266176         -1.045000
   3         O                -1.009756         -0.874210
   4         O                -0.908336         -0.606348
   5         O                -0.848440         -0.695232
   6         O                -0.774748         -0.617477
   7         O                -0.749142         -0.538385

 Normal termination of Gaussian 09 at Tue Dec 15 17:09:08 2015.
