 Gaussian 09, Revision D.01,
 Gaussian 09:  ES64L-G09RevD.01 24-Apr-2013

 ------------------------------------------------------------
 #P AM1(Input,print) CIS(Singlets,NStates=15) pop(full) force
 ------------------------------------------------------------

 -----------------
 AM1-Reparam Input
 -----------------
 Symbolic Z-matrix:
 Charge =  0 Multiplicity = 1

                         Standard orientation:
 ---------------------------------------------------------------------
 Center     Atomic      Atomic             Coordinates (Angstroms)
 Number     Number       Type             X           Y           Z
 ---------------------------------------------------------------------
      1          6           0        0.760338    0.887249   -0.009021
      2          6           0        1.077972   -0.418550    0.017701
      3          8           0       -0.077139   -1.163490   -0.014097
      4          6           0       -1.145988   -0.238772    0.027431
      5          6           0       -0.613710    0.982587   -0.024102
      6          1           0       -1.233499    1.867463    0.041784
      7          1           0       -2.067250   -0.683119   -0.020846
      8          1           0        1.969513   -0.900513   -0.005957
      9          1           0        1.476681    1.749002    0.025739
 ---------------------------------------------------------------------

 SCF Done:  E(RAM1) =   2.86798995043     A.U. after   13 cycles

 Excitation energies and oscillator strengths:

 Excited State   1:      Singlet-A      5.4228 eV  228.64 nm  f=0.3137  <S**2>=0.000
      13 -> 14         0.69208
 This state for optimization and/or second-order correction.
 Total Energy, E(CIS) =   3.06727240420
 Copying the excited state density for this state as the 1-particle RhoCI density.

 Excited State   2:      Singlet-A      6.6633 eV  186.07 nm  f=0.0071  <S**2>=0.000
      13 -> 15         0.64733
      13 -> 17        -0.22294

 Excited State   3:      Singlet-A      6.8737 eV  180.37 nm  f=0.0004  <S**2>=0.000
      12 -> 14        -0.18140
      13 -> 16         0.61454
      13 -> 18         0.13341
      13 -> 19        -0.16484

 Excited State   4:      Singlet-A      6.9616 eV  178.10 nm  f=0.0008  <S**2>=0.000
       9 -> 14         0.11048
      12 -> 14         0.66855
      13 -> 16         0.17563

 Excited State   5:      Singlet-A      7.6167 eV  162.78 nm  f=0.0061  <S**2>=0.000
      11 -> 14         0.68453

 Excited State   6:      Singlet-A      7.9877 eV  155.22 nm  f=0.0002  <S**2>=0.000
      13 -> 16        -0.14277
      13 -> 17        -0.14165
      13 -> 18         0.47431
      13 -> 20         0.13084
      13 -> 21         0.43620

 Excited State   7:      Singlet-A      8.0842 eV  153.37 nm  f=0.0093  <S**2>=0.000
      10 -> 16        -0.11523
      11 -> 14         0.11834
      13 -> 15         0.18868
      13 -> 17         0.63033
      13 -> 18         0.10109

 Excited State   8:      Singlet-A      8.7353 eV  141.94 nm  f=0.0005  <S**2>=0.000
      13 -> 16         0.15356
      13 -> 19         0.66738

 Excited State   9:      Singlet-A      8.7924 eV  141.01 nm  f=0.0847  <S**2>=0.000
      10 -> 14         0.67242

 Excited State  10:      Singlet-A      9.1012 eV  136.23 nm  f=0.0106  <S**2>=0.000
      13 -> 18         0.48251
      13 -> 20        -0.17575
      13 -> 21        -0.47003

 Excited State  11:      Singlet-A      9.3699 eV  132.32 nm  f=0.0330  <S**2>=0.000
       8 -> 15        -0.10268
       9 -> 16        -0.10066
      11 -> 15        -0.22072
      11 -> 16        -0.14525
      11 -> 17         0.33102
      12 -> 15         0.19746
      12 -> 16        -0.21019
      12 -> 18        -0.31928
      12 -> 21        -0.15116
      13 -> 20        -0.11021

 Excited State  12:      Singlet-A      9.5270 eV  130.14 nm  f=0.0876  <S**2>=0.000
      13 -> 20         0.64377
      13 -> 21        -0.23347

 Excited State  13:      Singlet-A      9.8340 eV  126.08 nm  f=0.0622  <S**2>=0.000
      11 -> 16        -0.25247
      12 -> 15         0.36331
      12 -> 16         0.46140
      12 -> 17        -0.17512
      12 -> 20         0.10272

 Excited State  14:      Singlet-A      9.8693 eV  125.63 nm  f=0.2020  <S**2>=0.000
      11 -> 15         0.39162
      11 -> 17        -0.14063
      12 -> 15         0.37407
      12 -> 16        -0.34292
      12 -> 19         0.15910

 Excited State  15:      Singlet-A     10.2273 eV  121.23 nm  f=0.1324  <S**2>=0.000
       8 -> 16        -0.18156
       9 -> 15        -0.18190
      10 -> 14        -0.12489
      11 -> 15         0.10769
      11 -> 16        -0.18954
      11 -> 18         0.16111
      11 -> 19         0.32788
      12 -> 15        -0.19010
      12 -> 17        -0.31615
      12 -> 20        -0.18331

 The electronic state is 1-A.
 Alpha  occ. eigenvalues --   -1.71001  -1.13142  -0.93340  -0.78670  -0.76563
 Alpha  occ. eigenvalues --   -0.66587  -0.63567  -0.54155  -0.50317  -0.42874
 Alpha  occ. eigenvalues --   -0.41902  -0.39840  -0.28416
 Alpha virt. eigenvalues --    0.12618   0.19929   0.20590   0.24966   0.27565
 Alpha virt. eigenvalues --    0.28667   0.30237   0.31467   0.35032   0.44206
 Alpha virt. eigenvalues --    0.47948

 Mulliken charges:
               1
     1  C   -0.153392
     2  C   -1.959107
     3  O    3.218292
     4  C   -1.927132
     5  C   -0.122985
     6  H    0.180496
     7  H    0.280287
     8  H    0.302492
     9  H    0.181048
 Sum of Mulliken charges =   0.00000

 Dipole moment (field-independent basis, Debye):
    X=             -0.5160    Y=            -10.6790    Z=             -0.5630  Tot=             10.7063
 N-N= 1.041883203138D+02 E-N=-1.694244696058D+02  KE=-1.480873586224D+01
 Orbital energies and kinetic energies (alpha):
                                 1                 2
   1         O                -1.710007         -1.195881
   2         O                -1.131417         -0.992281
   3         O                -0.933402         -0.864895
   4         O                -0.786698         -0.593630
   5         O                -0.765626         -0.686757
   6         O                -0.665868         -0.567484
   7         O                -0.635673         -0.528771

 Normal termination of Gaussian 09 at Tue Dec 15 17:05:56 2015.
