 Gaussian 09, Revision D.01,
 Gaussian 09:  ES64L-G09RevD.01 24-Apr-2013

 ------------------------------------------------------------
 #P AM1(Input,print) CIS(Singlets,NStates=15) pop(full) force
 ------------------------------------------------------------

 -----------------
 AM1-Reparam Input
 -----------------
 Symbolic Z-matrix:
 Charge =  0 Multiplicity = 1

                         Standard orientation:
 ---------------------------------------------------------------------
 Center     Atomic      Atomic             Coordinates (Angstroms)
 Number     Number       Type             X           Y           Z
 ---------------------------------------------------------------------
      1          6           0        0.284427    1.155142   -0.014745
      2          6           0       -1.009958    0.597668   -0.004234
      3          8           0       -0.898506   -0.785851    0.003526
      4          6           0        0.448782   -1.041636    0.009463
      5          6           0        1.206793    0.132270   -0.010155
      6          1           0        2.319277    0.109767    0.026051
      7          1           0        0.757952   -2.073515   -0.015654
      8          1           0       -1.915603    0.955824    0.004693
      9          1           0        0.446161    2.234072    0.074725
 ---------------------------------------------------------------------

 SCF Done:  E(RAM1) =   1.77753079649     A.U. after   14 cycles

 Excitation energies and oscillator strengths:

 Excited State   1:      Singlet-A      5.8096 eV  213.41 nm  f=0.3050  <S**2>=0.000
      13 -> 14         0.68426
 This state for optimization and/or second-order correction.
 Total Energy, E(CIS) =   1.99102987481
 Copying the excited state density for this state as the 1-particle RhoCI density.

 Excited State   2:      Singlet-A      7.0033 eV  177.04 nm  f=0.0092  <S**2>=0.000
      13 -> 15         0.66385
      13 -> 16         0.14155
      13 -> 17         0.13836

 Excited State   3:      Singlet-A      7.4697 eV  165.98 nm  f=0.0016  <S**2>=0.000
      13 -> 15        -0.12302
      13 -> 16         0.65612
      13 -> 19         0.15546

 Excited State   4:      Singlet-A      7.8812 eV  157.32 nm  f=0.0033  <S**2>=0.000
      11 -> 14        -0.21710
      12 -> 14         0.66379

 Excited State   5:      Singlet-A      8.2458 eV  150.36 nm  f=0.0040  <S**2>=0.000
      10 -> 14         0.63631
      11 -> 14        -0.26662
      12 -> 14        -0.11353

 Excited State   6:      Singlet-A      8.7917 eV  141.02 nm  f=0.0006  <S**2>=0.000
      11 -> 15        -0.10278
      13 -> 17        -0.20182
      13 -> 18         0.58794
      13 -> 21         0.28750

 Excited State   7:      Singlet-A      9.0823 eV  136.51 nm  f=0.1093  <S**2>=0.000
      10 -> 14         0.28640
      11 -> 14         0.60205
      12 -> 14         0.18697

 Excited State   8:      Singlet-A      9.3831 eV  132.14 nm  f=0.0077  <S**2>=0.000
      11 -> 15         0.11713
      11 -> 16        -0.17004
      13 -> 17         0.60670
      13 -> 18         0.22229

 Excited State   9:      Singlet-A      9.7773 eV  126.81 nm  f=0.1647  <S**2>=0.000
       9 -> 15         0.13063
      10 -> 15        -0.23296
      10 -> 16        -0.19205
      10 -> 17        -0.14405
      10 -> 18        -0.16991
      11 -> 18         0.12024
      12 -> 15         0.39953
      12 -> 16         0.13323
      12 -> 17         0.19027
      12 -> 18        -0.15350
      13 -> 14         0.14549

 Excited State  10:      Singlet-A      9.9508 eV  124.60 nm  f=0.0009  <S**2>=0.000
      10 -> 15        -0.14287
      10 -> 16        -0.11360
      11 -> 15        -0.24916
      11 -> 16        -0.16115
      12 -> 16        -0.11102
      13 -> 18        -0.12501
      13 -> 19         0.54959
      13 -> 21         0.10897

 Excited State  11:      Singlet-A     10.3957 eV  119.26 nm  f=0.0034  <S**2>=0.000
      10 -> 15         0.14043
      11 -> 15         0.52222
      12 -> 15         0.13669
      13 -> 15         0.12406
      13 -> 16        -0.15418
      13 -> 19         0.30384
      13 -> 21         0.11044

 Excited State  12:      Singlet-A     10.4504 eV  118.64 nm  f=0.0062  <S**2>=0.000
       9 -> 15        -0.11268
      10 -> 15         0.32532
      10 -> 17         0.12135
      10 -> 19        -0.10451
      11 -> 15        -0.22243
      12 -> 16         0.48426
      12 -> 19         0.15485

 Excited State  13:      Singlet-A     10.6303 eV  116.63 nm  f=0.0091  <S**2>=0.000
      13 -> 18        -0.27483
      13 -> 19        -0.18274
      13 -> 20        -0.20168
      13 -> 21         0.57530

 Excited State  14:      Singlet-A     10.6336 eV  116.60 nm  f=0.1848  <S**2>=0.000
       8 -> 15        -0.10018
      10 -> 15         0.46069
      10 -> 16        -0.13720
      11 -> 15        -0.11203
      11 -> 16         0.14528
      12 -> 15         0.19976
      12 -> 16        -0.34655

 Excited State  15:      Singlet-A     10.7694 eV  115.13 nm  f=0.0625  <S**2>=0.000
      10 -> 16         0.17131
      11 -> 16         0.42309
      13 -> 17         0.13272
      13 -> 20         0.42592
      13 -> 21         0.20354

 The electronic state is 1-A.
 Alpha  occ. eigenvalues --   -1.97967  -1.26659  -0.99364  -0.88885  -0.85569
 Alpha  occ. eigenvalues --   -0.76548  -0.73286  -0.63165  -0.61892  -0.51553
 Alpha  occ. eigenvalues --   -0.51079  -0.50325  -0.38157
 Alpha virt. eigenvalues --    0.05105   0.11462   0.13468   0.19734   0.20856
 Alpha virt. eigenvalues --    0.23098   0.25393   0.27046   0.28383   0.36749
 Alpha virt. eigenvalues --    0.41442

 Mulliken charges:
               1
     1  C   -0.100639
     2  C   -1.889625
     3  O    3.172672
     4  C   -1.919155
     5  C   -0.102546
     6  H    0.154624
     7  H    0.283276
     8  H    0.248819
     9  H    0.152577
 Sum of Mulliken charges =   0.00000

 Dipole moment (field-independent basis, Debye):
    X=             -7.5892    Y=             -7.4406    Z=              0.0615  Tot=             10.6284
 N-N= 1.051309798246D+02 E-N=-1.697812421809D+02  KE=-1.563668146913D+01
 Orbital energies and kinetic energies (alpha):
                                 1                 2
   1         O                -1.979668         -1.353193
   2         O                -1.266594         -1.054803
   3         O                -0.993645         -0.878454
   4         O                -0.888848         -0.599927
   5         O                -0.855685         -0.696273
   6         O                -0.765483         -0.613986
   7         O                -0.732865         -0.539052

 Normal termination of Gaussian 09 at Tue Dec 15 17:09:03 2015.
