 Gaussian 09, Revision D.01,
 Gaussian 09:  ES64L-G09RevD.01 24-Apr-2013

 ------------------------------------------------------------
 #P AM1(Input,print) CIS(Singlets,NStates=15) pop(full) force
 ------------------------------------------------------------

 -----------------
 AM1-Reparam Input
 -----------------
 Symbolic Z-matrix:
 Charge =  0 Multiplicity = 1

                         Standard orientation:
 ---------------------------------------------------------------------
 Center     Atomic      Atomic             Coordinates (Angstroms)
 Number     Number       Type             X           Y           Z
 ---------------------------------------------------------------------
      1          6           0        0.793690    0.909031   -0.010062
      2          6           0        1.055359   -0.510029    0.011774
      3          8           0       -0.149891   -1.129275   -0.013064
      4          6           0       -1.121935   -0.230682   -0.006400
      5          6           0       -0.571771    1.008855    0.009104
      6          1           0       -1.136870    2.020088    0.001615
      7          1           0       -2.183792   -0.585309    0.049894
      8          1           0        1.969325   -1.125736    0.039170
      9          1           0        1.618412    1.662100   -0.012663
 ---------------------------------------------------------------------

 SCF Done:  E(RAM1) =  0.279025183255E-01 A.U. after   14 cycles

 Excitation energies and oscillator strengths:

 Excited State   1:      Singlet-A      4.2319 eV  292.98 nm  f=0.1128  <S**2>=0.000
      12 -> 15         0.18265
      13 -> 14         0.66432
      13 -> 16         0.11311
 This state for optimization and/or second-order correction.
 Total Energy, E(CIS) =  0.183420630677
 Copying the excited state density for this state as the 1-particle RhoCI density.

 Excited State   2:      Singlet-A      4.4360 eV  279.50 nm  f=0.0048  <S**2>=0.000
      13 -> 14        -0.10874
      13 -> 16         0.66997
      13 -> 22        -0.10018

 Excited State   3:      Singlet-A      4.8707 eV  254.55 nm  f=0.0174  <S**2>=0.000
      12 -> 14        -0.37170
      13 -> 15         0.59136

 Excited State   4:      Singlet-A      5.4963 eV  225.58 nm  f=0.0015  <S**2>=0.000
      12 -> 17         0.13850
      13 -> 17         0.48476
      13 -> 18         0.26711
      13 -> 20        -0.22666
      13 -> 21        -0.18700
      13 -> 22        -0.16210
      13 -> 23        -0.15187

 Excited State   5:      Singlet-A      5.9359 eV  208.87 nm  f=0.0011  <S**2>=0.000
      12 -> 19        -0.11615
      12 -> 22         0.11381
      12 -> 23        -0.11040
      13 -> 17        -0.22793
      13 -> 18         0.34050
      13 -> 19         0.33744
      13 -> 20        -0.11151
      13 -> 22        -0.24184
      13 -> 23         0.22440

 Excited State   6:      Singlet-A      6.0970 eV  203.35 nm  f=0.1015  <S**2>=0.000
       7 -> 16        -0.14646
      12 -> 14         0.31658
      12 -> 16         0.53230
      13 -> 15         0.19541

 Excited State   7:      Singlet-A      6.1360 eV  202.06 nm  f=0.2261  <S**2>=0.000
      12 -> 14         0.46717
      12 -> 16        -0.36281
      13 -> 15         0.28939

 Excited State   8:      Singlet-A      6.4103 eV  193.41 nm  f=0.0031  <S**2>=0.000
      13 -> 17         0.21993
      13 -> 18        -0.37799
      13 -> 19         0.48585
      13 -> 21         0.18386

 Excited State   9:      Singlet-A      6.5766 eV  188.52 nm  f=0.1654  <S**2>=0.000
      12 -> 15         0.66010
      13 -> 14        -0.16697

 Excited State  10:      Singlet-A      6.7245 eV  184.38 nm  f=0.0063  <S**2>=0.000
       9 -> 14        -0.17339
      10 -> 14        -0.34653
      11 -> 14         0.49242
      11 -> 15         0.25420

 Excited State  11:      Singlet-A      6.9901 eV  177.37 nm  f=0.0005  <S**2>=0.000
      12 -> 18        -0.21227
      12 -> 19         0.24433
      12 -> 21         0.11477
      13 -> 17         0.16451
      13 -> 18         0.28096
      13 -> 19         0.14846
      13 -> 21         0.20134
      13 -> 22         0.42573

 Excited State  12:      Singlet-A      7.1621 eV  173.11 nm  f=0.0006  <S**2>=0.000
      10 -> 14         0.39390
      10 -> 15        -0.21920
      11 -> 14         0.24766
      12 -> 17        -0.17367
      12 -> 18         0.18977
      12 -> 19         0.12149
      12 -> 21        -0.11038
      13 -> 18         0.10653
      13 -> 19         0.15941
      13 -> 20         0.23038
      13 -> 21        -0.16426

 Excited State  13:      Singlet-A      7.2211 eV  171.70 nm  f=0.0021  <S**2>=0.000
      10 -> 14        -0.22571
      10 -> 15         0.17501
      11 -> 14        -0.22652
      12 -> 18         0.34411
      12 -> 19         0.13750
      12 -> 21        -0.16572
      12 -> 22        -0.12343
      12 -> 23         0.15029
      13 -> 17        -0.15085
      13 -> 18         0.11557
      13 -> 19         0.15084
      13 -> 21        -0.12585
      13 -> 22         0.13091
      13 -> 23        -0.12265
      13 -> 24        -0.14425

 Excited State  14:      Singlet-A      7.3278 eV  169.20 nm  f=0.0043  <S**2>=0.000
      10 -> 14         0.21346
      10 -> 15        -0.12444
      11 -> 14         0.11805
      12 -> 17         0.35289
      12 -> 18         0.10469
      12 -> 22        -0.16273
      13 -> 17        -0.22495
      13 -> 20        -0.28870
      13 -> 22         0.19346
      13 -> 23        -0.19964

 Excited State  15:      Singlet-A      7.4363 eV  166.73 nm  f=0.0078  <S**2>=0.000
      12 -> 18         0.12852
      12 -> 19        -0.22821
      12 -> 21        -0.19722
      12 -> 22         0.16999
      12 -> 23         0.21581
      13 -> 17         0.11664
      13 -> 20        -0.18067
      13 -> 22         0.31356
      13 -> 23         0.37160

 The electronic state is 1-A.
 Alpha  occ. eigenvalues --   -1.57981  -1.23420  -1.08305  -0.82051  -0.80582
 Alpha  occ. eigenvalues --   -0.68040  -0.61071  -0.56697  -0.50703  -0.49472
 Alpha  occ. eigenvalues --   -0.48213  -0.39538  -0.33212
 Alpha virt. eigenvalues --    0.02974   0.06910   0.09091   0.13499   0.14016
 Alpha virt. eigenvalues --    0.15352   0.17402   0.18316   0.19068   0.20883
 Alpha virt. eigenvalues --    0.23131

 Mulliken charges:
               1
     1  C   -0.197272
     2  C   -0.148701
     3  O   -0.047093
     4  C   -0.117618
     5  C   -0.211800
     6  H    0.157800
     7  H    0.198736
     8  H    0.201657
     9  H    0.164290
 Sum of Mulliken charges =   0.00000

 Dipole moment (field-independent basis, Debye):
    X=              0.0422    Y=              0.2232    Z=              0.0768  Tot=              0.2398
 N-N= 1.033411802865D+02 E-N=-1.709277922664D+02  KE=-1.651309055341D+01
 Orbital energies and kinetic energies (alpha):
                                 1                 2
   1         O                -1.579808         -1.317829
   2         O                -1.234198         -1.053374
   3         O                -1.083047         -0.944597
   4         O                -0.820510         -0.710857
   5         O                -0.805818         -0.705756
   6         O                -0.680396         -0.600309
   7         O                -0.610711         -0.492370

 Normal termination of Gaussian 09 at Tue Dec 15 16:12:08 2015.
