 Gaussian 09, Revision D.01,
 Gaussian 09:  ES64L-G09RevD.01 24-Apr-2013

 ------------------------------------------------------------
 #P AM1(Input,print) CIS(Singlets,NStates=15) pop(full) force
 ------------------------------------------------------------

 -----------------
 AM1-Reparam Input
 -----------------
 Symbolic Z-matrix:
 Charge =  0 Multiplicity = 1

                         Standard orientation:
 ---------------------------------------------------------------------
 Center     Atomic      Atomic             Coordinates (Angstroms)
 Number     Number       Type             X           Y           Z
 ---------------------------------------------------------------------
      1          6           0       -1.130919    0.287243   -0.029313
      2          6           0       -0.637332   -0.884118    0.006210
      3          8           0        0.735099   -0.927321   -0.005206
      4          6           0        1.033423    0.377811   -0.009964
      5          6           0       -0.047682    1.198774    0.038390
      6          1           0        0.041450    2.270713   -0.035986
      7          1           0        2.146735    0.537052   -0.008008
      8          1           0       -1.150029   -1.903191    0.061767
      9          1           0       -2.223890    0.635741   -0.008065
 ---------------------------------------------------------------------

 SCF Done:  E(RAM1) =   2.59844451735     A.U. after   14 cycles

 Excitation energies and oscillator strengths:

 Excited State   1:      Singlet-A      5.3599 eV  231.32 nm  f=0.3327  <S**2>=0.000
      13 -> 14         0.69442
 This state for optimization and/or second-order correction.
 Total Energy, E(CIS) =   2.79541684149
 Copying the excited state density for this state as the 1-particle RhoCI density.

 Excited State   2:      Singlet-A      5.8036 eV  213.63 nm  f=0.0001  <S**2>=0.000
      13 -> 15         0.67579
      13 -> 19        -0.12527

 Excited State   3:      Singlet-A      5.9673 eV  207.77 nm  f=0.0037  <S**2>=0.000
      13 -> 16         0.67710
      13 -> 17        -0.11353

 Excited State   4:      Singlet-A      6.8550 eV  180.87 nm  f=0.0008  <S**2>=0.000
      12 -> 14         0.69892

 Excited State   5:      Singlet-A      7.6290 eV  162.52 nm  f=0.0052  <S**2>=0.000
      11 -> 14        -0.16856
      13 -> 15         0.10903
      13 -> 17         0.61825
      13 -> 18         0.12154
      13 -> 19         0.12893
      13 -> 21         0.16965

 Excited State   6:      Singlet-A      7.9267 eV  156.41 nm  f=0.0069  <S**2>=0.000
      11 -> 14         0.58711
      13 -> 18         0.31065
      13 -> 19         0.15226
      13 -> 21         0.15078

 Excited State   7:      Singlet-A      8.0472 eV  154.07 nm  f=0.0033  <S**2>=0.000
      11 -> 14        -0.33653
      13 -> 17        -0.26241
      13 -> 18         0.48004
      13 -> 19         0.15282
      13 -> 21         0.20605

 Excited State   8:      Singlet-A      8.5449 eV  145.10 nm  f=0.0012  <S**2>=0.000
      13 -> 17        -0.10455
      13 -> 18        -0.29318
      13 -> 19         0.61400

 Excited State   9:      Singlet-A      8.7225 eV  142.14 nm  f=0.0714  <S**2>=0.000
       8 -> 16        -0.17004
      10 -> 14        -0.35341
      11 -> 17         0.11380
      12 -> 15        -0.36043
      12 -> 16         0.36114
      12 -> 17         0.15473
      12 -> 18         0.10563

 Excited State  10:      Singlet-A      8.9589 eV  138.39 nm  f=0.0889  <S**2>=0.000
       8 -> 15        -0.15411
      10 -> 14         0.48338
      12 -> 15        -0.43976

 Excited State  11:      Singlet-A      9.3286 eV  132.91 nm  f=0.0658  <S**2>=0.000
      10 -> 14         0.23155
      10 -> 15         0.13330
      11 -> 16         0.16893
      11 -> 17        -0.10394
      11 -> 18         0.10138
      12 -> 15         0.11582
      12 -> 16         0.53163
      12 -> 17        -0.16349

 Excited State  12:      Singlet-A      9.4327 eV  131.44 nm  f=0.0078  <S**2>=0.000
      10 -> 15        -0.36597
      10 -> 16        -0.17700
      11 -> 15        -0.14498
      12 -> 16         0.10638
      13 -> 15        -0.10269
      13 -> 18        -0.17499
      13 -> 19        -0.15578
      13 -> 21         0.44906

 Excited State  13:      Singlet-A      9.4912 eV  130.63 nm  f=0.0362  <S**2>=0.000
      10 -> 15         0.32973
      11 -> 15         0.32119
      11 -> 16         0.13367
      12 -> 15        -0.11872
      12 -> 16        -0.10248
      13 -> 18        -0.16021
      13 -> 20        -0.15326
      13 -> 21         0.36323

 Excited State  14:      Singlet-A      9.5694 eV  129.56 nm  f=0.1074  <S**2>=0.000
       9 -> 15         0.17022
      10 -> 14         0.15529
      10 -> 15         0.31717
      10 -> 16         0.12433
      11 -> 15        -0.24083
      11 -> 16        -0.25362
      11 -> 17         0.20286
      12 -> 15         0.17612
      12 -> 17         0.11657
      12 -> 18         0.18873
      13 -> 21         0.19419

 Excited State  15:      Singlet-A      9.7271 eV  127.46 nm  f=0.0868  <S**2>=0.000
       8 -> 15         0.13987
       9 -> 16        -0.13632
      10 -> 14         0.10810
      10 -> 15        -0.18909
      10 -> 16         0.27923
      11 -> 15         0.26572
      11 -> 19        -0.11966
      12 -> 15         0.10534
      12 -> 17         0.19114
      13 -> 20         0.38985

 The electronic state is 1-A.
 Alpha  occ. eigenvalues --   -1.74638  -1.17387  -0.94325  -0.80578  -0.74995
 Alpha  occ. eigenvalues --   -0.66554  -0.65094  -0.52126  -0.49376  -0.43057
 Alpha  occ. eigenvalues --   -0.42314  -0.38919  -0.27135
 Alpha virt. eigenvalues --    0.13392   0.16391   0.16964   0.26000   0.28498
 Alpha virt. eigenvalues --    0.30129   0.32869   0.34543   0.39779   0.49969
 Alpha virt. eigenvalues --    0.52781

 Mulliken charges:
               1
     1  C   -0.025318
     2  C   -1.878051
     3  O    3.202260
     4  C   -1.900795
     5  C   -0.110969
     6  H    0.113631
     7  H    0.241633
     8  H    0.254639
     9  H    0.102971
 Sum of Mulliken charges =   0.00000

 Dipole moment (field-independent basis, Debye):
    X=              6.8911    Y=             -9.2561    Z=             -0.0018  Tot=             11.5397
 N-N= 1.041354711080D+02 E-N=-1.694973610933D+02  KE=-1.504670748558D+01
 Orbital energies and kinetic energies (alpha):
                                 1                 2
   1         O                -1.746383         -1.251418
   2         O                -1.173868         -1.032355
   3         O                -0.943248         -0.871147
   4         O                -0.805784         -0.603725
   5         O                -0.749951         -0.667784
   6         O                -0.665537         -0.561849
   7         O                -0.650937         -0.535694

 Normal termination of Gaussian 09 at Tue Dec 15 17:06:11 2015.
