 Gaussian 09, Revision D.01,
 Gaussian 09:  ES64L-G09RevD.01 24-Apr-2013

 ------------------------------------------------------------
 #P AM1(Input,print) CIS(Singlets,NStates=15) pop(full) force
 ------------------------------------------------------------

 -----------------
 AM1-Reparam Input
 -----------------
 Symbolic Z-matrix:
 Charge =  0 Multiplicity = 1

                         Standard orientation:
 ---------------------------------------------------------------------
 Center     Atomic      Atomic             Coordinates (Angstroms)
 Number     Number       Type             X           Y           Z
 ---------------------------------------------------------------------
      1          6           0       -0.649209    0.952741   -0.010527
      2          6           0       -1.125689   -0.286260   -0.018166
      3          8           0       -0.016815   -1.185070    0.020537
      4          6           0        1.071734   -0.378041   -0.018015
      5          6           0        0.715134    0.952553    0.003449
      6          1           0        1.405952    1.806359    0.024339
      7          1           0        1.996069   -0.867944    0.000200
      8          1           0       -2.049384   -0.749091    0.004314
      9          1           0       -1.289940    1.845278    0.066410
 ---------------------------------------------------------------------

 SCF Done:  E(RAM1) =   1.87045316410     A.U. after   14 cycles

 Excitation energies and oscillator strengths:

 Excited State   1:      Singlet-A      5.8730 eV  211.11 nm  f=0.2897  <S**2>=0.000
      11 -> 17         0.11079
      13 -> 14         0.68297
 This state for optimization and/or second-order correction.
 Total Energy, E(CIS) =   2.08628269087
 Copying the excited state density for this state as the 1-particle RhoCI density.

 Excited State   2:      Singlet-A      6.5957 eV  187.98 nm  f=0.0028  <S**2>=0.000
      10 -> 15        -0.13243
      13 -> 15         0.65860
      13 -> 17        -0.16608
      13 -> 19         0.10181

 Excited State   3:      Singlet-A      6.9160 eV  179.27 nm  f=0.0018  <S**2>=0.000
      12 -> 14         0.68985

 Excited State   4:      Singlet-A      7.0306 eV  176.35 nm  f=0.0010  <S**2>=0.000
      10 -> 16         0.13495
      12 -> 14        -0.10551
      13 -> 16         0.65162
      13 -> 17        -0.10352

 Excited State   5:      Singlet-A      7.7332 eV  160.33 nm  f=0.0048  <S**2>=0.000
      11 -> 14         0.69022

 Excited State   6:      Singlet-A      8.2453 eV  150.37 nm  f=0.0079  <S**2>=0.000
      10 -> 15        -0.13032
      13 -> 15         0.13691
      13 -> 17         0.61690
      13 -> 18        -0.21138
      13 -> 22         0.12923

 Excited State   7:      Singlet-A      8.4572 eV  146.60 nm  f=0.0021  <S**2>=0.000
      10 -> 16         0.10907
      13 -> 16         0.10152
      13 -> 17         0.22950
      13 -> 18         0.60387
      13 -> 22        -0.23048

 Excited State   8:      Singlet-A      8.8979 eV  139.34 nm  f=0.0154  <S**2>=0.000
       8 -> 16         0.11801
       9 -> 15        -0.10466
      10 -> 14         0.27382
      11 -> 16         0.21219
      11 -> 17        -0.20018
      12 -> 15         0.30982
      12 -> 16        -0.14580
      12 -> 17        -0.23399
      12 -> 18         0.25204
      12 -> 22        -0.10061
      13 -> 14         0.11456

 Excited State   9:      Singlet-A      9.1308 eV  135.79 nm  f=0.0295  <S**2>=0.000
       8 -> 15        -0.10601
       9 -> 15         0.12554
      10 -> 14         0.54077
      11 -> 18         0.13432
      12 -> 15        -0.32357
      13 -> 21         0.12597

 Excited State  10:      Singlet-A      9.1648 eV  135.28 nm  f=0.0018  <S**2>=0.000
      13 -> 19         0.65546
      13 -> 20        -0.13129

 Excited State  11:      Singlet-A      9.5656 eV  129.62 nm  f=0.2177  <S**2>=0.000
       9 -> 16         0.11403
      11 -> 16         0.19128
      12 -> 15        -0.10306
      12 -> 16         0.57809
      12 -> 17        -0.17917
      12 -> 19        -0.15099

 Excited State  12:      Singlet-A      9.6254 eV  128.81 nm  f=0.0739  <S**2>=0.000
       9 -> 15        -0.11145
      10 -> 14        -0.14209
      11 -> 15         0.51860
      11 -> 17        -0.19895
      11 -> 19         0.12280
      12 -> 15        -0.28895
      12 -> 16        -0.13457
      12 -> 17         0.11016
      12 -> 18         0.10165

 Excited State  13:      Singlet-A      9.8085 eV  126.40 nm  f=0.1017  <S**2>=0.000
       9 -> 15        -0.19314
      10 -> 14         0.26531
      11 -> 15         0.22454
      11 -> 19         0.18568
      12 -> 15         0.24861
      12 -> 16         0.19728
      12 -> 17         0.21289
      12 -> 18        -0.25375
      12 -> 19         0.13804
      12 -> 20         0.12351

 Excited State  14:      Singlet-A      9.8688 eV  125.63 nm  f=0.0249  <S**2>=0.000
      10 -> 15        -0.17178
      10 -> 16        -0.12211
      13 -> 18         0.23925
      13 -> 19         0.16376
      13 -> 20         0.29189
      13 -> 22         0.49735

 Excited State  15:      Singlet-A      9.9498 eV  124.61 nm  f=0.0385  <S**2>=0.000
      10 -> 15         0.53119
      13 -> 15         0.12597
      13 -> 20         0.40346

 The electronic state is 1-A.
 Alpha  occ. eigenvalues --   -1.93470  -1.23146  -0.97926  -0.81891  -0.80093
 Alpha  occ. eigenvalues --   -0.68724  -0.66636  -0.51566  -0.49327  -0.41610
 Alpha  occ. eigenvalues --   -0.39681  -0.37218  -0.27735
 Alpha virt. eigenvalues --    0.15564   0.19605   0.21660   0.26797   0.28760
 Alpha virt. eigenvalues --    0.31273   0.33365   0.34358   0.36617   0.43705
 Alpha virt. eigenvalues --    0.47474

 Mulliken charges:
               1
     1  C   -0.035729
     2  C   -1.898193
     3  O    3.121866
     4  C   -1.932551
     5  C   -0.136880
     6  H    0.152609
     7  H    0.302017
     8  H    0.285995
     9  H    0.140866
 Sum of Mulliken charges =   0.00000

 Dipole moment (field-independent basis, Debye):
    X=              0.0439    Y=            -10.8492    Z=              0.6453  Tot=             10.8684
 N-N= 1.042588857827D+02 E-N=-1.699089759374D+02  KE=-1.568744516846D+01
 Orbital energies and kinetic energies (alpha):
                                 1                 2
   1         O                -1.934700         -1.395054
   2         O                -1.231457         -1.101272
   3         O                -0.979256         -0.916227
   4         O                -0.818911         -0.696803
   5         O                -0.800933         -0.621046
   6         O                -0.687242         -0.582396
   7         O                -0.666359         -0.582287

 Normal termination of Gaussian 09 at Tue Dec 15 17:10:04 2015.
