 Gaussian 09, Revision D.01,
 Gaussian 09:  ES64L-G09RevD.01 24-Apr-2013

 ------------------------------------------------------------
 #P AM1(Input,print) CIS(Singlets,NStates=15) pop(full) force
 ------------------------------------------------------------

 -----------------
 AM1-Reparam Input
 -----------------
 Symbolic Z-matrix:
 Charge =  0 Multiplicity = 1

                         Standard orientation:
 ---------------------------------------------------------------------
 Center     Atomic      Atomic             Coordinates (Angstroms)
 Number     Number       Type             X           Y           Z
 ---------------------------------------------------------------------
      1          6           0       -1.115220    0.506248    0.010032
      2          6           0       -0.781567   -0.769679   -0.008981
      3          8           0        0.554626   -1.039254   -0.005218
      4          6           0        1.133608    0.197050    0.015542
      5          6           0        0.174769    1.171781   -0.010840
      6          1           0        0.351075    2.265793    0.005408
      7          1           0        2.262143    0.197772   -0.014644
      8          1           0       -1.455427   -1.702582    0.031262
      9          1           0       -2.064344    0.920648   -0.014796
 ---------------------------------------------------------------------

 SCF Done:  E(RAM1) =   2.61435487263     A.U. after   13 cycles

 Excitation energies and oscillator strengths:

 Excited State   1:      Singlet-A      4.9894 eV  248.49 nm  f=0.3587  <S**2>=0.000
      13 -> 14         0.69933
 This state for optimization and/or second-order correction.
 Total Energy, E(CIS) =   2.79771296743
 Copying the excited state density for this state as the 1-particle RhoCI density.

 Excited State   2:      Singlet-A      5.7818 eV  214.44 nm  f=0.0002  <S**2>=0.000
      13 -> 15         0.67325
      13 -> 17        -0.12716
      13 -> 19         0.11709

 Excited State   3:      Singlet-A      6.2567 eV  198.16 nm  f=0.0018  <S**2>=0.000
      12 -> 14         0.12152
      13 -> 16         0.66435
      13 -> 18        -0.13661

 Excited State   4:      Singlet-A      6.4369 eV  192.61 nm  f=0.0000  <S**2>=0.000
      12 -> 14         0.68935
      13 -> 16        -0.11980

 Excited State   5:      Singlet-A      7.5354 eV  164.53 nm  f=0.0055  <S**2>=0.000
      10 -> 14         0.67944
      13 -> 17        -0.16046

 Excited State   6:      Singlet-A      7.6576 eV  161.91 nm  f=0.0001  <S**2>=0.000
      10 -> 14         0.16438
      13 -> 15         0.10603
      13 -> 17         0.65100
      13 -> 21        -0.11338

 Excited State   7:      Singlet-A      8.4622 eV  146.51 nm  f=0.1229  <S**2>=0.000
      11 -> 14         0.69342

 Excited State   8:      Singlet-A      8.9258 eV  138.91 nm  f=0.0091  <S**2>=0.000
      11 -> 15         0.24800
      11 -> 16        -0.16425
      13 -> 18         0.62182

 Excited State   9:      Singlet-A      8.9903 eV  137.91 nm  f=0.1668  <S**2>=0.000
       9 -> 15         0.14611
       9 -> 16         0.11651
      10 -> 18        -0.11702
      12 -> 15         0.59597
      12 -> 16        -0.10679
      12 -> 17        -0.20277

 Excited State  10:      Singlet-A      9.1711 eV  135.19 nm  f=0.0009  <S**2>=0.000
      11 -> 15        -0.12385
      11 -> 16        -0.18644
      13 -> 19         0.65389

 Excited State  11:      Singlet-A      9.6308 eV  128.74 nm  f=0.1024  <S**2>=0.000
      10 -> 16         0.25721
      10 -> 18        -0.13461
      12 -> 16         0.56802
      12 -> 17        -0.15981
      12 -> 18        -0.14160

 Excited State  12:      Singlet-A      9.6919 eV  127.93 nm  f=0.1317  <S**2>=0.000
       8 -> 15         0.11660
      10 -> 15        -0.30493
      10 -> 16        -0.25205
      10 -> 18         0.17609
      12 -> 15         0.20481
      12 -> 16         0.23196
      12 -> 17         0.38439

 Excited State  13:      Singlet-A      9.8245 eV  126.20 nm  f=0.0030  <S**2>=0.000
       7 -> 15        -0.10798
      11 -> 15         0.60284
      13 -> 15        -0.11607
      13 -> 16        -0.10076
      13 -> 18        -0.22633
      13 -> 19         0.13406

 Excited State  14:      Singlet-A      9.9858 eV  124.16 nm  f=0.0008  <S**2>=0.000
      11 -> 16         0.61948
      13 -> 16         0.12359
      13 -> 18         0.17042
      13 -> 19         0.17144

 Excited State  15:      Singlet-A     10.0971 eV  122.79 nm  f=0.0168  <S**2>=0.000
       8 -> 16        -0.13350
       9 -> 15         0.28057
      10 -> 15         0.49683
      10 -> 19         0.19949
      12 -> 16         0.15576
      12 -> 17         0.22890

 The electronic state is 1-A.
 Alpha  occ. eigenvalues --   -1.84129  -1.12119  -0.85956  -0.79083  -0.73535
 Alpha  occ. eigenvalues --   -0.65937  -0.62700  -0.54292  -0.53390  -0.44455
 Alpha  occ. eigenvalues --   -0.44027  -0.41072  -0.28506
 Alpha virt. eigenvalues --    0.09710   0.15641   0.17287   0.26117   0.28440
 Alpha virt. eigenvalues --    0.30054   0.36786   0.41393   0.48371   0.56526
 Alpha virt. eigenvalues --    0.59689

 Mulliken charges:
               1
     1  C   -0.174066
     2  C   -1.987518
     3  O    3.424305
     4  C   -1.988854
     5  C   -0.193873
     6  H    0.187092
     7  H    0.271966
     8  H    0.287038
     9  H    0.173911
 Sum of Mulliken charges =   0.00000

 Dipole moment (field-independent basis, Debye):
    X=              5.2889    Y=            -10.9130    Z=             -0.1098  Tot=             12.1275
 N-N= 1.037500685907D+02 E-N=-1.693777061117D+02  KE=-1.430966707330D+01
 Orbital energies and kinetic energies (alpha):
                                 1                 2
   1         O                -1.841291         -1.241022
   2         O                -1.121193         -0.975219
   3         O                -0.859564         -0.795208
   4         O                -0.790829         -0.518584
   5         O                -0.735353         -0.601166
   6         O                -0.659366         -0.545335
   7         O                -0.626998         -0.496351

 Normal termination of Gaussian 09 at Tue Dec 15 17:07:33 2015.
