 Gaussian 09, Revision D.01,
 Gaussian 09:  ES64L-G09RevD.01 24-Apr-2013

 -------------------------------------------------------
 #P B3LYP/3-21G CIS(Singlets,NStates=15) pop(full) force
 -------------------------------------------------------

 --------
 FuranDFT
 --------
 Symbolic Z-matrix:
 Charge =  0 Multiplicity = 1

                         Standard orientation:
 ---------------------------------------------------------------------
 Center     Atomic      Atomic             Coordinates (Angstroms)
 Number     Number       Type             X           Y           Z
 ---------------------------------------------------------------------
      1          6           0       -0.357273    1.107183    0.008426
      2          6           0       -1.134583   -0.015534   -0.019840
      3          8           0       -0.369875   -1.079863    0.012951
      4          6           0        0.918742   -0.623146   -0.030174
      5          6           0        0.961139    0.656778    0.000726
      6          1           0        1.851394    1.255369    0.024804
      7          1           0        1.690044   -1.408432    0.072972
      8          1           0       -2.200424   -0.150930    0.036690
      9          1           0       -0.710163    2.191213    0.007102
 ---------------------------------------------------------------------

 SCF Done:  E(RB3LYP) =  -228.731820964     A.U. after   14 cycles

 Excitation energies and oscillator strengths:

 Excited State   1:      Singlet-A      7.4785 eV  165.79 nm  f=0.1810  <S**2>=0.000
      17 -> 19        -0.18726
      18 -> 19         0.61524
      18 -> 20        -0.24326
 This state for optimization and/or second-order correction.
 Total Energy, E(CIS) =  -228.456990317
 Copying the excited state density for this state as the 1-particle RhoCI density.

 Excited State   2:      Singlet-A      7.7484 eV  160.01 nm  f=0.0552  <S**2>=0.000
      17 -> 19         0.47894
      18 -> 19         0.29445
      18 -> 20         0.41162

 Excited State   3:      Singlet-A      8.4440 eV  146.83 nm  f=0.0004  <S**2>=0.000
      18 -> 21         0.70082

 Excited State   4:      Singlet-A      9.0770 eV  136.59 nm  f=0.0074  <S**2>=0.000
      16 -> 19         0.69642

 Excited State   5:      Singlet-A      9.4448 eV  131.27 nm  f=0.0003  <S**2>=0.000
      18 -> 22         0.67835
      18 -> 23        -0.14453

 Excited State   6:      Singlet-A      9.6420 eV  128.59 nm  f=0.0507  <S**2>=0.000
      17 -> 19         0.14645
      17 -> 21         0.29651
      18 -> 20        -0.17282
      18 -> 22         0.12687
      18 -> 23         0.56563

 Excited State   7:      Singlet-A      9.8998 eV  125.24 nm  f=0.3186  <S**2>=0.000
      17 -> 19         0.30860
      17 -> 20         0.39354
      18 -> 20        -0.35630
      18 -> 23        -0.24027

 Excited State   8:      Singlet-A      9.9323 eV  124.83 nm  f=0.0095  <S**2>=0.000
      17 -> 21         0.62939
      18 -> 23        -0.27893

 Excited State   9:      Singlet-A     10.2053 eV  121.49 nm  f=0.0057  <S**2>=0.000
      15 -> 19         0.66310
      18 -> 24         0.20350

 Excited State  10:      Singlet-A     10.3377 eV  119.93 nm  f=0.0989  <S**2>=0.000
      14 -> 19        -0.11342
      15 -> 19        -0.13891
      17 -> 19        -0.12642
      17 -> 20         0.35426
      18 -> 20         0.12472
      18 -> 24         0.52475

 Excited State  11:      Singlet-A     10.4098 eV  119.10 nm  f=0.2306  <S**2>=0.000
      15 -> 19        -0.14319
      17 -> 19         0.22611
      17 -> 20        -0.38507
      17 -> 22         0.13939
      18 -> 20        -0.22451
      18 -> 24         0.39808

 Excited State  12:      Singlet-A     10.5767 eV  117.22 nm  f=0.0021  <S**2>=0.000
      13 -> 19         0.10115
      14 -> 19         0.62812
      16 -> 20        -0.25789

 Excited State  13:      Singlet-A     10.9024 eV  113.72 nm  f=0.0463  <S**2>=0.000
      14 -> 19         0.10670
      17 -> 20         0.10451
      17 -> 22         0.65725

 Excited State  14:      Singlet-A     11.1209 eV  111.49 nm  f=0.0053  <S**2>=0.000
      13 -> 19         0.17308
      14 -> 19         0.22659
      16 -> 20         0.63143

 Excited State  15:      Singlet-A     11.2364 eV  110.34 nm  f=0.0035  <S**2>=0.000
      18 -> 25         0.68620

 The electronic state is 1-A.
 Alpha  occ. eigenvalues --  -19.11446 -10.17328 -10.16720 -10.12289 -10.11430
 Alpha  occ. eigenvalues --   -1.15007  -0.82325  -0.75350  -0.60789  -0.56947
 Alpha  occ. eigenvalues --   -0.54536  -0.46220  -0.44254  -0.41628  -0.39967
 Alpha  occ. eigenvalues --   -0.36404  -0.28708  -0.23315
 Alpha virt. eigenvalues --    0.02893   0.09452   0.12292   0.15570   0.17227
 Alpha virt. eigenvalues --    0.18627   0.22865   0.24912   0.36738   0.43982
 Alpha virt. eigenvalues --    0.49499   0.67936   0.69619   0.72550   0.76239

 Mulliken charges:
               1
     1  C   -0.254366
     2  C    0.116158
     3  O   -0.496099
     4  C    0.091394
     5  C   -0.254237
     6  H    0.193738
     7  H    0.209865
     8  H    0.216581
     9  H    0.176966
 Sum of Mulliken charges =   0.00000

 Dipole moment (field-independent basis, Debye):
    X=              0.2674    Y=              0.6380    Z=              0.1272  Tot=              0.7034
 Quadrupole moment (field-independent basis, Debye-Ang):
   XX=            -24.1139   YY=            -27.8945   ZZ=            -31.5594
   XY=             -1.0327   XZ=              0.1216   YZ=             -0.0789

 Normal termination of Gaussian 09 at Tue Dec 15 16:31:15 2015.
