 Gaussian 09, Revision D.01,
 Gaussian 09:  ES64L-G09RevD.01 24-Apr-2013

 ------------------------------------------------------------
 #P AM1(Input,print) CIS(Singlets,NStates=15) pop(full) force
 ------------------------------------------------------------

 -----------------
 AM1-Reparam Input
 -----------------
 Symbolic Z-matrix:
 Charge =  0 Multiplicity = 1

                         Standard orientation:
 ---------------------------------------------------------------------
 Center     Atomic      Atomic             Coordinates (Angstroms)
 Number     Number       Type             X           Y           Z
 ---------------------------------------------------------------------
      1          6           0       -1.130919    0.287243   -0.029313
      2          6           0       -0.637332   -0.884118    0.006210
      3          8           0        0.735099   -0.927321   -0.005206
      4          6           0        1.033423    0.377811   -0.009964
      5          6           0       -0.047682    1.198774    0.038390
      6          1           0        0.041450    2.270713   -0.035986
      7          1           0        2.146735    0.537052   -0.008008
      8          1           0       -1.150029   -1.903191    0.061767
      9          1           0       -2.223890    0.635741   -0.008065
 ---------------------------------------------------------------------

 SCF Done:  E(RAM1) =   1.90714210090     A.U. after   14 cycles

 Excitation energies and oscillator strengths:

 Excited State   1:      Singlet-A      5.6571 eV  219.17 nm  f=0.3055  <S**2>=0.000
      13 -> 14         0.68722
 This state for optimization and/or second-order correction.
 Total Energy, E(CIS) =   2.11503531406
 Copying the excited state density for this state as the 1-particle RhoCI density.

 Excited State   2:      Singlet-A      5.8900 eV  210.50 nm  f=0.0005  <S**2>=0.000
      10 -> 16        -0.10021
      13 -> 15         0.68006
      13 -> 19        -0.11511

 Excited State   3:      Singlet-A      6.0717 eV  204.20 nm  f=0.0093  <S**2>=0.000
      10 -> 15        -0.10335
      13 -> 16         0.67777
      13 -> 17        -0.10578

 Excited State   4:      Singlet-A      6.7205 eV  184.49 nm  f=0.0008  <S**2>=0.000
      12 -> 14         0.70074

 Excited State   5:      Singlet-A      7.6850 eV  161.33 nm  f=0.0103  <S**2>=0.000
      11 -> 14        -0.43043
      13 -> 17         0.53062

 Excited State   6:      Singlet-A      7.8462 eV  158.02 nm  f=0.0005  <S**2>=0.000
      11 -> 14         0.54746
      13 -> 17         0.40204
      13 -> 19         0.10526

 Excited State   7:      Singlet-A      8.1675 eV  151.80 nm  f=0.0066  <S**2>=0.000
      13 -> 17         0.10454
      13 -> 18         0.61126
      13 -> 19        -0.19687
      13 -> 22        -0.22104

 Excited State   8:      Singlet-A      8.4131 eV  147.37 nm  f=0.0965  <S**2>=0.000
       8 -> 16         0.18559
      10 -> 14         0.13602
      11 -> 16         0.10171
      11 -> 17        -0.12776
      12 -> 15         0.50514
      12 -> 16        -0.28802
      12 -> 17        -0.15210
      12 -> 18         0.12124

 Excited State   9:      Singlet-A      8.6804 eV  142.83 nm  f=0.0014  <S**2>=0.000
      13 -> 17        -0.11933
      13 -> 18         0.25646
      13 -> 19         0.62806

 Excited State  10:      Singlet-A      8.8116 eV  140.71 nm  f=0.0098  <S**2>=0.000
       8 -> 15         0.19467
      10 -> 14        -0.38620
      11 -> 18        -0.11558
      12 -> 15         0.31252
      12 -> 16         0.39691

 Excited State  11:      Singlet-A      9.1070 eV  136.14 nm  f=0.0802  <S**2>=0.000
       9 -> 16        -0.10523
      10 -> 14         0.28755
      11 -> 16         0.28098
      11 -> 17        -0.15736
      12 -> 15        -0.10989
      12 -> 16         0.39337
      12 -> 17        -0.26344
      12 -> 18         0.11945

 Excited State  12:      Singlet-A      9.2657 eV  133.81 nm  f=0.0446  <S**2>=0.000
       9 -> 15         0.17327
       9 -> 16         0.10381
      10 -> 14        -0.12646
      11 -> 15         0.50629
      11 -> 16         0.23259
      11 -> 17        -0.16139
      11 -> 18        -0.11638
      11 -> 19        -0.10242
      12 -> 15        -0.13682
      12 -> 16        -0.10176
      12 -> 18         0.11956

 Excited State  13:      Singlet-A      9.4631 eV  131.02 nm  f=0.0330  <S**2>=0.000
      10 -> 14         0.18561
      10 -> 15         0.52497
      10 -> 16         0.26911
      13 -> 15         0.11627
      13 -> 22        -0.12475

 Excited State  14:      Singlet-A      9.5378 eV  129.99 nm  f=0.1837  <S**2>=0.000
       8 -> 15         0.13703
       9 -> 16         0.13233
      10 -> 14         0.40638
      10 -> 15        -0.25492
      11 -> 15         0.22747
      11 -> 16        -0.13464
      11 -> 19        -0.13703
      12 -> 15         0.14876
      12 -> 16         0.16928
      12 -> 17         0.20616
      12 -> 18        -0.10758

 Excited State  15:      Singlet-A      9.6719 eV  128.19 nm  f=0.0295  <S**2>=0.000
      10 -> 15        -0.26123
      10 -> 16         0.37941
      13 -> 18        -0.15743
      13 -> 19         0.13258
      13 -> 20         0.23682
      13 -> 22        -0.36035

 The electronic state is 1-A.
 Alpha  occ. eigenvalues --   -1.94796  -1.23322  -0.97334  -0.80566  -0.79318
 Alpha  occ. eigenvalues --   -0.69504  -0.66072  -0.49058  -0.48389  -0.41256
 Alpha  occ. eigenvalues --   -0.39420  -0.36009  -0.26011
 Alpha virt. eigenvalues --    0.15881   0.17835   0.18445   0.27270   0.29614
 Alpha virt. eigenvalues --    0.31797   0.34331   0.36471   0.37410   0.46174
 Alpha virt. eigenvalues --    0.49194

 Mulliken charges:
               1
     1  C   -0.041373
     2  C   -1.866673
     3  O    3.098786
     4  C   -1.888049
     5  C   -0.154450
     6  H    0.148606
     7  H    0.282232
     8  H    0.291954
     9  H    0.128968
 Sum of Mulliken charges =   0.00000

 Dipole moment (field-independent basis, Debye):
    X=              6.7241    Y=             -9.0521    Z=             -0.0047  Tot=             11.2762
 N-N= 1.045581303721D+02 E-N=-1.705989700267D+02  KE=-1.568190917261D+01
 Orbital energies and kinetic energies (alpha):
                                 1                 2
   1         O                -1.947958         -1.425441
   2         O                -1.233220         -1.106443
   3         O                -0.973340         -0.913842
   4         O                -0.805657         -0.612806
   5         O                -0.793178         -0.672765
   6         O                -0.695044         -0.586251
   7         O                -0.660721         -0.575724

 Normal termination of Gaussian 09 at Tue Dec 15 17:09:52 2015.
