 Gaussian 09, Revision D.01,
 Gaussian 09:  ES64L-G09RevD.01 24-Apr-2013

 ------------------------------------------------------------
 #P AM1(Input,print) CIS(Singlets,NStates=15) pop(full) force
 ------------------------------------------------------------

 -----------------
 AM1-Reparam Input
 -----------------
 Symbolic Z-matrix:
 Charge =  0 Multiplicity = 1

                         Standard orientation:
 ---------------------------------------------------------------------
 Center     Atomic      Atomic             Coordinates (Angstroms)
 Number     Number       Type             X           Y           Z
 ---------------------------------------------------------------------
      1          6           0       -0.585602    1.057473   -0.018000
      2          6           0       -1.120263   -0.201910    0.019622
      3          8           0       -0.163898   -1.148734   -0.002021
      4          6           0        1.014724   -0.518693   -0.021482
      5          6           0        0.875538    0.862879    0.004002
      6          1           0        1.588808    1.641524    0.066881
      7          1           0        1.873576   -1.106909    0.044213
      8          1           0       -2.169753   -0.487836    0.012103
      9          1           0       -1.087835    1.944592   -0.011880
 ---------------------------------------------------------------------

 SCF Done:  E(RAM1) =  0.199500192423E-01 A.U. after   14 cycles

 Excitation energies and oscillator strengths:

 Excited State   1:      Singlet-A      4.4415 eV  279.15 nm  f=0.0723  <S**2>=0.000
      12 -> 15         0.23120
      13 -> 14         0.66120
 This state for optimization and/or second-order correction.
 Total Energy, E(CIS) =  0.183173371274
 Copying the excited state density for this state as the 1-particle RhoCI density.

 Excited State   2:      Singlet-A      4.8776 eV  254.19 nm  f=0.0059  <S**2>=0.000
      12 -> 14        -0.27993
      13 -> 15         0.44002
      13 -> 16         0.45999

 Excited State   3:      Singlet-A      4.9942 eV  248.26 nm  f=0.0032  <S**2>=0.000
      12 -> 14         0.30341
      13 -> 15        -0.36531
      13 -> 16         0.50832

 Excited State   4:      Singlet-A      5.8049 eV  213.59 nm  f=0.0032  <S**2>=0.000
      12 -> 16        -0.16494
      12 -> 18         0.16752
      12 -> 19         0.13929
      12 -> 21        -0.15995
      13 -> 18         0.51481
      13 -> 19         0.20131
      13 -> 21        -0.11753
      13 -> 23        -0.19623

 Excited State   5:      Singlet-A      5.9194 eV  209.45 nm  f=0.0202  <S**2>=0.000
       7 -> 16        -0.15924
      12 -> 15         0.23968
      12 -> 16         0.57930
      12 -> 22         0.10044
      13 -> 18         0.11037

 Excited State   6:      Singlet-A      6.0156 eV  206.10 nm  f=0.0078  <S**2>=0.000
      12 -> 15        -0.13467
      12 -> 18         0.26116
      12 -> 19        -0.13224
      12 -> 21         0.14206
      12 -> 23        -0.12304
      13 -> 18        -0.20400
      13 -> 19         0.38479
      13 -> 21        -0.33405
      13 -> 23         0.11036

 Excited State   7:      Singlet-A      6.1416 eV  201.87 nm  f=0.2651  <S**2>=0.000
      12 -> 14         0.41534
      12 -> 15         0.33790
      12 -> 16        -0.23494
      13 -> 14        -0.11234
      13 -> 15         0.29358

 Excited State   8:      Singlet-A      6.1652 eV  201.10 nm  f=0.2539  <S**2>=0.000
      12 -> 14        -0.33155
      12 -> 15         0.48997
      12 -> 16        -0.12164
      13 -> 14        -0.16845
      13 -> 15        -0.24494

 Excited State   9:      Singlet-A      6.4671 eV  191.72 nm  f=0.0010  <S**2>=0.000
      11 -> 14        -0.12659
      12 -> 19         0.10818
      13 -> 17         0.62182
      13 -> 18        -0.19516
      13 -> 19         0.10427
      13 -> 23        -0.12001

 Excited State  10:      Singlet-A      6.8360 eV  181.37 nm  f=0.0005  <S**2>=0.000
      12 -> 17         0.53522
      12 -> 18        -0.24962
      12 -> 20         0.25306
      12 -> 23        -0.14887
      13 -> 19         0.18270

 Excited State  11:      Singlet-A      7.0892 eV  174.89 nm  f=0.0025  <S**2>=0.000
       9 -> 14         0.31919
      10 -> 15        -0.28879
      11 -> 14         0.50982
      13 -> 17         0.11168

 Excited State  12:      Singlet-A      7.1613 eV  173.13 nm  f=0.0006  <S**2>=0.000
      10 -> 14        -0.37415
      11 -> 15         0.54253

 Excited State  13:      Singlet-A      7.4303 eV  166.86 nm  f=0.0005  <S**2>=0.000
       9 -> 15         0.10168
      10 -> 14        -0.20036
      12 -> 17        -0.14211
      12 -> 18        -0.29930
      12 -> 20        -0.26538
      12 -> 21        -0.11965
      12 -> 23         0.10019
      12 -> 24         0.10475
      13 -> 19         0.38173
      13 -> 20        -0.11810
      13 -> 21         0.12678

 Excited State  14:      Singlet-A      7.5579 eV  164.05 nm  f=0.0028  <S**2>=0.000
      12 -> 19        -0.34890
      12 -> 20        -0.12625
      12 -> 22         0.10662
      13 -> 18         0.13563
      13 -> 19         0.14367
      13 -> 20         0.38554
      13 -> 21         0.24819
      13 -> 22         0.13782
      13 -> 23        -0.10853
      13 -> 24        -0.19932

 Excited State  15:      Singlet-A      7.5737 eV  163.70 nm  f=0.0007  <S**2>=0.000
      12 -> 18         0.36566
      12 -> 19         0.17977
      12 -> 22        -0.11253
      13 -> 18        -0.13701
      13 -> 21         0.21262
      13 -> 22         0.39604
      13 -> 24         0.14339

 The electronic state is 1-A.
 Alpha  occ. eigenvalues --   -1.57724  -1.23321  -1.10106  -0.83563  -0.81427
 Alpha  occ. eigenvalues --   -0.69124  -0.61175  -0.57813  -0.51410  -0.50907
 Alpha  occ. eigenvalues --   -0.48709  -0.38706  -0.34601
 Alpha virt. eigenvalues --    0.03182   0.05742   0.09589   0.14174   0.14682
 Alpha virt. eigenvalues --    0.16076   0.18059   0.18259   0.19342   0.20842
 Alpha virt. eigenvalues --    0.22628

 Mulliken charges:
               1
     1  C   -0.209362
     2  C   -0.115144
     3  O   -0.050761
     4  C   -0.102549
     5  C   -0.210716
     6  H    0.164776
     7  H    0.180722
     8  H    0.188722
     9  H    0.154311
 Sum of Mulliken charges =   0.00000

 Dipole moment (field-independent basis, Debye):
    X=             -0.0204    Y=              0.2741    Z=              0.1173  Tot=              0.2988
 N-N= 1.035163485414D+02 E-N=-1.710320587258D+02  KE=-1.658901809562D+01
 Orbital energies and kinetic energies (alpha):
                                 1                 2
   1         O                -1.577237         -1.313323
   2         O                -1.233206         -1.055216
   3         O                -1.101057         -0.960825
   4         O                -0.835631         -0.711879
   5         O                -0.814268         -0.727951
   6         O                -0.691243         -0.604762
   7         O                -0.611752         -0.490316

 Normal termination of Gaussian 09 at Tue Dec 15 16:22:12 2015.
