 Gaussian 09, Revision D.01,
 Gaussian 09:  ES64L-G09RevD.01 24-Apr-2013

 ------------------------------------------------------------
 #P AM1(Input,print) CIS(Singlets,NStates=15) pop(full) force
 ------------------------------------------------------------

 -----------------
 AM1-Reparam Input
 -----------------
 Symbolic Z-matrix:
 Charge =  0 Multiplicity = 1

                         Standard orientation:
 ---------------------------------------------------------------------
 Center     Atomic      Atomic             Coordinates (Angstroms)
 Number     Number       Type             X           Y           Z
 ---------------------------------------------------------------------
      1          6           0       -0.244090    1.138976    0.015891
      2          6           0       -1.154905    0.138667   -0.008544
      3          8           0       -0.490985   -1.047759    0.008506
      4          6           0        0.834666   -0.734532   -0.013608
      5          6           0        1.090518    0.567164   -0.001785
      6          1           0        1.981054    1.088215   -0.020108
      7          1           0        1.450457   -1.651998    0.033422
      8          1           0       -2.169599    0.093377   -0.031228
      9          1           0       -0.491172    2.190821   -0.001858
 ---------------------------------------------------------------------

 SCF Done:  E(RAM1) =  0.229161788026E-01 A.U. after   13 cycles

 Excitation energies and oscillator strengths:

 Excited State   1:      Singlet-A      4.5885 eV  270.20 nm  f=0.0760  <S**2>=0.000
      12 -> 15         0.21574
      13 -> 14         0.66630
 This state for optimization and/or second-order correction.
 Total Energy, E(CIS) =  0.191542114189
 Copying the excited state density for this state as the 1-particle RhoCI density.

 Excited State   2:      Singlet-A      5.1755 eV  239.56 nm  f=0.0058  <S**2>=0.000
      12 -> 14        -0.42167
      13 -> 15         0.55388

 Excited State   3:      Singlet-A      5.2580 eV  235.80 nm  f=0.0003  <S**2>=0.000
      13 -> 16         0.67722
      13 -> 22        -0.11318

 Excited State   4:      Singlet-A      6.0370 eV  205.37 nm  f=0.0031  <S**2>=0.000
       7 -> 16        -0.13092
      12 -> 16         0.50241
      12 -> 21        -0.12141
      12 -> 22        -0.17430
      13 -> 18         0.33296
      13 -> 19         0.13733
      13 -> 23         0.13920

 Excited State   5:      Singlet-A      6.0477 eV  205.01 nm  f=0.0000  <S**2>=0.000
      12 -> 16        -0.34700
      12 -> 18         0.14115
      12 -> 19         0.16483
      13 -> 18         0.21387
      13 -> 19         0.36431
      13 -> 21        -0.22366
      13 -> 22        -0.15732
      13 -> 23         0.16927

 Excited State   6:      Singlet-A      6.2295 eV  199.03 nm  f=0.0049  <S**2>=0.000
      12 -> 16        -0.22095
      12 -> 18        -0.24249
      12 -> 23        -0.11368
      13 -> 18         0.38909
      13 -> 19        -0.25736
      13 -> 21         0.20274
      13 -> 22         0.16090
      13 -> 23         0.12955

 Excited State   7:      Singlet-A      6.2879 eV  197.18 nm  f=0.3306  <S**2>=0.000
      12 -> 14         0.49096
      12 -> 15         0.24442
      13 -> 15         0.37354

 Excited State   8:      Singlet-A      6.4154 eV  193.26 nm  f=0.1857  <S**2>=0.000
      12 -> 14        -0.18106
      12 -> 15         0.60784
      13 -> 14        -0.18722
      13 -> 15        -0.16249

 Excited State   9:      Singlet-A      6.5111 eV  190.42 nm  f=0.0038  <S**2>=0.000
      11 -> 14         0.11246
      12 -> 18         0.10576
      12 -> 19        -0.10228
      13 -> 17         0.62750
      13 -> 21        -0.13467
      13 -> 23        -0.11466

 Excited State  10:      Singlet-A      6.9669 eV  177.96 nm  f=0.0011  <S**2>=0.000
      12 -> 17         0.53654
      12 -> 18         0.25611
      12 -> 19        -0.10988
      12 -> 20         0.14240
      12 -> 21        -0.11694
      12 -> 23        -0.11175
      13 -> 18         0.10825
      13 -> 19        -0.20092

 Excited State  11:      Singlet-A      7.2372 eV  171.31 nm  f=0.0012  <S**2>=0.000
       9 -> 15        -0.11557
      10 -> 14         0.56758
      10 -> 15         0.22622
      11 -> 14         0.20847
      11 -> 15         0.16668

 Excited State  12:      Singlet-A      7.3244 eV  169.28 nm  f=0.0023  <S**2>=0.000
       9 -> 14        -0.20032
      10 -> 15         0.15296
      11 -> 14         0.47640
      11 -> 15        -0.38067

 Excited State  13:      Singlet-A      7.5274 eV  164.71 nm  f=0.0006  <S**2>=0.000
       9 -> 15         0.13266
      10 -> 14        -0.16978
      11 -> 14         0.19214
      12 -> 17        -0.16222
      12 -> 18         0.32015
      12 -> 19         0.11730
      12 -> 20        -0.22038
      12 -> 21         0.13145
      12 -> 23         0.17384
      13 -> 17        -0.14302
      13 -> 18         0.17171
      13 -> 19        -0.25510
      13 -> 20        -0.12787

 Excited State  14:      Singlet-A      7.6024 eV  163.09 nm  f=0.0016  <S**2>=0.000
       9 -> 14         0.11642
      11 -> 15         0.13214
      12 -> 18        -0.16898
      12 -> 19         0.26884
      12 -> 22        -0.13404
      13 -> 18        -0.16742
      13 -> 19        -0.20935
      13 -> 20         0.30191
      13 -> 21        -0.23084
      13 -> 22        -0.23532
      13 -> 24        -0.19027

 Excited State  15:      Singlet-A      7.7938 eV  159.08 nm  f=0.0006  <S**2>=0.000
       9 -> 14         0.18359
       9 -> 15         0.11453
      10 -> 14        -0.12445
      10 -> 15        -0.11508
      11 -> 14         0.30707
      11 -> 15         0.36741
      12 -> 20         0.14043
      13 -> 18        -0.10971
      13 -> 19         0.17404
      13 -> 21         0.11368
      13 -> 22         0.23109

 The electronic state is 1-A.
 Alpha  occ. eigenvalues --   -1.57565  -1.24160  -1.11021  -0.83183  -0.81508
 Alpha  occ. eigenvalues --   -0.69050  -0.60554  -0.56548  -0.52210  -0.50674
 Alpha  occ. eigenvalues --   -0.49162  -0.39549  -0.35280
 Alpha virt. eigenvalues --    0.03275   0.06260   0.10237   0.13735   0.14867
 Alpha virt. eigenvalues --    0.15545   0.17914   0.18686   0.19176   0.20719
 Alpha virt. eigenvalues --    0.22348

 Mulliken charges:
               1
     1  C   -0.218620
     2  C   -0.093710
     3  O   -0.088483
     4  C   -0.091197
     5  C   -0.186053
     6  H    0.164126
     7  H    0.180931
     8  H    0.180715
     9  H    0.152291
 Sum of Mulliken charges =   0.00000

 Dipole moment (field-independent basis, Debye):
    X=              0.2068    Y=              0.3065    Z=             -0.0206  Tot=              0.3704
 N-N= 1.038303963586D+02 E-N=-1.715945922216D+02  KE=-1.661109647990D+01
 Orbital energies and kinetic energies (alpha):
                                 1                 2
   1         O                -1.575648         -1.323291
   2         O                -1.241596         -1.052605
   3         O                -1.110211         -0.968249
   4         O                -0.831828         -0.709227
   5         O                -0.815083         -0.726797
   6         O                -0.690498         -0.606328
   7         O                -0.605543         -0.489613

 Normal termination of Gaussian 09 at Tue Dec 15 16:22:15 2015.
