 Gaussian 09, Revision D.01,
 Gaussian 09:  ES64L-G09RevD.01 24-Apr-2013

 ------------------------------------------------------------
 #P AM1(Input,print) CIS(Singlets,NStates=15) pop(full) force
 ------------------------------------------------------------

 -----------------
 AM1-Reparam Input
 -----------------
 Symbolic Z-matrix:
 Charge =  0 Multiplicity = 1

                         Standard orientation:
 ---------------------------------------------------------------------
 Center     Atomic      Atomic             Coordinates (Angstroms)
 Number     Number       Type             X           Y           Z
 ---------------------------------------------------------------------
      1          6           0        0.699464    0.957538   -0.011056
      2          6           0        1.134713   -0.301575   -0.003416
      3          8           0        0.025016   -1.146156   -0.012566
      4          6           0       -1.088091   -0.362235    0.026599
      5          6           0       -0.773046    0.941971    0.004832
      6          1           0       -1.398015    1.705741   -0.031000
      7          1           0       -2.025956   -0.964620   -0.042853
      8          1           0        2.075277   -0.823505    0.056105
      9          1           0        1.310319    1.837434    0.016522
 ---------------------------------------------------------------------

 SCF Done:  E(RAM1) =   1.82527484576     A.U. after   13 cycles

 Excitation energies and oscillator strengths:

 Excited State   1:      Singlet-A      5.2274 eV  237.18 nm  f=0.3665  <S**2>=0.000
      13 -> 14         0.69404
 This state for optimization and/or second-order correction.
 Total Energy, E(CIS) =   2.01737867237
 Copying the excited state density for this state as the 1-particle RhoCI density.

 Excited State   2:      Singlet-A      6.3201 eV  196.18 nm  f=0.0024  <S**2>=0.000
      13 -> 15         0.67335
      13 -> 17        -0.16003

 Excited State   3:      Singlet-A      6.7010 eV  185.02 nm  f=0.0044  <S**2>=0.000
      13 -> 16         0.66953
      13 -> 18        -0.17720

 Excited State   4:      Singlet-A      7.3155 eV  169.48 nm  f=0.0004  <S**2>=0.000
      12 -> 14         0.70085

 Excited State   5:      Singlet-A      7.8407 eV  158.13 nm  f=0.0005  <S**2>=0.000
      13 -> 15        -0.11428
      13 -> 17        -0.45792
      13 -> 18         0.46811
      13 -> 21         0.14856

 Excited State   6:      Singlet-A      8.4091 eV  147.44 nm  f=0.0092  <S**2>=0.000
      10 -> 14         0.68263
      13 -> 18        -0.10760

 Excited State   7:      Singlet-A      8.7379 eV  141.89 nm  f=0.0151  <S**2>=0.000
      10 -> 14         0.14333
      13 -> 16         0.10519
      13 -> 17         0.48492
      13 -> 18         0.43582
      13 -> 19         0.10221

 Excited State   8:      Singlet-A      9.1037 eV  136.19 nm  f=0.0880  <S**2>=0.000
      11 -> 14         0.66796

 Excited State   9:      Singlet-A      9.2876 eV  133.49 nm  f=0.0001  <S**2>=0.000
      13 -> 19         0.67663

 Excited State  10:      Singlet-A      9.6886 eV  127.97 nm  f=0.0353  <S**2>=0.000
       9 -> 15         0.11025
      10 -> 16        -0.14418
      10 -> 17         0.10922
      10 -> 18         0.16131
      12 -> 15         0.44348
      12 -> 16        -0.20905
      12 -> 17        -0.27068
      12 -> 18         0.24188

 Excited State  11:      Singlet-A     10.2708 eV  120.71 nm  f=0.2296  <S**2>=0.000
      10 -> 15        -0.14904
      10 -> 16        -0.24867
      10 -> 18         0.12513
      12 -> 15        -0.12693
      12 -> 16         0.50917
      12 -> 17        -0.22018
      12 -> 19         0.15485

 Excited State  12:      Singlet-A     10.2874 eV  120.52 nm  f=0.0411  <S**2>=0.000
      10 -> 15        -0.22762
      11 -> 15         0.14796
      12 -> 15        -0.26725
      12 -> 16        -0.23298
      12 -> 18         0.14108
      13 -> 18         0.11566
      13 -> 20         0.38577
      13 -> 21        -0.27838

 Excited State  13:      Singlet-A     10.3003 eV  120.37 nm  f=0.0550  <S**2>=0.000
      10 -> 15         0.25904
      12 -> 15         0.29028
      12 -> 16         0.25168
      12 -> 18        -0.15377
      13 -> 18         0.10987
      13 -> 20         0.35427
      13 -> 21        -0.27112

 Excited State  14:      Singlet-A     10.5250 eV  117.80 nm  f=0.0687  <S**2>=0.000
      11 -> 16        -0.11967
      13 -> 20         0.43082
      13 -> 21         0.50544
      13 -> 22        -0.16528

 Excited State  15:      Singlet-A     10.5269 eV  117.78 nm  f=0.0006  <S**2>=0.000
       7 -> 15        -0.13046
      11 -> 15         0.62887
      11 -> 16         0.14915
      13 -> 15        -0.11759
      13 -> 21         0.13022

 The electronic state is 1-A.
 Alpha  occ. eigenvalues --   -1.99364  -1.26767  -1.01038  -0.90435  -0.84769
 Alpha  occ. eigenvalues --   -0.76899  -0.74210  -0.63918  -0.61985  -0.52975
 Alpha  occ. eigenvalues --   -0.52703  -0.49267  -0.35704
 Alpha virt. eigenvalues --    0.04018   0.10179   0.12045   0.19628   0.20849
 Alpha virt. eigenvalues --    0.22921   0.26302   0.27628   0.27824   0.35992
 Alpha virt. eigenvalues --    0.41077

 Mulliken charges:
               1
     1  C   -0.131754
     2  C   -1.857889
     3  O    3.171467
     4  C   -1.876343
     5  C   -0.145426
     6  H    0.138400
     7  H    0.280606
     8  H    0.268999
     9  H    0.151940
 Sum of Mulliken charges =   0.00000

 Dipole moment (field-independent basis, Debye):
    X=              0.0759    Y=            -11.1995    Z=             -0.3434  Tot=             11.2050
 N-N= 1.055030420831D+02 E-N=-1.702994923535D+02  KE=-1.565536842894D+01
 Orbital energies and kinetic energies (alpha):
                                 1                 2
   1         O                -1.993642         -1.363931
   2         O                -1.267674         -1.046615
   3         O                -1.010379         -0.887323
   4         O                -0.904351         -0.597208
   5         O                -0.847687         -0.693044
   6         O                -0.768986         -0.611688
   7         O                -0.742104         -0.540906

 Normal termination of Gaussian 09 at Tue Dec 15 17:09:06 2015.
