 Gaussian 09, Revision D.01,
 Gaussian 09:  ES64L-G09RevD.01 24-Apr-2013

 ------------------------------------------------------------
 #P AM1(Input,print) CIS(Singlets,NStates=15) pop(full) force
 ------------------------------------------------------------

 -----------------
 AM1-Reparam Input
 -----------------
 Symbolic Z-matrix:
 Charge =  0 Multiplicity = 1

                         Standard orientation:
 ---------------------------------------------------------------------
 Center     Atomic      Atomic             Coordinates (Angstroms)
 Number     Number       Type             X           Y           Z
 ---------------------------------------------------------------------
      1          6           0        0.910887    0.802540   -0.001698
      2          6           0        0.997376   -0.549908    0.016192
      3          8           0       -0.229411   -1.131440    0.005287
      4          6           0       -1.140191   -0.141281   -0.031029
      5          6           0       -0.524155    1.083897    0.002240
      6          1           0       -0.998771    2.070282    0.039637
      7          1           0       -2.167242   -0.445418    0.063473
      8          1           0        1.798177   -1.214087   -0.038172
      9          1           0        1.739618    1.469259   -0.021473
 ---------------------------------------------------------------------

 SCF Done:  E(RAM1) =   1.79023056691     A.U. after   14 cycles

 Excitation energies and oscillator strengths:

 Excited State   1:      Singlet-A      5.3845 eV  230.26 nm  f=0.3580  <S**2>=0.000
      13 -> 14         0.69311
 This state for optimization and/or second-order correction.
 Total Energy, E(CIS) =   1.98810795767
 Copying the excited state density for this state as the 1-particle RhoCI density.

 Excited State   2:      Singlet-A      6.7258 eV  184.34 nm  f=0.0098  <S**2>=0.000
      13 -> 15         0.59543
      13 -> 16         0.32375
      13 -> 17        -0.16026

 Excited State   3:      Singlet-A      6.8035 eV  182.24 nm  f=0.0001  <S**2>=0.000
      13 -> 15        -0.31467
      13 -> 16         0.58603
      13 -> 18        -0.15683
      13 -> 19         0.13822

 Excited State   4:      Singlet-A      7.4945 eV  165.43 nm  f=0.0002  <S**2>=0.000
      12 -> 14         0.69998

 Excited State   5:      Singlet-A      8.1634 eV  151.88 nm  f=0.0000  <S**2>=0.000
      13 -> 16         0.11951
      13 -> 17         0.12501
      13 -> 18         0.62520
      13 -> 21        -0.23138

 Excited State   6:      Singlet-A      8.3331 eV  148.79 nm  f=0.0083  <S**2>=0.000
      10 -> 14         0.69400

 Excited State   7:      Singlet-A      8.9970 eV  137.81 nm  f=0.0108  <S**2>=0.000
      11 -> 16         0.12389
      13 -> 15         0.12170
      13 -> 17         0.65421
      13 -> 18        -0.11957

 Excited State   8:      Singlet-A      9.0642 eV  136.78 nm  f=0.1135  <S**2>=0.000
      11 -> 14         0.68272

 Excited State   9:      Singlet-A      9.4990 eV  130.52 nm  f=0.0002  <S**2>=0.000
      11 -> 15        -0.10232
      13 -> 16        -0.10559
      13 -> 19         0.67600

 Excited State  10:      Singlet-A      9.8696 eV  125.62 nm  f=0.0013  <S**2>=0.000
       8 -> 15         0.11218
       9 -> 16        -0.11537
      10 -> 15        -0.22361
      10 -> 16        -0.13955
      10 -> 17         0.23252
      12 -> 15         0.17114
      12 -> 16        -0.33791
      12 -> 18         0.36544

 Excited State  11:      Singlet-A     10.2571 eV  120.88 nm  f=0.0129  <S**2>=0.000
      13 -> 18         0.23799
      13 -> 20        -0.35924
      13 -> 21         0.54715

 Excited State  12:      Singlet-A     10.3633 eV  119.64 nm  f=0.1234  <S**2>=0.000
      10 -> 15         0.27330
      11 -> 15        -0.10259
      12 -> 15         0.58634
      12 -> 17        -0.13168

 Excited State  13:      Singlet-A     10.4651 eV  118.47 nm  f=0.1897  <S**2>=0.000
      10 -> 15        -0.15555
      10 -> 16        -0.36495
      10 -> 17         0.11433
      12 -> 16         0.50406
      12 -> 18         0.10042
      12 -> 19         0.10792

 Excited State  14:      Singlet-A     10.4965 eV  118.12 nm  f=0.0731  <S**2>=0.000
      11 -> 15        -0.31839
      13 -> 20         0.50412
      13 -> 21         0.31050

 Excited State  15:      Singlet-A     10.5527 eV  117.49 nm  f=0.0152  <S**2>=0.000
      11 -> 15         0.50677
      11 -> 16         0.30577
      13 -> 20         0.22898
      13 -> 21         0.19431

 The electronic state is 1-A.
 Alpha  occ. eigenvalues --   -2.00061  -1.26113  -1.00933  -0.90289  -0.84722
 Alpha  occ. eigenvalues --   -0.76876  -0.74517  -0.63664  -0.61832  -0.52801
 Alpha  occ. eigenvalues --   -0.52473  -0.50138  -0.36715
 Alpha virt. eigenvalues --    0.03830   0.11275   0.11704   0.19747   0.20341
 Alpha virt. eigenvalues --    0.22616   0.25305   0.26447   0.29568   0.37582
 Alpha virt. eigenvalues --    0.42845

 Mulliken charges:
               1
     1  C   -0.107446
     2  C   -1.885405
     3  O    3.166585
     4  C   -1.893810
     5  C   -0.136017
     6  H    0.153850
     7  H    0.282351
     8  H    0.272766
     9  H    0.147126
 Sum of Mulliken charges =   0.00000

 Dipole moment (field-independent basis, Debye):
    X=             -2.0880    Y=            -10.3127    Z=              0.2534  Tot=             10.5250
 N-N= 1.055515405126D+02 E-N=-1.704432717419D+02  KE=-1.565668702005D+01
 Orbital energies and kinetic energies (alpha):
                                 1                 2
   1         O                -2.000609         -1.382743
   2         O                -1.261127         -1.040336
   3         O                -1.009329         -0.875464
   4         O                -0.902890         -0.602905
   5         O                -0.847218         -0.702931
   6         O                -0.768763         -0.598898
   7         O                -0.745165         -0.540235

 Normal termination of Gaussian 09 at Tue Dec 15 17:09:04 2015.
