 Gaussian 09, Revision D.01,
 Gaussian 09:  ES64L-G09RevD.01 24-Apr-2013

 ------------------------------------------------------------
 #P AM1(Input,print) CIS(Singlets,NStates=15) pop(full) force
 ------------------------------------------------------------

 -----------------
 AM1-Reparam Input
 -----------------
 Symbolic Z-matrix:
 Charge =  0 Multiplicity = 1

                         Standard orientation:
 ---------------------------------------------------------------------
 Center     Atomic      Atomic             Coordinates (Angstroms)
 Number     Number       Type             X           Y           Z
 ---------------------------------------------------------------------
      1          6           0       -0.975310    0.715668   -0.009273
      2          6           0       -0.928919   -0.602198   -0.018064
      3          8           0        0.318882   -1.148367    0.018147
      4          6           0        1.166129   -0.012823   -0.013168
      5          6           0        0.405930    1.103118    0.015270
      6          1           0        0.802026    2.164230   -0.016746
      7          1           0        2.195371   -0.198491   -0.022500
      8          1           0       -1.727105   -1.367089   -0.003242
      9          1           0       -1.828327    1.365698    0.048715
 ---------------------------------------------------------------------

 SCF Done:  E(RAM1) =  -5.90498083766     A.U. after   14 cycles

 Excitation energies and oscillator strengths:

 Excited State   1:      Singlet-A      7.0373 eV  176.18 nm  f=0.2991  <S**2>=0.000
      13 -> 14         0.67646
      13 -> 15         0.10712
 This state for optimization and/or second-order correction.
 Total Energy, E(CIS) =  -5.64636462043
 Copying the excited state density for this state as the 1-particle RhoCI density.

 Excited State   2:      Singlet-A      7.1877 eV  172.50 nm  f=0.0115  <S**2>=0.000
      13 -> 14        -0.11319
      13 -> 15         0.66648
      13 -> 17        -0.15376

 Excited State   3:      Singlet-A      7.4466 eV  166.50 nm  f=0.0003  <S**2>=0.000
      12 -> 14         0.70246

 Excited State   4:      Singlet-A      8.0029 eV  154.92 nm  f=0.0058  <S**2>=0.000
      13 -> 16         0.62208
      13 -> 17        -0.25693
      13 -> 19         0.10391
      13 -> 21        -0.13144

 Excited State   5:      Singlet-A      8.6517 eV  143.31 nm  f=0.0225  <S**2>=0.000
      11 -> 14        -0.31379
      13 -> 15         0.13299
      13 -> 16         0.22899
      13 -> 17         0.55396

 Excited State   6:      Singlet-A      8.7371 eV  141.91 nm  f=0.0011  <S**2>=0.000
      11 -> 14         0.62306
      13 -> 16         0.11102
      13 -> 17         0.27910

 Excited State   7:      Singlet-A      9.0296 eV  137.31 nm  f=0.1068  <S**2>=0.000
      10 -> 14        -0.24446
      12 -> 15        -0.11952
      13 -> 18         0.63669

 Excited State   8:      Singlet-A      9.4929 eV  130.61 nm  f=0.1145  <S**2>=0.000
       9 -> 15        -0.19959
      11 -> 17        -0.11070
      12 -> 15         0.57678
      12 -> 16        -0.15011
      12 -> 21         0.13180
      13 -> 18         0.14068

 Excited State   9:      Singlet-A      9.5027 eV  130.47 nm  f=0.0027  <S**2>=0.000
      13 -> 17         0.10261
      13 -> 19         0.68771

 Excited State  10:      Singlet-A      9.7183 eV  127.58 nm  f=0.0111  <S**2>=0.000
      13 -> 20         0.59011
      13 -> 21         0.32022
      13 -> 23         0.11210

 Excited State  11:      Singlet-A      9.9393 eV  124.74 nm  f=0.0087  <S**2>=0.000
      10 -> 16        -0.12490
      13 -> 16         0.12037
      13 -> 20        -0.33218
      13 -> 21         0.53122
      13 -> 22        -0.24562

 Excited State  12:      Singlet-A     10.0412 eV  123.48 nm  f=0.0596  <S**2>=0.000
       9 -> 16         0.13657
      10 -> 14         0.10136
      11 -> 17         0.19568
      12 -> 15         0.19489
      12 -> 16         0.41594
      12 -> 17         0.20000
      12 -> 19         0.27284
      12 -> 21        -0.17425
      12 -> 22         0.12175

 Excited State  13:      Singlet-A     10.3141 eV  120.21 nm  f=0.1791  <S**2>=0.000
       9 -> 15        -0.10477
      10 -> 14         0.15342
      11 -> 15         0.10398
      11 -> 16        -0.13568
      12 -> 16        -0.34746
      12 -> 17         0.50627

 Excited State  14:      Singlet-A     10.5992 eV  116.98 nm  f=0.1561  <S**2>=0.000
       9 -> 15         0.11605
      10 -> 14        -0.22167
      11 -> 15        -0.25190
      11 -> 17         0.28584
      11 -> 20         0.12081
      12 -> 16        -0.25940
      12 -> 17        -0.12424
      12 -> 19         0.36620

 Excited State  15:      Singlet-A     10.6411 eV  116.51 nm  f=0.0492  <S**2>=0.000
      10 -> 14        -0.16965
      11 -> 15         0.49673
      11 -> 17        -0.11933
      11 -> 20         0.14170
      12 -> 19         0.32004

 The electronic state is 1-A.
 Alpha  occ. eigenvalues --   -3.76774  -1.40507  -1.07205  -1.04621  -0.96231
 Alpha  occ. eigenvalues --   -0.92196  -0.80720  -0.61241  -0.56219  -0.52838
 Alpha  occ. eigenvalues --   -0.49073  -0.44746  -0.36921
 Alpha virt. eigenvalues --    0.10689   0.12352   0.15868   0.19647   0.20375
 Alpha virt. eigenvalues --    0.21248   0.22899   0.26951   0.30327   0.31561
 Alpha virt. eigenvalues --    0.37014

 Mulliken charges:
               1
     1  C   -0.270500
     2  C   -1.700668
     3  O    2.785835
     4  C   -1.737079
     5  C   -0.206412
     6  H    0.213127
     7  H    0.349162
     8  H    0.334233
     9  H    0.232302
 Sum of Mulliken charges =   0.00000

 Dipole moment (field-independent basis, Debye):
    X=              2.4635    Y=            -10.5184    Z=              0.4521  Tot=             10.8125
 N-N= 1.047142990880D+02 E-N=-1.703373210498D+02  KE=-2.491538184930D+01
 Orbital energies and kinetic energies (alpha):
                                 1                 2
   1         O                -3.767745         -3.064471
   2         O                -1.405066         -1.399142
   3         O                -1.072049         -1.128160
   4         O                -1.046215         -1.046616
   5         O                -0.962307         -0.970088
   6         O                -0.921962         -0.843258
   7         O                -0.807196         -0.822187

 Normal termination of Gaussian 09 at Fri Dec 11 13:41:23 2015.
