 Gaussian 09, Revision D.01,
 Gaussian 09:  ES64L-G09RevD.01 24-Apr-2013

 ------------------------------------------------------------
 #P AM1(Input,print) CIS(Singlets,NStates=15) pop(full) force
 ------------------------------------------------------------

 -----------------
 AM1-Reparam Input
 -----------------
 Symbolic Z-matrix:
 Charge =  0 Multiplicity = 1

                         Standard orientation:
 ---------------------------------------------------------------------
 Center     Atomic      Atomic             Coordinates (Angstroms)
 Number     Number       Type             X           Y           Z
 ---------------------------------------------------------------------
      1          6           0       -1.019134    0.700298   -0.028078
      2          6           0       -0.896149   -0.702093    0.005899
      3          8           0        0.366618   -1.083516   -0.012352
      4          6           0        1.164285   -0.002440    0.015332
      5          6           0        0.363164    1.140054    0.027278
      6          1           0        0.743042    2.129363   -0.022659
      7          1           0        2.214252   -0.156025   -0.065589
      8          1           0       -1.697125   -1.438065    0.071687
      9          1           0       -1.866105    1.317940   -0.007204
 ---------------------------------------------------------------------

 SCF Done:  E(RAM1) =   1.99548095553     A.U. after   13 cycles

 Excitation energies and oscillator strengths:

 Excited State   1:      Singlet-A      5.4326 eV  228.22 nm  f=0.3622  <S**2>=0.000
      13 -> 14         0.69554
 This state for optimization and/or second-order correction.
 Total Energy, E(CIS) =   2.19512466494
 Copying the excited state density for this state as the 1-particle RhoCI density.

 Excited State   2:      Singlet-A      6.7840 eV  182.76 nm  f=0.0012  <S**2>=0.000
      12 -> 14         0.68803

 Excited State   3:      Singlet-A      6.8690 eV  180.50 nm  f=0.0156  <S**2>=0.000
      13 -> 15         0.65168
      13 -> 17         0.22003

 Excited State   4:      Singlet-A      7.1477 eV  173.46 nm  f=0.0029  <S**2>=0.000
      13 -> 16         0.61222
      13 -> 18        -0.30667

 Excited State   5:      Singlet-A      7.7826 eV  159.31 nm  f=0.0063  <S**2>=0.000
      10 -> 14         0.68460
      11 -> 14         0.14258

 Excited State   6:      Singlet-A      8.0590 eV  153.85 nm  f=0.0001  <S**2>=0.000
      11 -> 15        -0.11078
      13 -> 16         0.21823
      13 -> 17         0.17393
      13 -> 18         0.24241
      13 -> 19         0.56731

 Excited State   7:      Singlet-A      8.5494 eV  145.02 nm  f=0.1320  <S**2>=0.000
      10 -> 14        -0.13901
      11 -> 14         0.68127

 Excited State   8:      Singlet-A      9.0212 eV  137.44 nm  f=0.0198  <S**2>=0.000
      11 -> 16         0.17267
      13 -> 15        -0.16372
      13 -> 17         0.61050
      13 -> 19        -0.18232

 Excited State   9:      Singlet-A      9.2375 eV  134.22 nm  f=0.0004  <S**2>=0.000
      11 -> 15        -0.16400
      11 -> 16        -0.11288
      13 -> 16         0.18617
      13 -> 18         0.52601
      13 -> 19        -0.35115

 Excited State  10:      Singlet-A      9.6026 eV  129.12 nm  f=0.0051  <S**2>=0.000
       9 -> 16         0.11040
      10 -> 15        -0.25758
      10 -> 16        -0.18912
      10 -> 17        -0.15930
      10 -> 18         0.11953
      12 -> 15         0.30180
      12 -> 16        -0.18580
      12 -> 17         0.18932
      12 -> 18         0.20774
      12 -> 19         0.26622

 Excited State  11:      Singlet-A      9.8524 eV  125.84 nm  f=0.0008  <S**2>=0.000
      13 -> 18        -0.14610
      13 -> 20         0.65873
      13 -> 21        -0.17423

 Excited State  12:      Singlet-A     10.0572 eV  123.28 nm  f=0.0142  <S**2>=0.000
      11 -> 15         0.28113
      12 -> 15         0.42602
      12 -> 16         0.32212
      12 -> 17         0.11053
      12 -> 18        -0.16815
      12 -> 19        -0.13402

 Excited State  13:      Singlet-A     10.1055 eV  122.69 nm  f=0.0634  <S**2>=0.000
      11 -> 15        -0.15193
      13 -> 20         0.15224
      13 -> 21         0.64862

 Excited State  14:      Singlet-A     10.1546 eV  122.10 nm  f=0.0851  <S**2>=0.000
      10 -> 16         0.14195
      11 -> 15         0.44647
      11 -> 16         0.16845
      11 -> 17         0.10770
      12 -> 16        -0.35428
      12 -> 18         0.16108
      13 -> 21         0.12351

 Excited State  15:      Singlet-A     10.3166 eV  120.18 nm  f=0.1613  <S**2>=0.000
      10 -> 15         0.43057
      10 -> 17         0.17273
      11 -> 15        -0.20353
      12 -> 15         0.29580
      12 -> 16        -0.27226
      12 -> 18         0.12017
      12 -> 19        -0.11761

 The electronic state is 1-A.
 Alpha  occ. eigenvalues --   -1.94596  -1.18471  -0.95413  -0.82769  -0.78470
 Alpha  occ. eigenvalues --   -0.69027  -0.65249  -0.56146  -0.53803  -0.45753
 Alpha  occ. eigenvalues --   -0.44495  -0.42633  -0.30987
 Alpha virt. eigenvalues --    0.09444   0.18241   0.19680   0.24915   0.26064
 Alpha virt. eigenvalues --    0.27687   0.29673   0.30009   0.37831   0.46098
 Alpha virt. eigenvalues --    0.51480

 Mulliken charges:
               1
     1  C   -0.194804
     2  C   -2.054224
     3  O    3.189108
     4  C   -2.027473
     5  C   -0.183623
     6  H    0.255385
     7  H    0.371284
     8  H    0.389444
     9  H    0.254902
 Sum of Mulliken charges =   0.00000

 Dipole moment (field-independent basis, Debye):
    X=              2.7676    Y=             -8.9014    Z=             -0.3661  Tot=              9.3290
 N-N= 1.042394356633D+02 E-N=-1.694448992906D+02  KE=-1.548678616913D+01
 Orbital energies and kinetic energies (alpha):
                                 1                 2
   1         O                -1.945960         -1.406202
   2         O                -1.184710         -1.053486
   3         O                -0.954133         -0.851823
   4         O                -0.827687         -0.613428
   5         O                -0.784697         -0.679543
   6         O                -0.690268         -0.576397
   7         O                -0.652491         -0.514372

 Normal termination of Gaussian 09 at Tue Dec 15 17:07:11 2015.
