 Gaussian 09, Revision D.01,
 Gaussian 09:  ES64L-G09RevD.01 24-Apr-2013

 ------------------------------------------------------------
 #P AM1(Input,print) CIS(Singlets,NStates=15) pop(full) force
 ------------------------------------------------------------

 -----------------
 AM1-Reparam Input
 -----------------
 Symbolic Z-matrix:
 Charge =  0 Multiplicity = 1

                         Standard orientation:
 ---------------------------------------------------------------------
 Center     Atomic      Atomic             Coordinates (Angstroms)
 Number     Number       Type             X           Y           Z
 ---------------------------------------------------------------------
      1          6           0        0.233851    1.154702    0.003250
      2          6           0        1.135344    0.102583   -0.003083
      3          8           0        0.513178   -1.038706   -0.012188
      4          6           0       -0.894355   -0.752286    0.020260
      5          6           0       -1.039467    0.578183   -0.021205
      6          1           0       -1.994764    1.099424   -0.005095
      7          1           0       -1.506241   -1.562490    0.034581
      8          1           0        2.247521    0.079366    0.026829
      9          1           0        0.535823    2.194256    0.045854
 ---------------------------------------------------------------------

 SCF Done:  E(RAM1) =   1.39350061867     A.U. after   13 cycles

 Excitation energies and oscillator strengths:

 Excited State   1:      Singlet-A      6.0278 eV  205.69 nm  f=0.0806  <S**2>=0.000
      13 -> 14         0.38159
      13 -> 15         0.55006
      13 -> 17        -0.15105
 This state for optimization and/or second-order correction.
 Total Energy, E(CIS) =   1.61501875649
 Copying the excited state density for this state as the 1-particle RhoCI density.

 Excited State   2:      Singlet-A      6.0769 eV  204.03 nm  f=0.2188  <S**2>=0.000
      13 -> 14         0.57786
      13 -> 15        -0.36782

 Excited State   3:      Singlet-A      7.0105 eV  176.86 nm  f=0.0006  <S**2>=0.000
      12 -> 16         0.13142
      13 -> 16         0.63675
      13 -> 17        -0.15214
      13 -> 21         0.12433

 Excited State   4:      Singlet-A      7.6230 eV  162.65 nm  f=0.0104  <S**2>=0.000
      13 -> 15         0.14808
      13 -> 16         0.14268
      13 -> 17         0.64120

 Excited State   5:      Singlet-A      7.6572 eV  161.92 nm  f=0.0016  <S**2>=0.000
       9 -> 14         0.10496
      11 -> 14         0.64935
      12 -> 14         0.19941
      13 -> 22         0.11221

 Excited State   6:      Singlet-A      8.1555 eV  152.03 nm  f=0.0000  <S**2>=0.000
      12 -> 15        -0.12946
      13 -> 19        -0.45210
      13 -> 22         0.49112

 Excited State   7:      Singlet-A      8.3025 eV  149.33 nm  f=0.0023  <S**2>=0.000
      10 -> 14         0.68333
      13 -> 20         0.11016

 Excited State   8:      Singlet-A      8.5089 eV  145.71 nm  f=0.0048  <S**2>=0.000
      11 -> 14        -0.16058
      12 -> 14         0.50026
      13 -> 18         0.44938

 Excited State   9:      Singlet-A      8.6944 eV  142.60 nm  f=0.0041  <S**2>=0.000
      12 -> 15         0.47447
      13 -> 17         0.11503
      13 -> 19        -0.24209
      13 -> 20        -0.34957
      13 -> 21        -0.15283
      13 -> 22        -0.11251

 Excited State  10:      Singlet-A      8.8038 eV  140.83 nm  f=0.0080  <S**2>=0.000
      10 -> 14        -0.10737
      12 -> 15         0.10159
      13 -> 19        -0.38409
      13 -> 20         0.45539
      13 -> 21         0.13331
      13 -> 22        -0.27774

 Excited State  11:      Singlet-A      8.8843 eV  139.55 nm  f=0.0049  <S**2>=0.000
      12 -> 15         0.39509
      13 -> 15         0.13179
      13 -> 19         0.24679
      13 -> 20         0.20667
      13 -> 21         0.26485
      13 -> 22         0.32518

 Excited State  12:      Singlet-A      9.2749 eV  133.68 nm  f=0.1740  <S**2>=0.000
      10 -> 15        -0.12943
      10 -> 17         0.12057
      11 -> 14         0.10668
      12 -> 14        -0.39175
      13 -> 18         0.49162
      13 -> 21        -0.14025

 Excited State  13:      Singlet-A      9.4113 eV  131.74 nm  f=0.0718  <S**2>=0.000
      12 -> 14        -0.10811
      12 -> 16        -0.14302
      13 -> 18         0.11356
      13 -> 20        -0.28397
      13 -> 21         0.56160
      13 -> 22        -0.14981

 Excited State  14:      Singlet-A      9.6757 eV  128.14 nm  f=0.0345  <S**2>=0.000
       8 -> 15         0.16073
      10 -> 15        -0.25391
      11 -> 15         0.58285
      11 -> 17        -0.10897

 Excited State  15:      Singlet-A      9.7978 eV  126.54 nm  f=0.0422  <S**2>=0.000
       8 -> 15         0.10697
       9 -> 15         0.25017
      10 -> 15         0.35272
      10 -> 16         0.14174
      10 -> 17        -0.33536
      11 -> 16        -0.16037
      11 -> 19         0.19730
      12 -> 14        -0.14918
      13 -> 18         0.12219

 The electronic state is 1-A.
 Alpha  occ. eigenvalues --   -1.89530  -1.19474  -0.95831  -0.78927  -0.77551
 Alpha  occ. eigenvalues --   -0.67620  -0.62167  -0.50657  -0.47590  -0.39848
 Alpha  occ. eigenvalues --   -0.38161  -0.37190  -0.24995
 Alpha virt. eigenvalues --    0.18006   0.19575   0.25095   0.28061   0.30167
 Alpha virt. eigenvalues --    0.30843   0.32620   0.34791   0.35829   0.40452
 Alpha virt. eigenvalues --    0.45722

 Mulliken charges:
               1
     1  C   -0.131621
     2  C   -1.579935
     3  O    2.787541
     4  C   -1.538536
     5  C    0.015397
     6  H    0.058115
     7  H    0.143554
     8  H    0.177417
     9  H    0.068068
 Sum of Mulliken charges =   0.00000

 Dipole moment (field-independent basis, Debye):
    X=              4.5942    Y=             -8.4391    Z=             -0.1734  Tot=              9.6102
 N-N= 1.036881387970D+02 E-N=-1.701130624277D+02  KE=-1.588536743108D+01
 Orbital energies and kinetic energies (alpha):
                                 1                 2
   1         O                -1.895301         -1.384048
   2         O                -1.194743         -1.080097
   3         O                -0.958307         -0.880304
   4         O                -0.789274         -0.632464
   5         O                -0.775512         -0.701964
   6         O                -0.676204         -0.622483
   7         O                -0.621666         -0.543108

 Normal termination of Gaussian 09 at Tue Dec 15 17:07:55 2015.
