 Gaussian 09, Revision D.01,
 Gaussian 09:  ES64L-G09RevD.01 24-Apr-2013

 ------------------------------------------------------------
 #P AM1(Input,print) CIS(Singlets,NStates=15) pop(full) force
 ------------------------------------------------------------

 -----------------
 AM1-Reparam Input
 -----------------
 Symbolic Z-matrix:
 Charge =  0 Multiplicity = 1

                         Standard orientation:
 ---------------------------------------------------------------------
 Center     Atomic      Atomic             Coordinates (Angstroms)
 Number     Number       Type             X           Y           Z
 ---------------------------------------------------------------------
      1          6           0       -1.020417    0.619512   -0.026118
      2          6           0       -0.891285   -0.654347    0.012216
      3          8           0        0.411707   -1.029125   -0.003098
      4          6           0        1.176884    0.035336   -0.000925
      5          6           0        0.295869    1.087925    0.013852
      6          1           0        0.646310    2.146935   -0.021383
      7          1           0        2.242712   -0.100238    0.002443
      8          1           0       -1.675040   -1.535533   -0.006018
      9          1           0       -1.873945    1.191277    0.055588
 ---------------------------------------------------------------------

 SCF Done:  E(RAM1) =   1.88377729368     A.U. after   14 cycles

 Excitation energies and oscillator strengths:

 Excited State   1:      Singlet-A      5.6246 eV  220.43 nm  f=0.3009  <S**2>=0.000
      11 -> 17         0.10526
      13 -> 14         0.68663
 This state for optimization and/or second-order correction.
 Total Energy, E(CIS) =   2.09047761140
 Copying the excited state density for this state as the 1-particle RhoCI density.

 Excited State   2:      Singlet-A      6.1141 eV  202.78 nm  f=0.0021  <S**2>=0.000
      10 -> 15         0.12607
      13 -> 15         0.67861

 Excited State   3:      Singlet-A      6.5954 eV  187.98 nm  f=0.0024  <S**2>=0.000
      12 -> 14         0.57138
      13 -> 16         0.37286
      13 -> 17         0.11725

 Excited State   4:      Singlet-A      6.6442 eV  186.60 nm  f=0.0018  <S**2>=0.000
      12 -> 14        -0.40313
      13 -> 16         0.53361
      13 -> 17         0.15507

 Excited State   5:      Singlet-A      7.7163 eV  160.68 nm  f=0.0087  <S**2>=0.000
      11 -> 14         0.66168
      13 -> 17        -0.20332

 Excited State   6:      Singlet-A      7.8906 eV  157.13 nm  f=0.0041  <S**2>=0.000
      11 -> 14         0.22736
      13 -> 17         0.50708
      13 -> 18         0.35830
      13 -> 20        -0.10355
      13 -> 21         0.17207

 Excited State   7:      Singlet-A      8.2919 eV  149.52 nm  f=0.0046  <S**2>=0.000
      10 -> 16        -0.12717
      13 -> 16         0.17557
      13 -> 17        -0.37780
      13 -> 18         0.50201
      13 -> 20        -0.10978
      13 -> 21         0.19298

 Excited State   8:      Singlet-A      8.5652 eV  144.75 nm  f=0.0718  <S**2>=0.000
       8 -> 15         0.14819
      10 -> 14         0.20824
      11 -> 17        -0.12161
      11 -> 18         0.11652
      12 -> 15         0.56341
      12 -> 18         0.13513

 Excited State   9:      Singlet-A      8.9369 eV  138.73 nm  f=0.0022  <S**2>=0.000
      13 -> 19         0.67836

 Excited State  10:      Singlet-A      9.0551 eV  136.92 nm  f=0.0490  <S**2>=0.000
      10 -> 14         0.28540
      11 -> 16        -0.13224
      12 -> 16         0.57787
      12 -> 17         0.10093
      12 -> 18        -0.12052
      12 -> 19        -0.10724

 Excited State  11:      Singlet-A      9.1633 eV  135.31 nm  f=0.1670  <S**2>=0.000
       9 -> 16        -0.10271
      10 -> 14        -0.16540
      11 -> 15        -0.25796
      11 -> 16        -0.23328
      11 -> 17        -0.23488
      12 -> 15        -0.14136
      12 -> 17         0.29300
      12 -> 18         0.31162
      12 -> 21         0.12517
      13 -> 14         0.11728

 Excited State  12:      Singlet-A      9.2979 eV  133.35 nm  f=0.0675  <S**2>=0.000
       9 -> 15         0.10915
      10 -> 14         0.48815
      11 -> 15        -0.30845
      11 -> 19        -0.10546
      12 -> 15        -0.23348
      12 -> 16        -0.18162
      12 -> 17        -0.16860

 Excited State  13:      Singlet-A      9.5765 eV  129.47 nm  f=0.0358  <S**2>=0.000
      10 -> 15         0.11868
      13 -> 18         0.26551
      13 -> 20         0.52659
      13 -> 21        -0.34090

 Excited State  14:      Singlet-A      9.6147 eV  128.95 nm  f=0.0751  <S**2>=0.000
       9 -> 15        -0.23063
      10 -> 14         0.26633
      11 -> 15         0.43693
      11 -> 19         0.12747
      12 -> 15        -0.15955
      12 -> 16        -0.15140
      12 -> 17         0.16471
      12 -> 18         0.21732

 Excited State  15:      Singlet-A      9.9810 eV  124.22 nm  f=0.0357  <S**2>=0.000
      10 -> 15        -0.26297
      10 -> 16        -0.33753
      13 -> 18        -0.11526
      13 -> 20         0.37027
      13 -> 21         0.35641

 The electronic state is 1-A.
 Alpha  occ. eigenvalues --   -1.96729  -1.23925  -0.99244  -0.82062  -0.79983
 Alpha  occ. eigenvalues --   -0.70951  -0.66367  -0.53377  -0.49195  -0.43201
 Alpha  occ. eigenvalues --   -0.41194  -0.37462  -0.28077
 Alpha virt. eigenvalues --    0.13982   0.16882   0.19184   0.25764   0.28149
 Alpha virt. eigenvalues --    0.30368   0.32047   0.35272   0.38020   0.46410
 Alpha virt. eigenvalues --    0.51805

 Mulliken charges:
               1
     1  C   -0.047970
     2  C   -1.916198
     3  O    3.144477
     4  C   -1.950717
     5  C   -0.171279
     6  H    0.164329
     7  H    0.315854
     8  H    0.308171
     9  H    0.153333
 Sum of Mulliken charges =   0.00000

 Dipole moment (field-independent basis, Debye):
    X=              3.0275    Y=             -9.3937    Z=             -0.1334  Tot=              9.8704
 N-N= 1.051117962660D+02 E-N=-1.712856907925D+02  KE=-1.573499737642D+01
 Orbital energies and kinetic energies (alpha):
                                 1                 2
   1         O                -1.967285         -1.458078
   2         O                -1.239247         -1.092944
   3         O                -0.992445         -0.910707
   4         O                -0.820625         -0.614596
   5         O                -0.799827         -0.693923
   6         O                -0.709510         -0.587922
   7         O                -0.663673         -0.575674

 Normal termination of Gaussian 09 at Tue Dec 15 17:09:57 2015.
