 Gaussian 09, Revision D.01,
 Gaussian 09:  ES64L-G09RevD.01 24-Apr-2013

 ------------------------------------------------------------
 #P AM1(Input,print) CIS(Singlets,NStates=15) pop(full) force
 ------------------------------------------------------------

 -----------------
 AM1-Reparam Input
 -----------------
 Symbolic Z-matrix:
 Charge =  0 Multiplicity = 1

                         Standard orientation:
 ---------------------------------------------------------------------
 Center     Atomic      Atomic             Coordinates (Angstroms)
 Number     Number       Type             X           Y           Z
 ---------------------------------------------------------------------
      1          6           0       -1.137190    0.380335    0.010335
      2          6           0       -0.696027   -0.885175   -0.005211
      3          8           0        0.690219   -0.967181    0.003865
      4          6           0        1.061751    0.335255   -0.003555
      5          6           0        0.039693    1.178220   -0.013275
      6          1           0        0.091382    2.257813   -0.001811
      7          1           0        2.232895    0.449551    0.037523
      8          1           0       -1.277352   -1.790679   -0.025039
      9          1           0       -2.178041    0.768954    0.028640
 ---------------------------------------------------------------------

 SCF Done:  E(RAM1) =   1.10311582162     A.U. after   14 cycles

 Excitation energies and oscillator strengths:

 Excited State   1:      Singlet-A      5.5779 eV  222.28 nm  f=0.1985  <S**2>=0.000
      12 -> 16         0.14250
      13 -> 14         0.67846
 This state for optimization and/or second-order correction.
 Total Energy, E(CIS) =   1.30810052172
 Copying the excited state density for this state as the 1-particle RhoCI density.

 Excited State   2:      Singlet-A      6.4351 eV  192.67 nm  f=0.0012  <S**2>=0.000
      13 -> 15         0.62515
      13 -> 16         0.19056
      13 -> 17         0.16120
      13 -> 18        -0.14245

 Excited State   3:      Singlet-A      6.7462 eV  183.78 nm  f=0.0040  <S**2>=0.000
      12 -> 14        -0.10896
      13 -> 15        -0.20019
      13 -> 16         0.16333
      13 -> 17         0.61505
      13 -> 19         0.10451
      13 -> 21         0.11885

 Excited State   4:      Singlet-A      6.8521 eV  180.94 nm  f=0.0219  <S**2>=0.000
      12 -> 14        -0.35952
      13 -> 15        -0.10378
      13 -> 16         0.53836
      13 -> 17        -0.22511

 Excited State   5:      Singlet-A      7.4010 eV  167.52 nm  f=0.0027  <S**2>=0.000
       9 -> 14         0.11916
      11 -> 14         0.68475

 Excited State   6:      Singlet-A      7.9760 eV  155.45 nm  f=0.0171  <S**2>=0.000
      10 -> 14         0.65966
      11 -> 16         0.10966
      12 -> 14        -0.14792

 Excited State   7:      Singlet-A      8.0880 eV  153.29 nm  f=0.2572  <S**2>=0.000
      10 -> 14         0.17456
      12 -> 14         0.55764
      13 -> 16         0.32512

 Excited State   8:      Singlet-A      8.1469 eV  152.19 nm  f=0.0005  <S**2>=0.000
      12 -> 15         0.18044
      13 -> 18         0.57115
      13 -> 19         0.25438
      13 -> 24        -0.17522

 Excited State   9:      Singlet-A      8.5191 eV  145.54 nm  f=0.0107  <S**2>=0.000
      12 -> 15         0.48957
      13 -> 19        -0.32008
      13 -> 20        -0.32919

 Excited State  10:      Singlet-A      8.6100 eV  144.00 nm  f=0.0167  <S**2>=0.000
      12 -> 15         0.37258
      12 -> 17         0.23214
      13 -> 20         0.48205
      13 -> 23         0.11753

 Excited State  11:      Singlet-A      8.6331 eV  143.62 nm  f=0.1225  <S**2>=0.000
      11 -> 15         0.10489
      12 -> 16         0.60434
      12 -> 17         0.17714
      13 -> 14        -0.12596

 Excited State  12:      Singlet-A      8.7968 eV  140.94 nm  f=0.0123  <S**2>=0.000
      12 -> 16        -0.12357
      12 -> 17         0.47848
      13 -> 18        -0.21109
      13 -> 19         0.27086
      13 -> 20        -0.30881

 Excited State  13:      Singlet-A      8.8506 eV  140.09 nm  f=0.0182  <S**2>=0.000
       6 -> 16         0.10614
       9 -> 15         0.11319
       9 -> 16        -0.28298
      10 -> 14        -0.14079
      11 -> 15        -0.19753
      11 -> 16         0.55941

 Excited State  14:      Singlet-A      9.1861 eV  134.97 nm  f=0.0034  <S**2>=0.000
      12 -> 15         0.18859
      12 -> 17        -0.32361
      13 -> 15        -0.12679
      13 -> 18        -0.16469
      13 -> 19         0.40021
      13 -> 21        -0.35246

 Excited State  15:      Singlet-A      9.4182 eV  131.64 nm  f=0.0533  <S**2>=0.000
      10 -> 15         0.15900
      10 -> 17         0.20988
      10 -> 18        -0.12576
      10 -> 19         0.14068
      10 -> 20        -0.12853
      11 -> 15         0.29475
      11 -> 17        -0.23720
      11 -> 18        -0.26071
      11 -> 19        -0.15247
      12 -> 16        -0.22742

 The electronic state is 1-A.
 Alpha  occ. eigenvalues --   -1.81303  -1.20254  -0.97062  -0.86696  -0.80216
 Alpha  occ. eigenvalues --   -0.73084  -0.71328  -0.58422  -0.55312  -0.51225
 Alpha  occ. eigenvalues --   -0.49256  -0.46537  -0.37353
 Alpha virt. eigenvalues --    0.04691   0.09459   0.09812   0.11778   0.18558
 Alpha virt. eigenvalues --    0.19379   0.21000   0.22493   0.26943   0.27693
 Alpha virt. eigenvalues --    0.28624

 Mulliken charges:
               1
     1  C   -0.108579
     2  C   -1.245326
     3  O    2.102197
     4  C   -1.219706
     5  C   -0.153619
     6  H    0.108545
     7  H    0.206714
     8  H    0.201684
     9  H    0.108090
 Sum of Mulliken charges =   0.00000

 Dipole moment (field-independent basis, Debye):
    X=              4.5827    Y=             -6.0717    Z=              0.1164  Tot=              7.6079
 N-N= 1.042607630962D+02 E-N=-1.712083148980D+02  KE=-1.494601884434D+01
 Orbital energies and kinetic energies (alpha):
                                 1                 2
   1         O                -1.813029         -1.235714
   2         O                -1.202545         -0.985809
   3         O                -0.970618         -0.823835
   4         O                -0.866963         -0.606834
   5         O                -0.802165         -0.664301
   6         O                -0.730836         -0.591639
   7         O                -0.713276         -0.518816

 Normal termination of Gaussian 09 at Tue Dec 15 17:05:42 2015.
