 Gaussian 09, Revision D.01,
 Gaussian 09:  ES64L-G09RevD.01 24-Apr-2013

 ------------------------------------------------------------
 #P AM1(Input,print) CIS(Singlets,NStates=15) pop(full) force
 ------------------------------------------------------------

 -----------------
 AM1-Reparam Input
 -----------------
 Symbolic Z-matrix:
 Charge =  0 Multiplicity = 1

                         Standard orientation:
 ---------------------------------------------------------------------
 Center     Atomic      Atomic             Coordinates (Angstroms)
 Number     Number       Type             X           Y           Z
 ---------------------------------------------------------------------
      1          6           0       -0.684561    0.942479   -0.004022
      2          6           0       -1.128426   -0.256752    0.028697
      3          8           0       -0.062078   -1.183638   -0.026626
      4          6           0        1.134487   -0.371953    0.024121
      5          6           0        0.738963    0.954621   -0.025195
      6          1           0        1.430802    1.758637    0.020651
      7          1           0        2.086086   -0.898317    0.043721
      8          1           0       -2.030648   -0.814098   -0.001215
      9          1           0       -1.352394    1.812515    0.008243
 ---------------------------------------------------------------------

 SCF Done:  E(RAM1) =   2.59716630935     A.U. after   13 cycles

 Excitation energies and oscillator strengths:

 Excited State   1:      Singlet-A      5.2257 eV  237.26 nm  f=0.3333  <S**2>=0.000
      13 -> 14         0.69430
 This state for optimization and/or second-order correction.
 Total Energy, E(CIS) =   2.78920700064
 Copying the excited state density for this state as the 1-particle RhoCI density.

 Excited State   2:      Singlet-A      6.0223 eV  205.87 nm  f=0.0002  <S**2>=0.000
      10 -> 15         0.11768
      13 -> 15         0.67672

 Excited State   3:      Singlet-A      6.4903 eV  191.03 nm  f=0.0021  <S**2>=0.000
      10 -> 16        -0.11582
      13 -> 16         0.65244
      13 -> 17        -0.18902
      13 -> 19         0.13299

 Excited State   4:      Singlet-A      6.9609 eV  178.11 nm  f=0.0009  <S**2>=0.000
      12 -> 14         0.69788

 Excited State   5:      Singlet-A      7.7387 eV  160.21 nm  f=0.0086  <S**2>=0.000
      11 -> 14         0.54259
      13 -> 16        -0.12595
      13 -> 17        -0.35057
      13 -> 18         0.18721
      13 -> 21        -0.12833

 Excited State   6:      Singlet-A      7.8160 eV  158.63 nm  f=0.0013  <S**2>=0.000
      11 -> 14        -0.36351
      13 -> 17        -0.16091
      13 -> 18         0.49592
      13 -> 21        -0.26269

 Excited State   7:      Singlet-A      7.9757 eV  155.45 nm  f=0.0068  <S**2>=0.000
      11 -> 14         0.25519
      13 -> 15         0.10427
      13 -> 17         0.53821
      13 -> 18         0.27942
      13 -> 19         0.13376
      13 -> 21        -0.11548

 Excited State   8:      Singlet-A      8.7077 eV  142.38 nm  f=0.0012  <S**2>=0.000
      10 -> 16         0.10988
      13 -> 16        -0.11210
      13 -> 18        -0.20759
      13 -> 19         0.64191

 Excited State   9:      Singlet-A      8.8072 eV  140.78 nm  f=0.0476  <S**2>=0.000
      10 -> 14         0.63573
      12 -> 15        -0.24158

 Excited State  10:      Singlet-A      9.2356 eV  134.25 nm  f=0.1379  <S**2>=0.000
       8 -> 15        -0.12086
      10 -> 14         0.25135
      12 -> 15         0.57683
      12 -> 16        -0.15051
      12 -> 18        -0.14061

 Excited State  11:      Singlet-A      9.4414 eV  131.32 nm  f=0.0108  <S**2>=0.000
      11 -> 15        -0.10721
      12 -> 15        -0.10675
      13 -> 18         0.27815
      13 -> 19         0.12686
      13 -> 20        -0.14676
      13 -> 21         0.54909

 Excited State  12:      Singlet-A      9.4936 eV  130.60 nm  f=0.0648  <S**2>=0.000
       9 -> 15         0.14907
      11 -> 15         0.26736
      11 -> 16         0.11310
      11 -> 17        -0.24704
      11 -> 18        -0.10357
      12 -> 15         0.19735
      12 -> 16         0.22106
      12 -> 17        -0.23738
      12 -> 18         0.24932
      13 -> 18         0.10411
      13 -> 21         0.22860

 Excited State  13:      Singlet-A      9.8212 eV  126.24 nm  f=0.1062  <S**2>=0.000
      13 -> 20         0.66531
      13 -> 21         0.17160

 Excited State  14:      Singlet-A     10.0412 eV  123.48 nm  f=0.0004  <S**2>=0.000
       7 -> 15        -0.16058
      10 -> 15         0.64186
      10 -> 16         0.12164
      13 -> 15        -0.14251

 Excited State  15:      Singlet-A     10.1187 eV  122.53 nm  f=0.1833  <S**2>=0.000
       8 -> 16         0.10044
      11 -> 16        -0.43603
      11 -> 17         0.15635
      12 -> 16         0.44932
      12 -> 18        -0.16031

 The electronic state is 1-A.
 Alpha  occ. eigenvalues --   -1.70799  -1.15852  -0.94965  -0.79940  -0.76245
 Alpha  occ. eigenvalues --   -0.66988  -0.62890  -0.54148  -0.50671  -0.42959
 Alpha  occ. eigenvalues --   -0.42347  -0.39713  -0.27140
 Alpha virt. eigenvalues --    0.12650   0.17457   0.19946   0.26055   0.28704
 Alpha virt. eigenvalues --    0.30095   0.32747   0.33446   0.35046   0.44655
 Alpha virt. eigenvalues --    0.48346

 Mulliken charges:
               1
     1  C   -0.085534
     2  C   -1.843992
     3  O    3.229699
     4  C   -1.913249
     5  C   -0.086245
     6  H    0.118386
     7  H    0.244157
     8  H    0.217704
     9  H    0.119074
 Sum of Mulliken charges =   0.00000

 Dipole moment (field-independent basis, Debye):
    X=             -1.0244    Y=            -11.8226    Z=             -0.7090  Tot=             11.8880
 N-N= 1.031295044354D+02 E-N=-1.675886747191D+02  KE=-1.498285133897D+01
 Orbital energies and kinetic energies (alpha):
                                 1                 2
   1         O                -1.707995         -1.176037
   2         O                -1.158517         -1.012803
   3         O                -0.949652         -0.881198
   4         O                -0.799399         -0.616160
   5         O                -0.762454         -0.673105
   6         O                -0.669882         -0.569984
   7         O                -0.628899         -0.520998

 Normal termination of Gaussian 09 at Tue Dec 15 17:06:14 2015.
