 Gaussian 09, Revision D.01,
 Gaussian 09:  ES64L-G09RevD.01 24-Apr-2013

 ------------------------------------------------------------
 #P AM1(Input,print) CIS(Singlets,NStates=15) pop(full) force
 ------------------------------------------------------------

 -----------------
 AM1-Reparam Input
 -----------------
 Symbolic Z-matrix:
 Charge =  0 Multiplicity = 1

                         Standard orientation:
 ---------------------------------------------------------------------
 Center     Atomic      Atomic             Coordinates (Angstroms)
 Number     Number       Type             X           Y           Z
 ---------------------------------------------------------------------
      1          6           0        0.070270    1.220215    0.033094
      2          6           0        1.095662    0.248151    0.007007
      3          8           0        0.629743   -0.973439   -0.014514
      4          6           0       -0.702132   -0.852046    0.007143
      5          6           0       -1.140103    0.409482   -0.025611
      6          1           0       -2.147956    0.807186   -0.000010
      7          1           0       -1.313116   -1.781554    0.064889
      8          1           0        2.230622    0.359411   -0.013713
      9          1           0        0.250327    2.247660   -0.064854
 ---------------------------------------------------------------------

 SCF Done:  E(RAM1) =  0.292701234519E-01 A.U. after   14 cycles

 Excitation energies and oscillator strengths:

 Excited State   1:      Singlet-A      4.4159 eV  280.77 nm  f=0.0764  <S**2>=0.000
      12 -> 15         0.21551
      13 -> 14         0.66565
 This state for optimization and/or second-order correction.
 Total Energy, E(CIS) =  0.191550840738
 Copying the excited state density for this state as the 1-particle RhoCI density.

 Excited State   2:      Singlet-A      4.8864 eV  253.73 nm  f=0.0019  <S**2>=0.000
      12 -> 14         0.10537
      13 -> 15        -0.20177
      13 -> 16         0.64041
      13 -> 22         0.12590

 Excited State   3:      Singlet-A      4.9341 eV  251.28 nm  f=0.0159  <S**2>=0.000
      12 -> 14        -0.35417
      13 -> 15         0.56317
      13 -> 16         0.22044

 Excited State   4:      Singlet-A      5.6118 eV  220.94 nm  f=0.0012  <S**2>=0.000
      12 -> 18         0.14161
      12 -> 21         0.13580
      13 -> 17         0.24135
      13 -> 18         0.48343
      13 -> 21         0.33030
      13 -> 23        -0.15231

 Excited State   5:      Singlet-A      6.0713 eV  204.21 nm  f=0.0172  <S**2>=0.000
       7 -> 16        -0.11210
      12 -> 14        -0.12276
      12 -> 15        -0.11342
      12 -> 16         0.51711
      12 -> 18        -0.16546
      12 -> 21         0.15266
      12 -> 22         0.11998
      13 -> 19        -0.22603
      13 -> 21        -0.16768

 Excited State   6:      Singlet-A      6.1378 eV  202.00 nm  f=0.1909  <S**2>=0.000
      12 -> 14         0.43223
      12 -> 15         0.30387
      12 -> 16         0.21720
      13 -> 15         0.24842
      13 -> 17         0.21937
      13 -> 18        -0.11139

 Excited State   7:      Singlet-A      6.1894 eV  200.32 nm  f=0.0358  <S**2>=0.000
      12 -> 14        -0.17604
      12 -> 15        -0.11396
      12 -> 16         0.25587
      12 -> 19        -0.20728
      12 -> 21        -0.10511
      12 -> 23        -0.13049
      13 -> 15        -0.10997
      13 -> 17         0.15060
      13 -> 18        -0.19408
      13 -> 19         0.38123
      13 -> 21         0.19670
      13 -> 23         0.14223

 Excited State   8:      Singlet-A      6.3040 eV  196.68 nm  f=0.1432  <S**2>=0.000
      12 -> 14        -0.26033
      12 -> 15         0.28920
      12 -> 16        -0.13765
      12 -> 19         0.12901
      13 -> 15        -0.17673
      13 -> 17         0.39550
      13 -> 18        -0.15724
      13 -> 20        -0.10525
      13 -> 21        -0.10803
      13 -> 23        -0.11591

 Excited State   9:      Singlet-A      6.3252 eV  196.02 nm  f=0.1403  <S**2>=0.000
      12 -> 14        -0.15360
      12 -> 15         0.48395
      12 -> 16         0.13024
      13 -> 14        -0.15127
      13 -> 15        -0.10119
      13 -> 17        -0.33148
      13 -> 18         0.12325

 Excited State  10:      Singlet-A      6.8823 eV  180.15 nm  f=0.0057  <S**2>=0.000
      10 -> 14        -0.11679
      10 -> 15        -0.10633
      11 -> 14         0.30399
      11 -> 15         0.11742
      12 -> 17         0.34872
      12 -> 18        -0.28286
      12 -> 20        -0.17113
      12 -> 23        -0.11789
      13 -> 18         0.16911
      13 -> 19         0.19303
      13 -> 21        -0.10043

 Excited State  11:      Singlet-A      6.9001 eV  179.68 nm  f=0.0024  <S**2>=0.000
       9 -> 14        -0.11082
      10 -> 14        -0.30466
      11 -> 14         0.40268
      11 -> 15         0.25725
      12 -> 17        -0.18973
      12 -> 18         0.20205
      13 -> 19        -0.12212

 Excited State  12:      Singlet-A      7.0761 eV  175.21 nm  f=0.0074  <S**2>=0.000
      11 -> 15        -0.10547
      12 -> 17        -0.15200
      12 -> 19         0.20783
      12 -> 20         0.23060
      12 -> 23         0.15201
      13 -> 16         0.10707
      13 -> 18         0.15097
      13 -> 19         0.33149
      13 -> 20         0.22068
      13 -> 21        -0.31207
      13 -> 23         0.11822

 Excited State  13:      Singlet-A      7.3417 eV  168.88 nm  f=0.0025  <S**2>=0.000
       9 -> 14         0.22232
      10 -> 14        -0.28372
      10 -> 15         0.31932
      11 -> 14        -0.22610
      11 -> 15         0.38033
      13 -> 19         0.10993

 Excited State  14:      Singlet-A      7.3994 eV  167.56 nm  f=0.0016  <S**2>=0.000
      12 -> 18        -0.19947
      12 -> 19         0.34199
      12 -> 21         0.12337
      12 -> 22         0.13049
      13 -> 17        -0.12441
      13 -> 18        -0.12969
      13 -> 19         0.19283
      13 -> 21         0.15702
      13 -> 22         0.34861
      13 -> 23        -0.14494
      13 -> 24        -0.15865

 Excited State  15:      Singlet-A      7.5849 eV  163.46 nm  f=0.0021  <S**2>=0.000
       9 -> 15         0.10187
      10 -> 14         0.16768
      12 -> 17         0.24565
      12 -> 18         0.32073
      12 -> 20        -0.21559
      12 -> 21         0.21577
      13 -> 18        -0.14545
      13 -> 20         0.31052
      13 -> 24        -0.15273

 The electronic state is 1-A.
 Alpha  occ. eigenvalues --   -1.59636  -1.24018  -1.08920  -0.83833  -0.80084
 Alpha  occ. eigenvalues --   -0.68703  -0.62077  -0.56671  -0.51750  -0.49858
 Alpha  occ. eigenvalues --   -0.48382  -0.38936  -0.34190
 Alpha virt. eigenvalues --    0.03544   0.06119   0.09593   0.13387   0.14440
 Alpha virt. eigenvalues --    0.15848   0.17736   0.18111   0.18907   0.20876
 Alpha virt. eigenvalues --    0.23032

 Mulliken charges:
               1
     1  C   -0.222447
     2  C   -0.132352
     3  O   -0.027075
     4  C   -0.130392
     5  C   -0.191272
     6  H    0.164812
     7  H    0.184793
     8  H    0.193104
     9  H    0.160829
 Sum of Mulliken charges =   0.00000

 Dipole moment (field-independent basis, Debye):
    X=             -0.0119    Y=              0.1289    Z=             -0.0429  Tot=              0.1363
 N-N= 1.036054031992D+02 E-N=-1.712361859342D+02  KE=-1.657490118280D+01
 Orbital energies and kinetic energies (alpha):
                                 1                 2
   1         O                -1.596356         -1.325394
   2         O                -1.240176         -1.060568
   3         O                -1.089204         -0.948846
   4         O                -0.838331         -0.709633
   5         O                -0.800839         -0.714673
   6         O                -0.687033         -0.603295
   7         O                -0.620774         -0.496684

 Normal termination of Gaussian 09 at Tue Dec 15 16:28:08 2015.
