 Gaussian 09, Revision D.01,
 Gaussian 09:  ES64L-G09RevD.01 24-Apr-2013

 ------------------------------------------------------------
 #P AM1(Input,print) CIS(Singlets,NStates=15) pop(full) force
 ------------------------------------------------------------

 -----------------
 AM1-Reparam Input
 -----------------
 Symbolic Z-matrix:
 Charge =  0 Multiplicity = 1

                         Standard orientation:
 ---------------------------------------------------------------------
 Center     Atomic      Atomic             Coordinates (Angstroms)
 Number     Number       Type             X           Y           Z
 ---------------------------------------------------------------------
      1          6           0        0.426935    1.086993    0.006452
      2          6           0        1.158484   -0.062068    0.034016
      3          8           0        0.323832   -1.092775   -0.013920
      4          6           0       -0.987586   -0.654582   -0.000887
      5          6           0       -0.950789    0.774502   -0.023468
      6          1           0       -1.781889    1.417671    0.030627
      7          1           0       -1.744242   -1.345937    0.070045
      8          1           0        2.197984   -0.256572   -0.078761
      9          1           0        0.855220    2.057965   -0.007227
 ---------------------------------------------------------------------

 SCF Done:  E(RAM1) =   2.58275593355     A.U. after   13 cycles

 Excitation energies and oscillator strengths:

 Excited State   1:      Singlet-A      5.2270 eV  237.20 nm  f=0.3557  <S**2>=0.000
      13 -> 14         0.69786
 This state for optimization and/or second-order correction.
 Total Energy, E(CIS) =   2.77484289974
 Copying the excited state density for this state as the 1-particle RhoCI density.

 Excited State   2:      Singlet-A      6.5253 eV  190.01 nm  f=0.0022  <S**2>=0.000
      11 -> 15         0.10397
      12 -> 14         0.12928
      13 -> 15         0.64551
      13 -> 16        -0.13341
      13 -> 17        -0.10273
      13 -> 18         0.11365

 Excited State   3:      Singlet-A      6.6857 eV  185.45 nm  f=0.0007  <S**2>=0.000
      11 -> 14        -0.10056
      12 -> 14         0.67303
      13 -> 15        -0.10928
      13 -> 16         0.10483

 Excited State   4:      Singlet-A      6.8338 eV  181.43 nm  f=0.0061  <S**2>=0.000
      10 -> 14        -0.11826
      13 -> 15         0.16071
      13 -> 16         0.64731

 Excited State   5:      Singlet-A      7.3956 eV  167.65 nm  f=0.0045  <S**2>=0.000
      10 -> 14         0.68719
      13 -> 16         0.10613

 Excited State   6:      Singlet-A      8.1361 eV  152.39 nm  f=0.0003  <S**2>=0.000
      13 -> 16        -0.10309
      13 -> 17         0.66855
      13 -> 21        -0.12452

 Excited State   7:      Singlet-A      8.2944 eV  149.48 nm  f=0.1257  <S**2>=0.000
      11 -> 14         0.68999
      12 -> 14         0.10146

 Excited State   8:      Singlet-A      9.4414 eV  131.32 nm  f=0.0072  <S**2>=0.000
       7 -> 15         0.10729
      10 -> 15        -0.18524
      10 -> 16        -0.10048
      11 -> 15        -0.26888
      11 -> 16         0.12186
      12 -> 15        -0.18765
      12 -> 16         0.22997
      12 -> 17         0.17536
      13 -> 18         0.43732

 Excited State   9:      Singlet-A      9.5037 eV  130.46 nm  f=0.0261  <S**2>=0.000
       9 -> 15         0.11541
      10 -> 15         0.25491
      10 -> 16         0.15415
      10 -> 18         0.15758
      11 -> 15        -0.22695
      12 -> 15        -0.10018
      12 -> 16        -0.28113
      12 -> 17        -0.27497
      13 -> 18         0.30189

 Excited State  10:      Singlet-A      9.6567 eV  128.39 nm  f=0.1682  <S**2>=0.000
      10 -> 15        -0.14787
      11 -> 15        -0.16259
      12 -> 15         0.61563
      12 -> 18         0.13640
      13 -> 18         0.14016

 Excited State  11:      Singlet-A      9.7621 eV  127.01 nm  f=0.0014  <S**2>=0.000
       7 -> 16         0.12795
      11 -> 15         0.11876
      11 -> 16         0.48802
      13 -> 19         0.43326

 Excited State  12:      Singlet-A     10.2287 eV  121.21 nm  f=0.0131  <S**2>=0.000
       9 -> 14        -0.15679
      10 -> 15         0.10090
      10 -> 16        -0.16338
      11 -> 15         0.46708
      13 -> 15        -0.16484
      13 -> 18         0.32445
      13 -> 19        -0.20908

 Excited State  13:      Singlet-A     10.2706 eV  120.72 nm  f=0.1613  <S**2>=0.000
      10 -> 16         0.54299
      10 -> 19         0.14500
      11 -> 15         0.15038
      12 -> 16         0.32990
      13 -> 18         0.10062

 Excited State  14:      Singlet-A     10.4895 eV  118.20 nm  f=0.0006  <S**2>=0.000
       9 -> 14         0.64218
      11 -> 15         0.13909
      13 -> 18         0.14097

 Excited State  15:      Singlet-A     10.5753 eV  117.24 nm  f=0.0010  <S**2>=0.000
       8 -> 15        -0.10540
       8 -> 16         0.18130
       9 -> 14         0.14141
       9 -> 15         0.11195
       9 -> 16         0.14026
      10 -> 15         0.18720
      10 -> 16        -0.12912
      10 -> 17         0.22132
      10 -> 19        -0.12722
      12 -> 15         0.10757
      12 -> 16         0.33042
      12 -> 17        -0.24617
      12 -> 18        -0.12681
      12 -> 20        -0.10423
      13 -> 19        -0.16250

 The electronic state is 1-A.
 Alpha  occ. eigenvalues --   -1.84956  -1.12268  -0.88424  -0.79892  -0.75377
 Alpha  occ. eigenvalues --   -0.67439  -0.63616  -0.57389  -0.55556  -0.46039
 Alpha  occ. eigenvalues --   -0.45186  -0.44048  -0.31908
 Alpha virt. eigenvalues --    0.07568   0.15857   0.17750   0.24519   0.27195
 Alpha virt. eigenvalues --    0.29265   0.34406   0.38614   0.48856   0.55849
 Alpha virt. eigenvalues --    0.60980

 Mulliken charges:
               1
     1  C   -0.208524
     2  C   -2.016554
     3  O    3.440879
     4  C   -2.018489
     5  C   -0.134011
     6  H    0.187528
     7  H    0.263159
     8  H    0.283805
     9  H    0.202207
 Sum of Mulliken charges =   0.00000

 Dipole moment (field-independent basis, Debye):
    X=              3.4829    Y=             -9.9150    Z=             -0.4899  Tot=             10.5203
 N-N= 1.039596715769D+02 E-N=-1.693474705463D+02  KE=-1.436438988819D+01
 Orbital energies and kinetic energies (alpha):
                                 1                 2
   1         O                -1.849563         -1.252615
   2         O                -1.122680         -0.958053
   3         O                -0.884240         -0.779751
   4         O                -0.798921         -0.543782
   5         O                -0.753772         -0.631656
   6         O                -0.674392         -0.562181
   7         O                -0.636160         -0.490633

 Normal termination of Gaussian 09 at Tue Dec 15 17:07:34 2015.
