 Gaussian 09, Revision D.01,
 Gaussian 09:  ES64L-G09RevD.01 24-Apr-2013

 ------------------------------------------------------------
 #P AM1(Input,print) CIS(Singlets,NStates=15) pop(full) force
 ------------------------------------------------------------

 -----------------
 AM1-Reparam Input
 -----------------
 Symbolic Z-matrix:
 Charge =  0 Multiplicity = 1

                         Standard orientation:
 ---------------------------------------------------------------------
 Center     Atomic      Atomic             Coordinates (Angstroms)
 Number     Number       Type             X           Y           Z
 ---------------------------------------------------------------------
      1          6           0       -1.066028    0.549571    0.013166
      2          6           0       -0.878971   -0.796044   -0.016967
      3          8           0        0.582850   -1.035453    0.006998
      4          6           0        1.153102    0.178886   -0.007447
      5          6           0        0.175993    1.158476   -0.003216
      6          1           0        0.382676    2.257368   -0.024410
      7          1           0        2.218832    0.183356    0.032427
      8          1           0       -1.469872   -1.686384    0.003517
      9          1           0       -2.099014    0.983952    0.019260
 ---------------------------------------------------------------------

 SCF Done:  E(RAM1) =   1.41060879166     A.U. after   13 cycles

 Excitation energies and oscillator strengths:

 Excited State   1:      Singlet-A      6.0816 eV  203.87 nm  f=0.2813  <S**2>=0.000
      13 -> 14         0.69130
 This state for optimization and/or second-order correction.
 Total Energy, E(CIS) =   1.63410483706
 Copying the excited state density for this state as the 1-particle RhoCI density.

 Excited State   2:      Singlet-A      6.2225 eV  199.25 nm  f=0.0002  <S**2>=0.000
      12 -> 15        -0.12176
      13 -> 15         0.65093
      13 -> 17        -0.18055
      13 -> 20        -0.10669

 Excited State   3:      Singlet-A      6.9118 eV  179.38 nm  f=0.0001  <S**2>=0.000
      12 -> 15         0.10075
      12 -> 16         0.14367
      13 -> 15        -0.10732
      13 -> 16         0.63520
      13 -> 17        -0.13152
      13 -> 21         0.11862

 Excited State   4:      Singlet-A      7.5251 eV  164.76 nm  f=0.0110  <S**2>=0.000
      12 -> 16         0.10281
      13 -> 15         0.14789
      13 -> 16         0.14988
      13 -> 17         0.64074

 Excited State   5:      Singlet-A      7.7597 eV  159.78 nm  f=0.0002  <S**2>=0.000
       9 -> 14        -0.10030
      11 -> 14         0.67121
      12 -> 14         0.11874
      13 -> 22        -0.12809

 Excited State   6:      Singlet-A      8.1049 eV  152.97 nm  f=0.0109  <S**2>=0.000
      12 -> 14         0.34156
      13 -> 18         0.59279

 Excited State   7:      Singlet-A      8.1633 eV  151.88 nm  f=0.0010  <S**2>=0.000
      12 -> 15         0.14011
      13 -> 17        -0.10426
      13 -> 19         0.52993
      13 -> 22        -0.40757

 Excited State   8:      Singlet-A      8.2232 eV  150.77 nm  f=0.0031  <S**2>=0.000
      10 -> 14         0.68338

 Excited State   9:      Singlet-A      8.6885 eV  142.70 nm  f=0.0046  <S**2>=0.000
      12 -> 15        -0.33262
      13 -> 19         0.19287
      13 -> 20         0.48699
      13 -> 21         0.22824
      13 -> 22         0.17338

 Excited State  10:      Singlet-A      8.7279 eV  142.06 nm  f=0.0081  <S**2>=0.000
      11 -> 14         0.10891
      13 -> 19         0.38820
      13 -> 20        -0.32177
      13 -> 22         0.43166

 Excited State  11:      Singlet-A      8.9527 eV  138.49 nm  f=0.0081  <S**2>=0.000
      12 -> 15         0.48747
      12 -> 17        -0.10080
      13 -> 15         0.15429
      13 -> 16        -0.11911
      13 -> 20         0.10190
      13 -> 21         0.34124
      13 -> 22         0.20761
      13 -> 23         0.10252

 Excited State  12:      Singlet-A      9.0513 eV  136.98 nm  f=0.2050  <S**2>=0.000
      12 -> 14         0.57824
      13 -> 18        -0.33351

 Excited State  13:      Singlet-A      9.2546 eV  133.97 nm  f=0.0372  <S**2>=0.000
      12 -> 15        -0.22638
      12 -> 16        -0.14983
      13 -> 20        -0.31196
      13 -> 21         0.50957
      13 -> 22        -0.16280
      13 -> 23         0.10526

 Excited State  14:      Singlet-A      9.7620 eV  127.01 nm  f=0.0796  <S**2>=0.000
       9 -> 15         0.16189
      10 -> 15        -0.20630
      10 -> 16        -0.10395
      10 -> 17         0.43373
      11 -> 16         0.19352
      11 -> 19        -0.30744
      11 -> 22         0.10920

 Excited State  15:      Singlet-A      9.8321 eV  126.10 nm  f=0.0526  <S**2>=0.000
       8 -> 15        -0.13836
      10 -> 15        -0.20268
      11 -> 15         0.60599
      11 -> 17        -0.11281
      11 -> 20        -0.13058

 The electronic state is 1-A.
 Alpha  occ. eigenvalues --   -1.87272  -1.18528  -0.94434  -0.78603  -0.76566
 Alpha  occ. eigenvalues --   -0.66802  -0.60633  -0.50147  -0.47720  -0.38811
 Alpha  occ. eigenvalues --   -0.37780  -0.36455  -0.24610
 Alpha virt. eigenvalues --    0.18567   0.20910   0.24790   0.27802   0.27883
 Alpha virt. eigenvalues --    0.30381   0.32711   0.34875   0.36387   0.38801
 Alpha virt. eigenvalues --    0.43462

 Mulliken charges:
               1
     1  C    0.009516
     2  C   -1.522768
     3  O    2.768625
     4  C   -1.548381
     5  C   -0.122570
     6  H    0.063268
     7  H    0.161297
     8  H    0.133107
     9  H    0.057908
 Sum of Mulliken charges =   0.00000

 Dipole moment (field-independent basis, Debye):
    X=              5.1758    Y=             -8.6193    Z=              0.3110  Tot=             10.0588
 N-N= 1.028581871092D+02 E-N=-1.687442143057D+02  KE=-1.578372397210D+01
 Orbital energies and kinetic energies (alpha):
                                 1                 2
   1         O                -1.872720         -1.343941
   2         O                -1.185281         -1.075864
   3         O                -0.944337         -0.873934
   4         O                -0.786032         -0.675072
   5         O                -0.765655         -0.658106
   6         O                -0.668022         -0.619090
   7         O                -0.606333         -0.537616

 Normal termination of Gaussian 09 at Tue Dec 15 17:08:05 2015.
