 Gaussian 09, Revision D.01,
 Gaussian 09:  ES64L-G09RevD.01 24-Apr-2013

 ------------------------------------------------------------
 #P AM1(Input,print) CIS(Singlets,NStates=15) pop(full) force
 ------------------------------------------------------------

 -----------------
 AM1-Reparam Input
 -----------------
 Symbolic Z-matrix:
 Charge =  0 Multiplicity = 1

                         Standard orientation:
 ---------------------------------------------------------------------
 Center     Atomic      Atomic             Coordinates (Angstroms)
 Number     Number       Type             X           Y           Z
 ---------------------------------------------------------------------
      1          6           0        0.070270    1.220215    0.033094
      2          6           0        1.095662    0.248151    0.007007
      3          8           0        0.629743   -0.973439   -0.014514
      4          6           0       -0.702132   -0.852046    0.007143
      5          6           0       -1.140103    0.409482   -0.025611
      6          1           0       -2.147956    0.807186   -0.000010
      7          1           0       -1.313116   -1.781554    0.064889
      8          1           0        2.230622    0.359411   -0.013713
      9          1           0        0.250327    2.247660   -0.064854
 ---------------------------------------------------------------------

 SCF Done:  E(RAM1) =   1.08677531148     A.U. after   13 cycles

 Excitation energies and oscillator strengths:

 Excited State   1:      Singlet-A      5.5532 eV  223.26 nm  f=0.2292  <S**2>=0.000
      12 -> 17        -0.12580
      13 -> 14         0.68299
 This state for optimization and/or second-order correction.
 Total Energy, E(CIS) =   1.29085306868
 Copying the excited state density for this state as the 1-particle RhoCI density.

 Excited State   2:      Singlet-A      6.5273 eV  189.95 nm  f=0.0047  <S**2>=0.000
      13 -> 15         0.66237
      13 -> 16         0.11973
      13 -> 18        -0.16440

 Excited State   3:      Singlet-A      6.8353 eV  181.39 nm  f=0.0016  <S**2>=0.000
      13 -> 15        -0.10426
      13 -> 16         0.64443
      13 -> 18         0.11340
      13 -> 19         0.11659
      13 -> 20         0.13201

 Excited State   4:      Singlet-A      7.1792 eV  172.70 nm  f=0.0043  <S**2>=0.000
      11 -> 14         0.16678
      12 -> 14         0.53294
      13 -> 17         0.41537

 Excited State   5:      Singlet-A      7.4126 eV  167.26 nm  f=0.0005  <S**2>=0.000
       9 -> 14        -0.16665
      11 -> 14         0.65390
      13 -> 17        -0.15478

 Excited State   6:      Singlet-A      7.9670 eV  155.62 nm  f=0.0048  <S**2>=0.000
      10 -> 14         0.68145

 Excited State   7:      Singlet-A      8.1961 eV  151.27 nm  f=0.0484  <S**2>=0.000
      12 -> 14        -0.18467
      12 -> 15        -0.23811
      12 -> 16        -0.10555
      13 -> 16        -0.14519
      13 -> 17         0.17642
      13 -> 18         0.37672
      13 -> 19         0.39203
      13 -> 22        -0.14177
      13 -> 23         0.10133

 Excited State   8:      Singlet-A      8.2182 eV  150.87 nm  f=0.2354  <S**2>=0.000
      12 -> 14        -0.38474
      12 -> 15         0.13076
      13 -> 17         0.47675
      13 -> 18        -0.17078
      13 -> 19        -0.15930

 Excited State   9:      Singlet-A      8.4592 eV  146.57 nm  f=0.0006  <S**2>=0.000
      12 -> 15         0.61224
      13 -> 18         0.10364
      13 -> 19         0.24757

 Excited State  10:      Singlet-A      8.7721 eV  141.34 nm  f=0.0099  <S**2>=0.000
      12 -> 16         0.60198
      13 -> 18         0.25598
      13 -> 19        -0.13837

 Excited State  11:      Singlet-A      9.0411 eV  137.13 nm  f=0.0743  <S**2>=0.000
       8 -> 15         0.12840
       9 -> 15        -0.10528
       9 -> 16         0.17227
      10 -> 15         0.16375
      11 -> 16        -0.10458
      11 -> 18        -0.10178
      12 -> 17         0.54140
      13 -> 14         0.10752
      13 -> 18         0.15092
      13 -> 19        -0.13502

 Excited State  12:      Singlet-A      9.1376 eV  135.69 nm  f=0.0009  <S**2>=0.000
      13 -> 18         0.11485
      13 -> 20        -0.17628
      13 -> 21         0.63601
      13 -> 23         0.12606

 Excited State  13:      Singlet-A      9.1938 eV  134.86 nm  f=0.0107  <S**2>=0.000
       9 -> 14         0.44065
       9 -> 17        -0.22455
      10 -> 17         0.11812
      11 -> 14         0.11591
      11 -> 16         0.14552
      11 -> 17        -0.35738
      13 -> 18         0.10367
      13 -> 20         0.14439

 Excited State  14:      Singlet-A      9.2798 eV  133.61 nm  f=0.0092  <S**2>=0.000
       9 -> 14         0.43144
       9 -> 17         0.23569
      10 -> 14        -0.11515
      11 -> 14         0.11850
      11 -> 16        -0.18578
      11 -> 17         0.34559
      13 -> 20         0.14276

 Excited State  15:      Singlet-A      9.3641 eV  132.40 nm  f=0.0050  <S**2>=0.000
       9 -> 14        -0.18830
      11 -> 17         0.11468
      12 -> 15         0.10244
      12 -> 16        -0.17925
      13 -> 15         0.15553
      13 -> 18         0.28460
      13 -> 19        -0.31211
      13 -> 20         0.38984

 The electronic state is 1-A.
 Alpha  occ. eigenvalues --   -1.84832  -1.18809  -0.97926  -0.88024  -0.79153
 Alpha  occ. eigenvalues --   -0.73598  -0.72262  -0.59615  -0.54712  -0.52431
 Alpha  occ. eigenvalues --   -0.50411  -0.47056  -0.38232
 Alpha virt. eigenvalues --    0.03343   0.09501   0.10452   0.11648   0.18143
 Alpha virt. eigenvalues --    0.19040   0.21280   0.21743   0.27090   0.27447
 Alpha virt. eigenvalues --    0.29094

 Mulliken charges:
               1
     1  C   -0.134793
     2  C   -1.281953
     3  O    2.146370
     4  C   -1.283841
     5  C   -0.090086
     6  H    0.106089
     7  H    0.219083
     8  H    0.217993
     9  H    0.101139
 Sum of Mulliken charges =   0.00000

 Dipole moment (field-independent basis, Debye):
    X=              3.7941    Y=             -6.0828    Z=             -0.1890  Tot=              7.1716
 N-N= 1.044154637808D+02 E-N=-1.713230909312D+02  KE=-1.499308275464D+01
 Orbital energies and kinetic energies (alpha):
                                 1                 2
   1         O                -1.848316         -1.267506
   2         O                -1.188090         -0.972928
   3         O                -0.979264         -0.788482
   4         O                -0.880236         -0.646349
   5         O                -0.791530         -0.657749
   6         O                -0.735978         -0.594962
   7         O                -0.722621         -0.514658

 Normal termination of Gaussian 09 at Tue Dec 15 17:05:45 2015.
