 Gaussian 09, Revision D.01,
 Gaussian 09:  ES64L-G09RevD.01 24-Apr-2013

 ------------------------------------------------------------
 #P AM1(Input,print) CIS(Singlets,NStates=15) pop(full) force
 ------------------------------------------------------------

 -----------------
 AM1-Reparam Input
 -----------------
 Symbolic Z-matrix:
 Charge =  0 Multiplicity = 1

                         Standard orientation:
 ---------------------------------------------------------------------
 Center     Atomic      Atomic             Coordinates (Angstroms)
 Number     Number       Type             X           Y           Z
 ---------------------------------------------------------------------
      1          6           0       -0.885270    0.787392    0.015701
      2          6           0       -1.065905   -0.472591   -0.015346
      3          8           0        0.213108   -1.146504    0.022311
      4          6           0        1.169657   -0.156108   -0.021829
      5          6           0        0.536669    1.068398   -0.009674
      6          1           0        1.077165    1.969415    0.057703
      7          1           0        2.133243   -0.528447   -0.004625
      8          1           0       -1.874166   -1.175156   -0.029939
      9          1           0       -1.572016    1.543671   -0.014736
 ---------------------------------------------------------------------

 SCF Done:  E(RAM1) =  -5.98098382410     A.U. after   14 cycles

 Excitation energies and oscillator strengths:

 Excited State   1:      Singlet-A      6.4628 eV  191.84 nm  f=0.2532  <S**2>=0.000
      13 -> 14         0.67381
 This state for optimization and/or second-order correction.
 Total Energy, E(CIS) =  -5.74348109414
 Copying the excited state density for this state as the 1-particle RhoCI density.

 Excited State   2:      Singlet-A      6.7815 eV  182.83 nm  f=0.0163  <S**2>=0.000
      13 -> 14        -0.11706
      13 -> 15         0.62241
      13 -> 16         0.26875
      13 -> 18         0.11065

 Excited State   3:      Singlet-A      7.0673 eV  175.43 nm  f=0.0032  <S**2>=0.000
      12 -> 14         0.64325
      13 -> 16         0.25314

 Excited State   4:      Singlet-A      7.1663 eV  173.01 nm  f=0.0040  <S**2>=0.000
      12 -> 14        -0.26514
      13 -> 15        -0.27781
      13 -> 16         0.57510

 Excited State   5:      Singlet-A      8.1214 eV  152.66 nm  f=0.0024  <S**2>=0.000
      10 -> 14         0.10700
      11 -> 14         0.68919

 Excited State   6:      Singlet-A      8.5510 eV  144.99 nm  f=0.0462  <S**2>=0.000
      10 -> 14         0.21104
      13 -> 17         0.64972

 Excited State   7:      Singlet-A      9.1738 eV  135.15 nm  f=0.0077  <S**2>=0.000
      10 -> 15         0.14646
      13 -> 18         0.64500
      13 -> 20         0.15545

 Excited State   8:      Singlet-A      9.3711 eV  132.31 nm  f=0.0008  <S**2>=0.000
      13 -> 19         0.65805
      13 -> 23        -0.11566

 Excited State   9:      Singlet-A      9.4443 eV  131.28 nm  f=0.0387  <S**2>=0.000
      10 -> 14         0.23699
      11 -> 15        -0.18492
      12 -> 15         0.53321
      12 -> 16         0.24674
      12 -> 18         0.13845
      13 -> 19         0.12974

 Excited State  10:      Singlet-A      9.5650 eV  129.62 nm  f=0.0493  <S**2>=0.000
      11 -> 16         0.12428
      12 -> 15        -0.29074
      12 -> 16         0.60805

 Excited State  11:      Singlet-A      9.7123 eV  127.66 nm  f=0.0356  <S**2>=0.000
       9 -> 14         0.46522
      10 -> 14        -0.44693
      11 -> 15        -0.11549
      12 -> 15         0.12425
      13 -> 17         0.12109

 Excited State  12:      Singlet-A      9.9989 eV  124.00 nm  f=0.0054  <S**2>=0.000
      10 -> 15        -0.11404
      13 -> 18        -0.14211
      13 -> 20         0.64830
      13 -> 21         0.12098

 Excited State  13:      Singlet-A     10.0939 eV  122.83 nm  f=0.0718  <S**2>=0.000
       9 -> 14         0.45813
      10 -> 14         0.30501
      11 -> 15         0.31206
      12 -> 18         0.12031
      13 -> 17        -0.16330

 Excited State  14:      Singlet-A     10.3631 eV  119.64 nm  f=0.0358  <S**2>=0.000
      10 -> 15        -0.28618
      10 -> 16        -0.19978
      11 -> 15         0.41814
      11 -> 16         0.24736
      12 -> 15         0.15341
      12 -> 17         0.19591

 Excited State  15:      Singlet-A     10.4632 eV  118.50 nm  f=0.0088  <S**2>=0.000
       8 -> 14        -0.22802
      10 -> 15         0.13826
      10 -> 16         0.12982
      11 -> 16        -0.10803
      12 -> 17         0.59874

 The electronic state is 1-A.
 Alpha  occ. eigenvalues --   -4.62385  -1.29668  -0.98752  -0.98178  -0.96851
 Alpha  occ. eigenvalues --   -0.87056  -0.78654  -0.61163  -0.56254  -0.54928
 Alpha  occ. eigenvalues --   -0.52631  -0.49121  -0.40497
 Alpha virt. eigenvalues --    0.03180   0.08221   0.09162   0.13868   0.16769
 Alpha virt. eigenvalues --    0.18042   0.20208   0.23471   0.29458   0.30384
 Alpha virt. eigenvalues --    0.31034

 Mulliken charges:
               1
     1  C   -0.404079
     2  C   -1.236369
     3  O    2.607349
     4  C   -1.284812
     5  C   -0.489961
     6  H    0.246591
     7  H    0.159861
     8  H    0.157081
     9  H    0.244339
 Sum of Mulliken charges =   0.00000

 Dipole moment (field-independent basis, Debye):
    X=              1.7426    Y=            -10.6004    Z=              0.4851  Tot=             10.7537
 N-N= 1.031627683257D+02 E-N=-1.673925420875D+02  KE=-2.357220089345D+01
 Orbital energies and kinetic energies (alpha):
                                 1                 2
   1         O                -4.623850         -3.827575
   2         O                -1.296677         -1.146818
   3         O                -0.987524         -0.904440
   4         O                -0.981780         -0.873997
   5         O                -0.968506         -0.876819
   6         O                -0.870564         -0.801670
   7         O                -0.786542         -0.646209

 Normal termination of Gaussian 09 at Fri Dec 11 13:41:29 2015.
