 Gaussian 09, Revision D.01,
 Gaussian 09:  ES64L-G09RevD.01 24-Apr-2013

 -------------------------------------------------------
 #P B3LYP/3-21G CIS(Singlets,NStates=15) pop(full) force
 -------------------------------------------------------

 --------
 FuranDFT
 --------
 Symbolic Z-matrix:
 Charge =  0 Multiplicity = 1

                         Standard orientation:
 ---------------------------------------------------------------------
 Center     Atomic      Atomic             Coordinates (Angstroms)
 Number     Number       Type             X           Y           Z
 ---------------------------------------------------------------------
      1          6           0       -1.020417    0.619512   -0.026118
      2          6           0       -0.891285   -0.654347    0.012216
      3          8           0        0.411707   -1.029125   -0.003098
      4          6           0        1.176884    0.035336   -0.000925
      5          6           0        0.295869    1.087925    0.013852
      6          1           0        0.646310    2.146935   -0.021383
      7          1           0        2.242712   -0.100238    0.002443
      8          1           0       -1.675040   -1.535533   -0.006018
      9          1           0       -1.873945    1.191277    0.055588
 ---------------------------------------------------------------------

 SCF Done:  E(RB3LYP) =  -228.720933013     A.U. after   14 cycles

 Excitation energies and oscillator strengths:

 Excited State   1:      Singlet-A      7.4680 eV  166.02 nm  f=0.1225  <S**2>=0.000
      17 -> 19        -0.27752
      18 -> 19         0.52609
      18 -> 20        -0.35048
 This state for optimization and/or second-order correction.
 Total Energy, E(CIS) =  -228.446490828
 Copying the excited state density for this state as the 1-particle RhoCI density.

 Excited State   2:      Singlet-A      7.8282 eV  158.38 nm  f=0.1255  <S**2>=0.000
      17 -> 19         0.41738
      18 -> 19         0.42818
      18 -> 20         0.34801

 Excited State   3:      Singlet-A      8.4679 eV  146.42 nm  f=0.0025  <S**2>=0.000
      18 -> 21         0.67865
      18 -> 22         0.10938

 Excited State   4:      Singlet-A      8.7967 eV  140.94 nm  f=0.0037  <S**2>=0.000
      16 -> 19         0.69903

 Excited State   5:      Singlet-A      9.2023 eV  134.73 nm  f=0.0013  <S**2>=0.000
      18 -> 21        -0.11099
      18 -> 22         0.67668
      18 -> 23         0.13030

 Excited State   6:      Singlet-A      9.4211 eV  131.60 nm  f=0.0004  <S**2>=0.000
      17 -> 21        -0.15266
      18 -> 22        -0.13498
      18 -> 23         0.66277

 Excited State   7:      Singlet-A      9.6962 eV  127.87 nm  f=0.2629  <S**2>=0.000
      17 -> 19         0.29395
      17 -> 20         0.44267
      17 -> 21         0.24675
      18 -> 20        -0.32432

 Excited State   8:      Singlet-A      9.8072 eV  126.42 nm  f=0.1227  <S**2>=0.000
      17 -> 19        -0.22349
      17 -> 21         0.58497
      18 -> 20         0.23021
      18 -> 23         0.14760

 Excited State   9:      Singlet-A     10.0356 eV  123.54 nm  f=0.0103  <S**2>=0.000
      15 -> 19         0.68805

 Excited State  10:      Singlet-A     10.4618 eV  118.51 nm  f=0.3525  <S**2>=0.000
      16 -> 20         0.10754
      17 -> 19        -0.24409
      17 -> 20         0.49505
      17 -> 21        -0.24471
      18 -> 20         0.22533

 Excited State  11:      Singlet-A     10.5113 eV  117.95 nm  f=0.0031  <S**2>=0.000
      14 -> 19        -0.11495
      16 -> 20        -0.12903
      17 -> 22        -0.20032
      18 -> 24         0.63852

 Excited State  12:      Singlet-A     10.5891 eV  117.09 nm  f=0.0041  <S**2>=0.000
      14 -> 19         0.21156
      15 -> 19        -0.10888
      16 -> 20         0.54373
      17 -> 22        -0.36130

 Excited State  13:      Singlet-A     10.6474 eV  116.45 nm  f=0.0276  <S**2>=0.000
      16 -> 20         0.30187
      17 -> 20        -0.12370
      17 -> 22         0.55288
      18 -> 24         0.24744

 Excited State  14:      Singlet-A     10.9845 eV  112.87 nm  f=0.0009  <S**2>=0.000
      14 -> 19        -0.17632
      17 -> 23         0.67525

 Excited State  15:      Singlet-A     11.1014 eV  111.68 nm  f=0.0006  <S**2>=0.000
      13 -> 19         0.15851
      14 -> 19         0.59716
      16 -> 20        -0.25605
      17 -> 23         0.16782

 The electronic state is 1-A.
 Alpha  occ. eigenvalues --  -19.11005 -10.17612 -10.17338 -10.11954 -10.11182
 Alpha  occ. eigenvalues --   -1.15052  -0.82087  -0.75536  -0.61113  -0.56507
 Alpha  occ. eigenvalues --   -0.54630  -0.46277  -0.44735  -0.42665  -0.39051
 Alpha  occ. eigenvalues --   -0.35176  -0.28507  -0.23266
 Alpha virt. eigenvalues --    0.03150   0.09141   0.12074   0.15204   0.16059
 Alpha virt. eigenvalues --    0.19575   0.23389   0.24494   0.37415   0.43152
 Alpha virt. eigenvalues --    0.50075   0.68011   0.69442   0.73053   0.75986

 Mulliken charges:
               1
     1  C   -0.250390
     2  C    0.121447
     3  O   -0.507862
     4  C    0.126575
     5  C   -0.278848
     6  H    0.171512
     7  H    0.222925
     8  H    0.199809
     9  H    0.194833
 Sum of Mulliken charges =   0.00000

 Dipole moment (field-independent basis, Debye):
    X=             -0.2165    Y=              0.4969    Z=              0.0306  Tot=              0.5428
 Quadrupole moment (field-independent basis, Debye-Ang):
   XX=            -23.6837   YY=            -28.1114   ZZ=            -31.5808
   XY=              1.0201   XZ=             -0.1224   YZ=              0.0423

 Normal termination of Gaussian 09 at Tue Dec 15 16:18:02 2015.
