 Gaussian 09, Revision D.01,
 Gaussian 09:  ES64L-G09RevD.01 24-Apr-2013

 ------------------------------------------------------------
 #P AM1(Input,print) CIS(Singlets,NStates=15) pop(full) force
 ------------------------------------------------------------

 -----------------
 AM1-Reparam Input
 -----------------
 Symbolic Z-matrix:
 Charge =  0 Multiplicity = 1

                         Standard orientation:
 ---------------------------------------------------------------------
 Center     Atomic      Atomic             Coordinates (Angstroms)
 Number     Number       Type             X           Y           Z
 ---------------------------------------------------------------------
      1          6           0       -1.130919    0.287243   -0.029313
      2          6           0       -0.637332   -0.884118    0.006210
      3          8           0        0.735099   -0.927321   -0.005206
      4          6           0        1.033423    0.377811   -0.009964
      5          6           0       -0.047682    1.198774    0.038390
      6          1           0        0.041450    2.270713   -0.035986
      7          1           0        2.146735    0.537052   -0.008008
      8          1           0       -1.150029   -1.903191    0.061767
      9          1           0       -2.223890    0.635741   -0.008065
 ---------------------------------------------------------------------

 SCF Done:  E(RAM1) =   1.76797417488     A.U. after   14 cycles

 Excitation energies and oscillator strengths:

 Excited State   1:      Singlet-A      5.3870 eV  230.15 nm  f=0.3243  <S**2>=0.000
      13 -> 14         0.69191
 This state for optimization and/or second-order correction.
 Total Energy, E(CIS) =   1.96594381946
 Copying the excited state density for this state as the 1-particle RhoCI density.

 Excited State   2:      Singlet-A      5.7836 eV  214.37 nm  f=0.0009  <S**2>=0.000
      11 -> 15        -0.11757
      13 -> 15         0.62675
      13 -> 16        -0.24160
      13 -> 17        -0.13310

 Excited State   3:      Singlet-A      5.8281 eV  212.74 nm  f=0.0043  <S**2>=0.000
      11 -> 16         0.11192
      13 -> 15         0.24348
      13 -> 16         0.63481

 Excited State   4:      Singlet-A      7.0376 eV  176.17 nm  f=0.0012  <S**2>=0.000
      12 -> 14         0.68209
      13 -> 21         0.12385

 Excited State   5:      Singlet-A      7.2959 eV  169.94 nm  f=0.0127  <S**2>=0.000
      13 -> 15         0.14467
      13 -> 17         0.62934
      13 -> 18         0.13438
      13 -> 20        -0.10976
      13 -> 21         0.17539

 Excited State   6:      Singlet-A      7.6313 eV  162.47 nm  f=0.0059  <S**2>=0.000
      12 -> 14        -0.13873
      13 -> 17        -0.22312
      13 -> 19         0.14877
      13 -> 20        -0.37448
      13 -> 21         0.50005

 Excited State   7:      Singlet-A      8.1702 eV  151.75 nm  f=0.0004  <S**2>=0.000
      10 -> 14         0.59123
      13 -> 19         0.35783

 Excited State   8:      Singlet-A      8.1906 eV  151.37 nm  f=0.0122  <S**2>=0.000
      13 -> 17        -0.15934
      13 -> 18         0.65935

 Excited State   9:      Singlet-A      8.2897 eV  149.56 nm  f=0.0003  <S**2>=0.000
      10 -> 14        -0.34448
      13 -> 18        -0.16939
      13 -> 19         0.50463
      13 -> 20        -0.11588
      13 -> 21        -0.26729

 Excited State  10:      Singlet-A      8.6401 eV  143.50 nm  f=0.0329  <S**2>=0.000
       8 -> 16         0.14003
      11 -> 14         0.49087
      12 -> 15        -0.12340
      12 -> 16        -0.36922
      12 -> 17        -0.14057

 Excited State  11:      Singlet-A      8.8493 eV  140.11 nm  f=0.0802  <S**2>=0.000
      10 -> 14        -0.10434
      11 -> 14         0.16628
      12 -> 15        -0.16637
      12 -> 16         0.15711
      13 -> 19         0.21099
      13 -> 20         0.48421
      13 -> 21         0.28717

 Excited State  12:      Singlet-A      8.9554 eV  138.45 nm  f=0.1551  <S**2>=0.000
       8 -> 15        -0.12860
       9 -> 15        -0.17167
      11 -> 14         0.28100
      12 -> 15        -0.25871
      12 -> 16         0.38806
      13 -> 19        -0.12045
      13 -> 20        -0.26503
      13 -> 21        -0.14861

 Excited State  13:      Singlet-A      9.1986 eV  134.79 nm  f=0.0249  <S**2>=0.000
      11 -> 14         0.15890
      11 -> 15         0.59162
      12 -> 15         0.22428
      12 -> 16         0.11489
      13 -> 15         0.11244

 Excited State  14:      Singlet-A      9.3689 eV  132.34 nm  f=0.1310  <S**2>=0.000
       9 -> 15         0.10812
       9 -> 16        -0.10456
      10 -> 18        -0.10175
      11 -> 14         0.27150
      11 -> 15        -0.27290
      11 -> 16         0.18189
      12 -> 15         0.42518
      12 -> 16         0.22539

 Excited State  15:      Singlet-A      9.5472 eV  129.86 nm  f=0.0444  <S**2>=0.000
       7 -> 16        -0.10808
      11 -> 14        -0.11627
      11 -> 15         0.10924
      11 -> 16         0.61655
      12 -> 15        -0.11312
      12 -> 17        -0.10094
      13 -> 16        -0.11128

 The electronic state is 1-A.
 Alpha  occ. eigenvalues --   -1.91832  -1.23796  -0.98358  -0.81700  -0.79451
 Alpha  occ. eigenvalues --   -0.67939  -0.63881  -0.51247  -0.51107  -0.42133
 Alpha  occ. eigenvalues --   -0.41406  -0.38565  -0.26067
 Alpha virt. eigenvalues --    0.14640   0.17023   0.17388   0.25931   0.28138
 Alpha virt. eigenvalues --    0.29761   0.30465   0.31866   0.36946   0.46799
 Alpha virt. eigenvalues --    0.49798

 Mulliken charges:
               1
     1  C   -0.081214
     2  C   -1.880925
     3  O    3.153685
     4  C   -1.912013
     5  C   -0.178237
     6  H    0.173472
     7  H    0.278478
     8  H    0.289679
     9  H    0.157074
 Sum of Mulliken charges =   0.00000

 Dipole moment (field-independent basis, Debye):
    X=              6.7224    Y=             -9.0576    Z=             -0.0086  Tot=             11.2797
 N-N= 1.043330611906D+02 E-N=-1.702286764326D+02  KE=-1.575185224571D+01
 Orbital energies and kinetic energies (alpha):
                                 1                 2
   1         O                -1.918323         -1.391855
   2         O                -1.237958         -1.122117
   3         O                -0.983582         -0.918504
   4         O                -0.817001         -0.623701
   5         O                -0.794514         -0.678460
   6         O                -0.679387         -0.581359
   7         O                -0.638809         -0.525845

 Normal termination of Gaussian 09 at Tue Dec 15 17:06:51 2015.
