 Gaussian 09, Revision D.01,
 Gaussian 09:  ES64L-G09RevD.01 24-Apr-2013

 ------------------------------------------------------------
 #P AM1(Input,print) CIS(Singlets,NStates=15) pop(full) force
 ------------------------------------------------------------

 -----------------
 AM1-Reparam Input
 -----------------
 Symbolic Z-matrix:
 Charge =  0 Multiplicity = 1

                         Standard orientation:
 ---------------------------------------------------------------------
 Center     Atomic      Atomic             Coordinates (Angstroms)
 Number     Number       Type             X           Y           Z
 ---------------------------------------------------------------------
      1          6           0       -1.130919    0.287243   -0.029313
      2          6           0       -0.637332   -0.884118    0.006210
      3          8           0        0.735099   -0.927321   -0.005206
      4          6           0        1.033423    0.377811   -0.009964
      5          6           0       -0.047682    1.198774    0.038390
      6          1           0        0.041450    2.270713   -0.035986
      7          1           0        2.146735    0.537052   -0.008008
      8          1           0       -1.150029   -1.903191    0.061767
      9          1           0       -2.223890    0.635741   -0.008065
 ---------------------------------------------------------------------

 SCF Done:  E(RAM1) =   1.10716341109     A.U. after   13 cycles

 Excitation energies and oscillator strengths:

 Excited State   1:      Singlet-A      5.5936 eV  221.66 nm  f=0.2010  <S**2>=0.000
      12 -> 16        -0.11594
      13 -> 14         0.67895
 This state for optimization and/or second-order correction.
 Total Energy, E(CIS) =   1.31272278761
 Copying the excited state density for this state as the 1-particle RhoCI density.

 Excited State   2:      Singlet-A      6.4344 eV  192.69 nm  f=0.0013  <S**2>=0.000
      13 -> 15         0.56053
      13 -> 16        -0.31150
      13 -> 17         0.19910
      13 -> 18        -0.15433

 Excited State   3:      Singlet-A      6.6067 eV  187.66 nm  f=0.0029  <S**2>=0.000
      13 -> 15        -0.31559
      13 -> 16        -0.21057
      13 -> 17         0.55923
      13 -> 19         0.12062
      13 -> 21         0.11377

 Excited State   4:      Singlet-A      6.9338 eV  178.81 nm  f=0.0262  <S**2>=0.000
      12 -> 14         0.38294
      13 -> 15         0.15165
      13 -> 16         0.47657
      13 -> 17         0.29136

 Excited State   5:      Singlet-A      7.3465 eV  168.77 nm  f=0.0087  <S**2>=0.000
      11 -> 14         0.66551
      12 -> 14         0.14137
      13 -> 16        -0.10630

 Excited State   6:      Singlet-A      7.9963 eV  155.05 nm  f=0.0020  <S**2>=0.000
      10 -> 14         0.67812

 Excited State   7:      Singlet-A      8.1288 eV  152.52 nm  f=0.0278  <S**2>=0.000
      12 -> 14         0.18949
      13 -> 16        -0.12974
      13 -> 18         0.46747
      13 -> 19         0.37323
      13 -> 24         0.16276

 Excited State   8:      Singlet-A      8.1523 eV  152.09 nm  f=0.2030  <S**2>=0.000
      11 -> 14        -0.17909
      11 -> 18        -0.11727
      12 -> 14         0.51373
      13 -> 15        -0.15527
      13 -> 16        -0.25935
      13 -> 17        -0.10787
      13 -> 18        -0.17567
      13 -> 19        -0.13759

 Excited State   9:      Singlet-A      8.4885 eV  146.06 nm  f=0.0060  <S**2>=0.000
      12 -> 15         0.50350
      13 -> 18        -0.17594
      13 -> 19         0.34705
      13 -> 20         0.23215

 Excited State  10:      Singlet-A      8.6580 eV  143.20 nm  f=0.0015  <S**2>=0.000
      12 -> 15        -0.27744
      12 -> 16         0.20062
      12 -> 17        -0.29755
      13 -> 18        -0.10082
      13 -> 20         0.44194
      13 -> 21         0.18456
      13 -> 23         0.12203

 Excited State  11:      Singlet-A      8.7064 eV  142.41 nm  f=0.0675  <S**2>=0.000
       8 -> 17         0.10401
       9 -> 15         0.10699
      11 -> 15         0.15966
      11 -> 18        -0.10290
      12 -> 15         0.16233
      12 -> 16         0.55077
      13 -> 14         0.11338
      13 -> 20        -0.17844

 Excited State  12:      Singlet-A      8.8130 eV  140.68 nm  f=0.0288  <S**2>=0.000
      12 -> 17         0.45167
      13 -> 18         0.25211
      13 -> 19        -0.17593
      13 -> 20         0.35665

 Excited State  13:      Singlet-A      8.9847 eV  137.99 nm  f=0.0138  <S**2>=0.000
       9 -> 15        -0.12824
       9 -> 16        -0.22600
      10 -> 14        -0.11416
      10 -> 16        -0.17154
      11 -> 15         0.22858
      11 -> 16         0.46382
      11 -> 17         0.17631
      12 -> 17         0.11366

 Excited State  14:      Singlet-A      9.1423 eV  135.62 nm  f=0.0134  <S**2>=0.000
      11 -> 16        -0.14635
      12 -> 15        -0.26659
      12 -> 16         0.11326
      12 -> 17         0.28585
      13 -> 18        -0.22263
      13 -> 19         0.35183
      13 -> 21        -0.30321

 Excited State  15:      Singlet-A      9.2833 eV  133.56 nm  f=0.0032  <S**2>=0.000
      12 -> 15        -0.10979
      12 -> 17         0.18818
      13 -> 17        -0.10857
      13 -> 18        -0.20216
      13 -> 20        -0.20197
      13 -> 21         0.55843
      13 -> 22        -0.12468

 The electronic state is 1-A.
 Alpha  occ. eigenvalues --   -1.82941  -1.21430  -0.97780  -0.87379  -0.79641
 Alpha  occ. eigenvalues --   -0.73086  -0.72349  -0.57899  -0.55288  -0.50870
 Alpha  occ. eigenvalues --   -0.48739  -0.46729  -0.37118
 Alpha virt. eigenvalues --    0.05046   0.10050   0.10375   0.10796   0.18106
 Alpha virt. eigenvalues --    0.19423   0.21537   0.22285   0.27286   0.28174
 Alpha virt. eigenvalues --    0.29032

 Mulliken charges:
               1
     1  C   -0.113228
     2  C   -1.229085
     3  O    2.095675
     4  C   -1.219074
     5  C   -0.160540
     6  H    0.106644
     7  H    0.194955
     8  H    0.209516
     9  H    0.115137
 Sum of Mulliken charges =   0.00000

 Dipole moment (field-independent basis, Debye):
    X=              4.6206    Y=             -6.1953    Z=             -0.0040  Tot=              7.7286
 N-N= 1.047202131300D+02 E-N=-1.720119189749D+02  KE=-1.498915992524D+01
 Orbital energies and kinetic energies (alpha):
                                 1                 2
   1         O                -1.829406         -1.256871
   2         O                -1.214298         -0.992410
   3         O                -0.977803         -0.825672
   4         O                -0.873795         -0.614233
   5         O                -0.796413         -0.658363
   6         O                -0.730861         -0.582487
   7         O                -0.723495         -0.527229

 Normal termination of Gaussian 09 at Tue Dec 15 17:05:30 2015.
