 Gaussian 09, Revision D.01,
 Gaussian 09:  ES64L-G09RevD.01 24-Apr-2013

 ------------------------------------------------------------
 #P AM1(Input,print) CIS(Singlets,NStates=15) pop(full) force
 ------------------------------------------------------------

 -----------------
 AM1-Reparam Input
 -----------------
 Symbolic Z-matrix:
 Charge =  0 Multiplicity = 1

                         Standard orientation:
 ---------------------------------------------------------------------
 Center     Atomic      Atomic             Coordinates (Angstroms)
 Number     Number       Type             X           Y           Z
 ---------------------------------------------------------------------
      1          6           0       -0.409688    1.107866    0.020502
      2          6           0       -1.136864   -0.016702   -0.004374
      3          8           0       -0.361389   -1.094562    0.000825
      4          6           0        0.901189   -0.638383    0.008814
      5          6           0        1.003535    0.698559   -0.022100
      6          1           0        1.949464    1.271398    0.049859
      7          1           0        1.671334   -1.509186   -0.021189
      8          1           0       -2.193206   -0.109073   -0.007104
      9          1           0       -0.685512    2.195320   -0.045213
 ---------------------------------------------------------------------

 SCF Done:  E(RAM1) =   1.70854816959     A.U. after   14 cycles

 Excitation energies and oscillator strengths:

 Excited State   1:      Singlet-A      5.2251 eV  237.29 nm  f=0.3491  <S**2>=0.000
      13 -> 14         0.69512
 This state for optimization and/or second-order correction.
 Total Energy, E(CIS) =   1.90056759346
 Copying the excited state density for this state as the 1-particle RhoCI density.

 Excited State   2:      Singlet-A      5.7505 eV  215.61 nm  f=0.0008  <S**2>=0.000
      11 -> 15        -0.11975
      13 -> 15         0.67173
      13 -> 17         0.13683

 Excited State   3:      Singlet-A      6.2798 eV  197.43 nm  f=0.0040  <S**2>=0.000
      11 -> 16         0.10342
      13 -> 16         0.65902
      13 -> 17         0.10292
      13 -> 19        -0.15199
      13 -> 20         0.11197

 Excited State   4:      Singlet-A      6.7799 eV  182.87 nm  f=0.0002  <S**2>=0.000
      12 -> 14         0.68287
      13 -> 21         0.10678

 Excited State   5:      Singlet-A      7.1166 eV  174.22 nm  f=0.0049  <S**2>=0.000
      12 -> 14         0.14337
      13 -> 15        -0.12910
      13 -> 17         0.47102
      13 -> 19         0.23924
      13 -> 20        -0.21146
      13 -> 21        -0.35690

 Excited State   6:      Singlet-A      7.6354 eV  162.38 nm  f=0.0109  <S**2>=0.000
      13 -> 16        -0.13593
      13 -> 17         0.46994
      13 -> 18        -0.15709
      13 -> 19        -0.24389
      13 -> 20         0.14359
      13 -> 21         0.36552

 Excited State   7:      Singlet-A      8.1093 eV  152.89 nm  f=0.0049  <S**2>=0.000
      13 -> 16        -0.11057
      13 -> 17         0.10473
      13 -> 18         0.66596
      13 -> 20         0.13534

 Excited State   8:      Singlet-A      8.2130 eV  150.96 nm  f=0.0004  <S**2>=0.000
      10 -> 14         0.63703
      13 -> 20        -0.23952
      13 -> 21         0.10596

 Excited State   9:      Singlet-A      8.2802 eV  149.74 nm  f=0.0024  <S**2>=0.000
      10 -> 14         0.21758
      13 -> 18        -0.11459
      13 -> 19        -0.21336
      13 -> 20         0.44852
      13 -> 21        -0.41508

 Excited State  10:      Singlet-A      8.6020 eV  144.13 nm  f=0.0668  <S**2>=0.000
       8 -> 15         0.11509
      11 -> 14         0.62130
      12 -> 15        -0.24192

 Excited State  11:      Singlet-A      8.6736 eV  142.94 nm  f=0.0840  <S**2>=0.000
      10 -> 14         0.16708
      11 -> 14        -0.10970
      13 -> 19         0.52920
      13 -> 20         0.34515
      13 -> 21         0.19731

 Excited State  12:      Singlet-A      9.0104 eV  137.60 nm  f=0.1850  <S**2>=0.000
       8 -> 15        -0.19661
      10 -> 17        -0.14441
      11 -> 14         0.21161
      12 -> 15         0.50247
      12 -> 16        -0.21171
      12 -> 20        -0.12186
      12 -> 21        -0.13868

 Excited State  13:      Singlet-A      9.3291 eV  132.90 nm  f=0.0018  <S**2>=0.000
       7 -> 15         0.12700
      11 -> 15         0.65888
      13 -> 15         0.13988

 Excited State  14:      Singlet-A      9.5571 eV  129.73 nm  f=0.1717  <S**2>=0.000
       8 -> 16         0.10743
      10 -> 17         0.13316
      11 -> 14         0.20157
      12 -> 15         0.26874
      12 -> 16         0.42841
      12 -> 18         0.23776
      12 -> 19        -0.17180
      12 -> 21         0.16648

 Excited State  15:      Singlet-A      9.8359 eV  126.05 nm  f=0.0661  <S**2>=0.000
       8 -> 15         0.10479
      10 -> 16        -0.17713
      10 -> 17        -0.16290
      11 -> 16        -0.19993
      12 -> 16         0.38043
      12 -> 17         0.28243
      12 -> 21        -0.31923

 The electronic state is 1-A.
 Alpha  occ. eigenvalues --   -1.92402  -1.21283  -0.99319  -0.82158  -0.79253
 Alpha  occ. eigenvalues --   -0.68311  -0.63949  -0.53325  -0.51378  -0.44017
 Alpha  occ. eigenvalues --   -0.42359  -0.39515  -0.26877
 Alpha virt. eigenvalues --    0.12571   0.15966   0.18822   0.25319   0.26742
 Alpha virt. eigenvalues --    0.28406   0.28667   0.29692   0.38335   0.47364
 Alpha virt. eigenvalues --    0.51778

 Mulliken charges:
               1
     1  C   -0.148704
     2  C   -1.935100
     3  O    3.169372
     4  C   -1.914208
     5  C   -0.124847
     6  H    0.176308
     7  H    0.287112
     8  H    0.315801
     9  H    0.174267
 Sum of Mulliken charges =   0.00000

 Dipole moment (field-independent basis, Debye):
    X=             -3.0133    Y=             -9.8620    Z=             -0.0827  Tot=             10.3124
 N-N= 1.040534011205D+02 E-N=-1.696836869159D+02  KE=-1.572309797571D+01
 Orbital energies and kinetic energies (alpha):
                                 1                 2
   1         O                -1.924022         -1.404200
   2         O                -1.212835         -1.092325
   3         O                -0.993185         -0.909197
   4         O                -0.821584         -0.625844
   5         O                -0.792532         -0.699105
   6         O                -0.683107         -0.572171
   7         O                -0.639495         -0.515463

 Normal termination of Gaussian 09 at Tue Dec 15 17:07:06 2015.
