 Gaussian 09, Revision D.01,
 Gaussian 09:  ES64L-G09RevD.01 24-Apr-2013

 ------------------------------------------------------------
 #P AM1(Input,print) CIS(Singlets,NStates=15) pop(full) force
 ------------------------------------------------------------

 -----------------
 AM1-Reparam Input
 -----------------
 Symbolic Z-matrix:
 Charge =  0 Multiplicity = 1

                         Standard orientation:
 ---------------------------------------------------------------------
 Center     Atomic      Atomic             Coordinates (Angstroms)
 Number     Number       Type             X           Y           Z
 ---------------------------------------------------------------------
      1          6           0        0.962296    0.749562    0.007155
      2          6           0        0.974707   -0.643081   -0.023719
      3          8           0       -0.345927   -1.140192    0.028641
      4          6           0       -1.173187   -0.023624   -0.018379
      5          6           0       -0.399275    1.114596   -0.003523
      6          1           0       -0.804527    2.105082    0.016803
      7          1           0       -2.203463   -0.163177   -0.018833
      8          1           0        1.747143   -1.331401   -0.043330
      9          1           0        1.841019    1.326315    0.047029
 ---------------------------------------------------------------------

 SCF Done:  E(RAM1) =   2.60040768998     A.U. after   13 cycles

 Excitation energies and oscillator strengths:

 Excited State   1:      Singlet-A      5.1972 eV  238.56 nm  f=0.3508  <S**2>=0.000
      13 -> 14         0.69796
 This state for optimization and/or second-order correction.
 Total Energy, E(CIS) =   2.79140014501
 Copying the excited state density for this state as the 1-particle RhoCI density.

 Excited State   2:      Singlet-A      6.5335 eV  189.77 nm  f=0.0002  <S**2>=0.000
      13 -> 15         0.60478
      13 -> 16        -0.28199
      13 -> 17         0.12102
      13 -> 19        -0.13699

 Excited State   3:      Singlet-A      6.6851 eV  185.46 nm  f=0.0057  <S**2>=0.000
      12 -> 14         0.26435
      13 -> 15         0.24781
      13 -> 16         0.57991

 Excited State   4:      Singlet-A      6.7754 eV  182.99 nm  f=0.0003  <S**2>=0.000
      10 -> 14         0.10310
      12 -> 14         0.64062
      13 -> 15        -0.15906
      13 -> 16        -0.20222

 Excited State   5:      Singlet-A      7.3786 eV  168.03 nm  f=0.0036  <S**2>=0.000
      10 -> 14         0.63610
      11 -> 14        -0.27473

 Excited State   6:      Singlet-A      8.1149 eV  152.79 nm  f=0.0000  <S**2>=0.000
      13 -> 17         0.67135
      13 -> 21        -0.12563

 Excited State   7:      Singlet-A      8.3889 eV  147.79 nm  f=0.1259  <S**2>=0.000
      10 -> 14         0.27294
      11 -> 14         0.64465

 Excited State   8:      Singlet-A      9.4468 eV  131.24 nm  f=0.0070  <S**2>=0.000
       7 -> 16        -0.11751
      11 -> 15         0.35222
      11 -> 16        -0.14728
      13 -> 18         0.55080

 Excited State   9:      Singlet-A      9.4700 eV  130.92 nm  f=0.0157  <S**2>=0.000
       8 -> 16        -0.10029
       9 -> 15        -0.13080
      10 -> 15        -0.24837
      10 -> 16        -0.24857
      10 -> 18         0.17986
      11 -> 16         0.10459
      12 -> 15        -0.16673
      12 -> 16         0.32704
      12 -> 17        -0.32287

 Excited State  10:      Singlet-A      9.6723 eV  128.18 nm  f=0.0042  <S**2>=0.000
       7 -> 15        -0.12348
      11 -> 15         0.14403
      11 -> 16         0.39565
      13 -> 17         0.10313
      13 -> 19         0.51862

 Excited State  11:      Singlet-A      9.8364 eV  126.05 nm  f=0.2141  <S**2>=0.000
      10 -> 15        -0.14812
      11 -> 15         0.10963
      12 -> 15         0.62972
      12 -> 18        -0.11991
      12 -> 19        -0.12909

 Excited State  12:      Singlet-A     10.1442 eV  122.22 nm  f=0.1705  <S**2>=0.000
      10 -> 15        -0.21533
      10 -> 16         0.48292
      10 -> 19         0.13640
      11 -> 16        -0.19829
      12 -> 16         0.31155
      13 -> 19         0.10741

 Excited State  13:      Singlet-A     10.3725 eV  119.53 nm  f=0.0004  <S**2>=0.000
       9 -> 14        -0.14065
      10 -> 15         0.12749
      10 -> 16         0.13850
      11 -> 15         0.41318
      11 -> 16         0.23185
      13 -> 15        -0.17265
      13 -> 18        -0.21679
      13 -> 19        -0.33342

 Excited State  14:      Singlet-A     10.4653 eV  118.47 nm  f=0.0030  <S**2>=0.000
       8 -> 15        -0.10546
       9 -> 16        -0.11255
      10 -> 15        -0.23338
      10 -> 16         0.20053
      10 -> 17         0.11624
      10 -> 19         0.11264
      11 -> 15        -0.19559
      11 -> 16         0.24014
      12 -> 16        -0.19720
      12 -> 17        -0.19085
      13 -> 16         0.11985
      13 -> 18         0.28504
      13 -> 19        -0.17821

 Excited State  15:      Singlet-A     10.5316 eV  117.73 nm  f=0.0057  <S**2>=0.000
       8 -> 15         0.12946
       8 -> 16        -0.14003
       9 -> 14        -0.11266
       9 -> 16         0.13951
      10 -> 17        -0.14067
      11 -> 15        -0.20320
      11 -> 16         0.27016
      12 -> 16         0.30514
      12 -> 17         0.24630
      13 -> 18         0.18122
      13 -> 19        -0.14278

 The electronic state is 1-A.
 Alpha  occ. eigenvalues --   -1.82828  -1.11680  -0.87017  -0.78373  -0.75309
 Alpha  occ. eigenvalues --   -0.67145  -0.61702  -0.55498  -0.55026  -0.44505
 Alpha  occ. eigenvalues --   -0.43919  -0.42832  -0.30195
 Alpha virt. eigenvalues --    0.09179   0.17999   0.18416   0.26030   0.28705
 Alpha virt. eigenvalues --    0.30367   0.36062   0.40404   0.46112   0.53908
 Alpha virt. eigenvalues --    0.57650

 Mulliken charges:
               1
     1  C   -0.154052
     2  C   -2.003561
     3  O    3.445946
     4  C   -2.006633
     5  C   -0.184120
     6  H    0.190918
     7  H    0.268040
     8  H    0.260759
     9  H    0.182704
 Sum of Mulliken charges =   0.00000

 Dipole moment (field-independent basis, Debye):
    X=             -3.4702    Y=            -11.2154    Z=              0.7417  Tot=             11.7634
 N-N= 1.033714922727D+02 E-N=-1.684883994119D+02  KE=-1.433324119974D+01
 Orbital energies and kinetic energies (alpha):
                                 1                 2
   1         O                -1.828275         -1.206349
   2         O                -1.116799         -0.969726
   3         O                -0.870166         -0.809629
   4         O                -0.783725         -0.522137
   5         O                -0.753092         -0.626333
   6         O                -0.671446         -0.556233
   7         O                -0.617020         -0.489076

 Normal termination of Gaussian 09 at Tue Dec 15 17:07:47 2015.
