 Gaussian 09, Revision D.01,
 Gaussian 09:  ES64L-G09RevD.01 24-Apr-2013

 ------------------------------------------------------------
 #P AM1(Input,print) CIS(Singlets,NStates=15) pop(full) force
 ------------------------------------------------------------

 -----------------
 AM1-Reparam Input
 -----------------
 Symbolic Z-matrix:
 Charge =  0 Multiplicity = 1

                         Standard orientation:
 ---------------------------------------------------------------------
 Center     Atomic      Atomic             Coordinates (Angstroms)
 Number     Number       Type             X           Y           Z
 ---------------------------------------------------------------------
      1          6           0        0.699464    0.957538   -0.011056
      2          6           0        1.134713   -0.301575   -0.003416
      3          8           0        0.025016   -1.146156   -0.012566
      4          6           0       -1.088091   -0.362235    0.026599
      5          6           0       -0.773046    0.941971    0.004832
      6          1           0       -1.398015    1.705741   -0.031000
      7          1           0       -2.025956   -0.964620   -0.042853
      8          1           0        2.075277   -0.823505    0.056105
      9          1           0        1.310319    1.837434    0.016522
 ---------------------------------------------------------------------

 SCF Done:  E(RAM1) =   1.73411551364     A.U. after   14 cycles

 Excitation energies and oscillator strengths:

 Excited State   1:      Singlet-A      5.1259 eV  241.88 nm  f=0.3498  <S**2>=0.000
      13 -> 14         0.69508
 This state for optimization and/or second-order correction.
 Total Energy, E(CIS) =   1.92249024146
 Copying the excited state density for this state as the 1-particle RhoCI density.

 Excited State   2:      Singlet-A      5.8609 eV  211.54 nm  f=0.0013  <S**2>=0.000
      11 -> 15         0.11423
      13 -> 15         0.66372
      13 -> 17         0.15197
      13 -> 19        -0.11559

 Excited State   3:      Singlet-A      6.3046 eV  196.66 nm  f=0.0021  <S**2>=0.000
      11 -> 16        -0.11178
      13 -> 16         0.64254
      13 -> 17         0.12673
      13 -> 18         0.11881
      13 -> 19         0.18567

 Excited State   4:      Singlet-A      6.8731 eV  180.39 nm  f=0.0003  <S**2>=0.000
      12 -> 14         0.66385
      13 -> 19        -0.18578

 Excited State   5:      Singlet-A      7.1277 eV  173.95 nm  f=0.0033  <S**2>=0.000
      12 -> 14         0.21324
      13 -> 15         0.12499
      13 -> 16        -0.10048
      13 -> 17        -0.26810
      13 -> 19         0.53590
      13 -> 20         0.23838

 Excited State   6:      Singlet-A      7.4876 eV  165.59 nm  f=0.0282  <S**2>=0.000
      13 -> 15        -0.11232
      13 -> 16        -0.15683
      13 -> 17         0.61318
      13 -> 19         0.22423
      13 -> 20         0.11505

 Excited State   7:      Singlet-A      8.1258 eV  152.58 nm  f=0.0005  <S**2>=0.000
      10 -> 14         0.17498
      13 -> 16        -0.12914
      13 -> 18         0.55922
      13 -> 19         0.14541
      13 -> 20        -0.31648

 Excited State   8:      Singlet-A      8.2352 eV  150.55 nm  f=0.0010  <S**2>=0.000
      10 -> 14         0.66845
      13 -> 18        -0.17727

 Excited State   9:      Singlet-A      8.5762 eV  144.57 nm  f=0.0140  <S**2>=0.000
      13 -> 18         0.35638
      13 -> 19        -0.22063
      13 -> 20         0.52804
      13 -> 21        -0.18514

 Excited State  10:      Singlet-A      8.6509 eV  143.32 nm  f=0.0735  <S**2>=0.000
      11 -> 14         0.66193
      12 -> 15        -0.12384

 Excited State  11:      Singlet-A      9.0498 eV  137.00 nm  f=0.0704  <S**2>=0.000
      10 -> 14         0.10006
      13 -> 20         0.19816
      13 -> 21         0.66306

 Excited State  12:      Singlet-A      9.1951 eV  134.84 nm  f=0.1363  <S**2>=0.000
       8 -> 15         0.15280
      10 -> 17        -0.16180
      12 -> 15         0.45079
      12 -> 16        -0.28126
      12 -> 17         0.10189
      12 -> 19        -0.26660
      12 -> 20        -0.13039

 Excited State  13:      Singlet-A      9.6376 eV  128.65 nm  f=0.0041  <S**2>=0.000
       7 -> 15        -0.14280
      11 -> 15         0.64309
      11 -> 17         0.11554
      13 -> 15        -0.13532

 Excited State  14:      Singlet-A      9.7403 eV  127.29 nm  f=0.1612  <S**2>=0.000
       8 -> 15         0.12657
      10 -> 15         0.12956
      10 -> 17         0.11839
      11 -> 14         0.19617
      11 -> 15        -0.10002
      12 -> 15         0.40577
      12 -> 16         0.34627
      12 -> 19         0.16021
      12 -> 20         0.22290

 Excited State  15:      Singlet-A      9.9771 eV  124.27 nm  f=0.1126  <S**2>=0.000
       9 -> 16        -0.11157
      10 -> 16        -0.16654
      10 -> 17        -0.17906
      11 -> 16         0.10442
      12 -> 16         0.44274
      12 -> 17         0.21812
      12 -> 19        -0.23642
      12 -> 20        -0.21255

 The electronic state is 1-A.
 Alpha  occ. eigenvalues --   -1.91098  -1.21803  -1.00009  -0.82939  -0.80404
 Alpha  occ. eigenvalues --   -0.68848  -0.63023  -0.54385  -0.52013  -0.44483
 Alpha  occ. eigenvalues --   -0.42719  -0.40090  -0.26753
 Alpha virt. eigenvalues --    0.12263   0.16785   0.18805   0.25396   0.28121
 Alpha virt. eigenvalues --    0.28320   0.29055   0.30678   0.35236   0.44164
 Alpha virt. eigenvalues --    0.48955

 Mulliken charges:
               1
     1  C   -0.129274
     2  C   -1.903379
     3  O    3.180266
     4  C   -1.914752
     5  C   -0.169248
     6  H    0.182700
     7  H    0.289319
     8  H    0.287975
     9  H    0.176393
 Sum of Mulliken charges =   0.00000

 Dipole moment (field-independent basis, Debye):
    X=              0.0958    Y=            -10.8608    Z=             -0.3476  Tot=             10.8668
 N-N= 1.038653692325D+02 E-N=-1.691575713817D+02  KE=-1.573359384832D+01
 Orbital energies and kinetic energies (alpha):
                                 1                 2
   1         O                -1.910980         -1.367102
   2         O                -1.218027         -1.097532
   3         O                -1.000087         -0.921448
   4         O                -0.829393         -0.640190
   5         O                -0.804039         -0.699504
   6         O                -0.688484         -0.587021
   7         O                -0.630230         -0.509528

 Normal termination of Gaussian 09 at Tue Dec 15 17:07:05 2015.
