 Gaussian 09, Revision D.01,
 Gaussian 09:  ES64L-G09RevD.01 24-Apr-2013

 ------------------------------------------------------------
 #P AM1(Input,print) CIS(Singlets,NStates=15) pop(full) force
 ------------------------------------------------------------

 -----------------
 AM1-Reparam Input
 -----------------
 Symbolic Z-matrix:
 Charge =  0 Multiplicity = 1

                         Standard orientation:
 ---------------------------------------------------------------------
 Center     Atomic      Atomic             Coordinates (Angstroms)
 Number     Number       Type             X           Y           Z
 ---------------------------------------------------------------------
      1          6           0        0.699464    0.957538   -0.011056
      2          6           0        1.134713   -0.301575   -0.003416
      3          8           0        0.025016   -1.146156   -0.012566
      4          6           0       -1.088091   -0.362235    0.026599
      5          6           0       -0.773046    0.941971    0.004832
      6          1           0       -1.398015    1.705741   -0.031000
      7          1           0       -2.025956   -0.964620   -0.042853
      8          1           0        2.075277   -0.823505    0.056105
      9          1           0        1.310319    1.837434    0.016522
 ---------------------------------------------------------------------

 SCF Done:  E(RAM1) =   1.13150776202     A.U. after   14 cycles

 Excitation energies and oscillator strengths:

 Excited State   1:      Singlet-A      5.3106 eV  233.47 nm  f=0.2122  <S**2>=0.000
      12 -> 15         0.13728
      13 -> 14         0.68158
 This state for optimization and/or second-order correction.
 Total Energy, E(CIS) =   1.32666887050
 Copying the excited state density for this state as the 1-particle RhoCI density.

 Excited State   2:      Singlet-A      6.2760 eV  197.55 nm  f=0.0033  <S**2>=0.000
      13 -> 16         0.64533
      13 -> 17         0.18424
      13 -> 18         0.15661
      13 -> 19         0.11904

 Excited State   3:      Singlet-A      6.5806 eV  188.41 nm  f=0.0229  <S**2>=0.000
      12 -> 14        -0.24158
      13 -> 15         0.53663
      13 -> 17        -0.33547

 Excited State   4:      Singlet-A      6.7103 eV  184.77 nm  f=0.0116  <S**2>=0.000
      12 -> 14        -0.20433
      13 -> 15         0.31019
      13 -> 16        -0.15306
      13 -> 17         0.53858
      13 -> 19         0.12537

 Excited State   5:      Singlet-A      7.1501 eV  173.40 nm  f=0.0004  <S**2>=0.000
       9 -> 14         0.14083
      11 -> 14         0.68766

 Excited State   6:      Singlet-A      7.9293 eV  156.36 nm  f=0.0616  <S**2>=0.000
      10 -> 14         0.14396
      12 -> 14        -0.32189
      13 -> 15        -0.15896
      13 -> 18         0.44260
      13 -> 19        -0.27899
      13 -> 23        -0.11697

 Excited State   7:      Singlet-A      7.9681 eV  155.60 nm  f=0.1692  <S**2>=0.000
      12 -> 14         0.49559
      13 -> 15         0.22262
      13 -> 17         0.11013
      13 -> 18         0.30097
      13 -> 19        -0.17029

 Excited State   8:      Singlet-A      8.0098 eV  154.79 nm  f=0.0223  <S**2>=0.000
       9 -> 15         0.12220
      10 -> 14         0.54890
      11 -> 15        -0.30883
      12 -> 14         0.16543
      13 -> 20        -0.15752

 Excited State   9:      Singlet-A      8.2055 eV  151.10 nm  f=0.0007  <S**2>=0.000
      10 -> 14         0.11255
      11 -> 15        -0.11086
      13 -> 16        -0.10333
      13 -> 18         0.14032
      13 -> 19         0.45273
      13 -> 20         0.44431

 Excited State  10:      Singlet-A      8.4165 eV  147.31 nm  f=0.0181  <S**2>=0.000
       9 -> 15        -0.17971
      10 -> 14         0.38141
      11 -> 15         0.53899

 Excited State  11:      Singlet-A      8.7113 eV  142.33 nm  f=0.1480  <S**2>=0.000
       9 -> 16         0.10060
      12 -> 15         0.58622
      12 -> 16        -0.20443
      12 -> 17        -0.14161
      13 -> 14        -0.11884

 Excited State  12:      Singlet-A      8.7282 eV  142.05 nm  f=0.0175  <S**2>=0.000
      12 -> 15         0.20807
      12 -> 16         0.58244
      12 -> 17         0.14866
      12 -> 19         0.10274
      13 -> 19        -0.10097
      13 -> 20         0.15849
      13 -> 21        -0.10682

 Excited State  13:      Singlet-A      8.9187 eV  139.02 nm  f=0.0151  <S**2>=0.000
      12 -> 15         0.11060
      12 -> 17         0.44135
      13 -> 18         0.26864
      13 -> 19         0.22006
      13 -> 20        -0.36121

 Excited State  14:      Singlet-A      9.2632 eV  133.85 nm  f=0.0013  <S**2>=0.000
       9 -> 14        -0.17464
      12 -> 16         0.14344
      12 -> 17        -0.20250
      13 -> 21         0.59317
      13 -> 22        -0.12157

 Excited State  15:      Singlet-A      9.3455 eV  132.67 nm  f=0.0688  <S**2>=0.000
       9 -> 14         0.14648
       9 -> 16        -0.16497
       9 -> 17        -0.14850
      10 -> 16         0.16706
      10 -> 17        -0.12000
      11 -> 16         0.47238
      11 -> 17         0.26336
      11 -> 18         0.14939
      11 -> 19         0.10383

 The electronic state is 1-A.
 Alpha  occ. eigenvalues --   -1.81580  -1.18929  -0.99240  -0.88061  -0.80345
 Alpha  occ. eigenvalues --   -0.74097  -0.71177  -0.60799  -0.56130  -0.52946
 Alpha  occ. eigenvalues --   -0.49247  -0.47689  -0.37333
 Alpha virt. eigenvalues --    0.03221   0.08801   0.09776   0.11311   0.18046
 Alpha virt. eigenvalues --    0.18691   0.20237   0.21720   0.26610   0.27235
 Alpha virt. eigenvalues --    0.28051

 Mulliken charges:
               1
     1  C   -0.132286
     2  C   -1.213065
     3  O    2.110787
     4  C   -1.216840
     5  C   -0.144575
     6  H    0.096376
     7  H    0.200000
     8  H    0.189232
     9  H    0.110370
 Sum of Mulliken charges =   0.00000

 Dipole moment (field-independent basis, Debye):
    X=              0.0306    Y=             -7.5459    Z=             -0.2192  Tot=              7.5491
 N-N= 1.042531579206D+02 E-N=-1.709293084056D+02  KE=-1.496251915550D+01
 Orbital energies and kinetic energies (alpha):
                                 1                 2
   1         O                -1.815796         -1.229551
   2         O                -1.189285         -0.968684
   3         O                -0.992398         -0.823921
   4         O                -0.880610         -0.632804
   5         O                -0.803454         -0.668896
   6         O                -0.740975         -0.599131
   7         O                -0.711771         -0.509795

 Normal termination of Gaussian 09 at Tue Dec 15 17:05:44 2015.
