 Gaussian 09, Revision D.01,
 Gaussian 09:  ES64L-G09RevD.01 24-Apr-2013

 ------------------------------------------------------------
 #P AM1(Input,print) CIS(Singlets,NStates=15) pop(full) force
 ------------------------------------------------------------

 -----------------
 AM1-Reparam Input
 -----------------
 Symbolic Z-matrix:
 Charge =  0 Multiplicity = 1

                         Standard orientation:
 ---------------------------------------------------------------------
 Center     Atomic      Atomic             Coordinates (Angstroms)
 Number     Number       Type             X           Y           Z
 ---------------------------------------------------------------------
      1          6           0        0.906798    0.776835   -0.013504
      2          6           0        1.034385   -0.574751    0.020855
      3          8           0       -0.305036   -1.109669   -0.002194
      4          6           0       -1.147473   -0.105361   -0.002074
      5          6           0       -0.458687    1.060529   -0.015200
      6          1           0       -0.909003    2.133576    0.071905
      7          1           0       -2.221451   -0.316488    0.014679
      8          1           0        1.834847   -1.276483   -0.028184
      9          1           0        1.725766    1.393239    0.018693
 ---------------------------------------------------------------------

 SCF Done:  E(RAM1) =  -4.66386960920     A.U. after   15 cycles

 Excitation energies and oscillator strengths:

 Excited State   1:      Singlet-A      6.7550 eV  183.54 nm  f=0.0032  <S**2>=0.000
      13 -> 14         0.11002
      13 -> 15        -0.41060
      13 -> 16         0.55628
 This state for optimization and/or second-order correction.
 Total Energy, E(CIS) =  -4.41562613020
 Copying the excited state density for this state as the 1-particle RhoCI density.

 Excited State   2:      Singlet-A      7.1537 eV  173.31 nm  f=0.1453  <S**2>=0.000
      12 -> 15         0.10335
      13 -> 14         0.65288
      13 -> 16        -0.14590

 Excited State   3:      Singlet-A      7.6930 eV  161.17 nm  f=0.1080  <S**2>=0.000
      11 -> 14        -0.17383
      12 -> 14        -0.11364
      13 -> 14         0.10569
      13 -> 15         0.53631
      13 -> 16         0.37728

 Excited State   4:      Singlet-A      8.6884 eV  142.70 nm  f=0.0037  <S**2>=0.000
       9 -> 14        -0.16528
      11 -> 14        -0.35372
      11 -> 15         0.10112
      12 -> 14         0.54242

 Excited State   5:      Singlet-A      8.9270 eV  138.89 nm  f=0.0017  <S**2>=0.000
      10 -> 14         0.13138
      11 -> 16         0.11169
      13 -> 17         0.65356

 Excited State   6:      Singlet-A      9.0869 eV  136.44 nm  f=0.0022  <S**2>=0.000
       9 -> 14        -0.19752
      10 -> 14         0.59151
      11 -> 14        -0.11412
      11 -> 15         0.10556
      11 -> 16        -0.16520
      12 -> 15         0.13424
      12 -> 16        -0.14585

 Excited State   7:      Singlet-A      9.1921 eV  134.88 nm  f=0.0039  <S**2>=0.000
      10 -> 14         0.24379
      11 -> 15        -0.26919
      11 -> 16         0.35654
      12 -> 15        -0.25825
      12 -> 16         0.32854
      13 -> 17        -0.19728

 Excited State   8:      Singlet-A      9.7503 eV  127.16 nm  f=0.0191  <S**2>=0.000
      10 -> 14         0.10174
      10 -> 15        -0.10695
      10 -> 16         0.13394
      11 -> 14         0.43233
      11 -> 16        -0.27805
      12 -> 14         0.29546
      12 -> 15        -0.21378
      13 -> 15         0.10085

 Excited State   9:      Singlet-A      9.8809 eV  125.48 nm  f=0.2613  <S**2>=0.000
       8 -> 16         0.11223
       9 -> 17        -0.12869
      10 -> 16         0.12705
      11 -> 14         0.18038
      11 -> 15         0.22580
      11 -> 16         0.31707
      12 -> 14         0.14438
      12 -> 15         0.41127
      12 -> 16         0.10677
      13 -> 14        -0.12300

 Excited State  10:      Singlet-A     10.1208 eV  122.50 nm  f=0.0769  <S**2>=0.000
      10 -> 15         0.13214
      10 -> 16        -0.11105
      11 -> 14        -0.12026
      11 -> 15         0.14558
      11 -> 16        -0.18844
      12 -> 16         0.40902
      13 -> 18         0.40517

 Excited State  11:      Singlet-A     10.1986 eV  121.57 nm  f=0.0032  <S**2>=0.000
      10 -> 15        -0.12249
      11 -> 15         0.23498
      11 -> 16         0.24742
      12 -> 14        -0.10885
      12 -> 15        -0.27315
      12 -> 16        -0.27926
      13 -> 18         0.39892

 Excited State  12:      Singlet-A     10.2192 eV  121.32 nm  f=0.0407  <S**2>=0.000
      10 -> 16        -0.16381
      11 -> 15         0.46078
      12 -> 15        -0.20119
      12 -> 16         0.19144
      13 -> 18        -0.34712

 Excited State  13:      Singlet-A     10.6609 eV  116.30 nm  f=0.0364  <S**2>=0.000
       9 -> 14         0.48221
       9 -> 15        -0.10718
      10 -> 14         0.14729
      10 -> 15         0.38607
      12 -> 14         0.15673

 Excited State  14:      Singlet-A     10.7636 eV  115.19 nm  f=0.1915  <S**2>=0.000
       9 -> 14         0.20880
       9 -> 15         0.10600
       9 -> 16        -0.22273
      10 -> 15        -0.14104
      10 -> 16         0.42233
      11 -> 14        -0.21173
      12 -> 18         0.11758
      12 -> 19         0.10410

 Excited State  15:      Singlet-A     10.9316 eV  113.42 nm  f=0.0103  <S**2>=0.000
      10 -> 16         0.12745
      11 -> 17         0.23856
      12 -> 17         0.20317
      13 -> 19         0.58050

 The electronic state is 1-A.
 Alpha  occ. eigenvalues --   -3.63167  -1.24716  -0.96924  -0.89975  -0.87232
 Alpha  occ. eigenvalues --   -0.81327  -0.78831  -0.67759  -0.60086  -0.57194
 Alpha  occ. eigenvalues --   -0.55444  -0.54742  -0.45130
 Alpha virt. eigenvalues --    0.04545   0.05361   0.05902   0.11843   0.17287
 Alpha virt. eigenvalues --    0.20701   0.24394   0.25264   0.33626   0.37039
 Alpha virt. eigenvalues --    0.37910

 Mulliken charges:
               1
     1  C   -0.013237
     2  C   -0.909644
     3  O    1.954185
     4  C   -0.939901
     5  C   -0.114694
     6  H    0.010978
     7  H    0.027277
     8  H   -0.007659
     9  H   -0.007305
 Sum of Mulliken charges =   0.00000

 Dipole moment (field-independent basis, Debye):
    X=             -2.2937    Y=             -6.7923    Z=             -0.0761  Tot=              7.1695
 N-N= 1.053617500718D+02 E-N=-1.737918297780D+02  KE=-2.100882209570D+01
 Orbital energies and kinetic energies (alpha):
                                 1                 2
   1         O                -3.631673         -3.043755
   2         O                -1.247158         -1.030945
   3         O                -0.969239         -0.699158
   4         O                -0.899752         -0.702889
   5         O                -0.872322         -0.811153
   6         O                -0.813272         -0.820906
   7         O                -0.788310         -0.579947

 Normal termination of Gaussian 09 at Fri Dec 11 13:41:33 2015.
