 Gaussian 09, Revision D.01,
 Gaussian 09:  ES64L-G09RevD.01 24-Apr-2013

 ------------------------------------------------------------
 #P AM1(Input,print) CIS(Singlets,NStates=15) pop(full) force
 ------------------------------------------------------------

 -----------------
 AM1-Reparam Input
 -----------------
 Symbolic Z-matrix:
 Charge =  0 Multiplicity = 1

                         Standard orientation:
 ---------------------------------------------------------------------
 Center     Atomic      Atomic             Coordinates (Angstroms)
 Number     Number       Type             X           Y           Z
 ---------------------------------------------------------------------
      1          6           0       -0.281351    1.148219   -0.011564
      2          6           0       -1.110725    0.093769    0.001486
      3          8           0       -0.445888   -1.085625   -0.008252
      4          6           0        0.885337   -0.704822   -0.005958
      5          6           0        1.004143    0.621537    0.018903
      6          1           0        1.947620    1.175873   -0.023501
      7          1           0        1.577096   -1.497072    0.026344
      8          1           0       -2.272191   -0.085348    0.053848
      9          1           0       -0.669843    2.139323   -0.007879
 ---------------------------------------------------------------------

 SCF Done:  E(RAM1) =   1.41373408550     A.U. after   13 cycles

 Excitation energies and oscillator strengths:

 Excited State   1:      Singlet-A      5.8432 eV  212.18 nm  f=0.0058  <S**2>=0.000
      12 -> 15        -0.13683
      13 -> 14         0.30896
      13 -> 15         0.60166
      13 -> 17        -0.10049
 This state for optimization and/or second-order correction.
 Total Energy, E(CIS) =   1.62846841882
 Copying the excited state density for this state as the 1-particle RhoCI density.

 Excited State   2:      Singlet-A      6.1570 eV  201.37 nm  f=0.2869  <S**2>=0.000
      13 -> 14         0.61742
      13 -> 15        -0.31157

 Excited State   3:      Singlet-A      6.5812 eV  188.39 nm  f=0.0002  <S**2>=0.000
      12 -> 16         0.14657
      13 -> 16         0.66028
      13 -> 17        -0.12653
      13 -> 21         0.11185

 Excited State   4:      Singlet-A      7.5855 eV  163.45 nm  f=0.0109  <S**2>=0.000
      13 -> 16         0.10931
      13 -> 17         0.66876

 Excited State   5:      Singlet-A      7.7534 eV  159.91 nm  f=0.0003  <S**2>=0.000
      11 -> 14         0.64193
      11 -> 15        -0.21437
      12 -> 14         0.10865
      13 -> 22        -0.12782

 Excited State   6:      Singlet-A      8.2117 eV  150.98 nm  f=0.0004  <S**2>=0.000
      12 -> 15        -0.18048
      13 -> 19        -0.46253
      13 -> 22         0.46278

 Excited State   7:      Singlet-A      8.3383 eV  148.69 nm  f=0.0011  <S**2>=0.000
      10 -> 14         0.64485
      10 -> 15        -0.21368

 Excited State   8:      Singlet-A      8.4025 eV  147.56 nm  f=0.0006  <S**2>=0.000
      10 -> 14        -0.11340
      11 -> 15         0.10098
      12 -> 14         0.48824
      13 -> 18         0.46331

 Excited State   9:      Singlet-A      8.5736 eV  144.61 nm  f=0.0056  <S**2>=0.000
      12 -> 14         0.14803
      12 -> 15         0.53012
      13 -> 15         0.11155
      13 -> 19        -0.31221
      13 -> 20         0.18309
      13 -> 21        -0.11164

 Excited State  10:      Singlet-A      8.8033 eV  140.84 nm  f=0.0018  <S**2>=0.000
      12 -> 15         0.27474
      12 -> 16        -0.10415
      13 -> 15         0.11377
      13 -> 19         0.19582
      13 -> 20        -0.37049
      13 -> 21         0.38730
      13 -> 22         0.20889

 Excited State  11:      Singlet-A      9.0048 eV  137.69 nm  f=0.0016  <S**2>=0.000
      13 -> 19         0.37043
      13 -> 20         0.34081
      13 -> 21        -0.17572
      13 -> 22         0.42719

 Excited State  12:      Singlet-A      9.2514 eV  134.02 nm  f=0.1227  <S**2>=0.000
       8 -> 15        -0.12359
      10 -> 15        -0.12801
      11 -> 15        -0.27616
      12 -> 14        -0.33833
      12 -> 15         0.16144
      12 -> 16         0.10639
      13 -> 18         0.44780

 Excited State  13:      Singlet-A      9.2767 eV  133.65 nm  f=0.0503  <S**2>=0.000
      12 -> 16        -0.37641
      13 -> 20         0.35023
      13 -> 21         0.39792
      13 -> 22        -0.13540
      13 -> 23         0.11700

 Excited State  14:      Singlet-A      9.3934 eV  131.99 nm  f=0.2457  <S**2>=0.000
       8 -> 15         0.19960
       9 -> 15         0.14070
      10 -> 17         0.13368
      11 -> 14         0.18450
      11 -> 15         0.45059
      11 -> 16        -0.17850
      12 -> 14        -0.22953
      13 -> 18         0.18251

 Excited State  15:      Singlet-A      9.5811 eV  129.40 nm  f=0.0143  <S**2>=0.000
      12 -> 16         0.49468
      13 -> 16        -0.16724
      13 -> 20         0.24785
      13 -> 21         0.34421

 The electronic state is 1-A.
 Alpha  occ. eigenvalues --   -1.89216  -1.20924  -0.95232  -0.78814  -0.77322
 Alpha  occ. eigenvalues --   -0.67178  -0.62347  -0.48274  -0.48024  -0.39185
 Alpha  occ. eigenvalues --   -0.37706  -0.36444  -0.24503
 Alpha virt. eigenvalues --    0.18851   0.19308   0.23106   0.28876   0.29955
 Alpha virt. eigenvalues --    0.31462   0.34353   0.34794   0.36854   0.40860
 Alpha virt. eigenvalues --    0.45280

 Mulliken charges:
               1
     1  C   -0.076246
     2  C   -1.517661
     3  O    2.759451
     4  C   -1.529867
     5  C   -0.034430
     6  H    0.055066
     7  H    0.147064
     8  H    0.135133
     9  H    0.061490
 Sum of Mulliken charges =   0.00000

 Dipole moment (field-independent basis, Debye):
    X=             -3.9166    Y=             -9.2431    Z=              0.0250  Tot=             10.0387
 N-N= 1.038669360421D+02 E-N=-1.705145840196D+02  KE=-1.588844898365D+01
 Orbital energies and kinetic energies (alpha):
                                 1                 2
   1         O                -1.892156         -1.383898
   2         O                -1.209242         -1.095853
   3         O                -0.952325         -0.888021
   4         O                -0.788143         -0.622053
   5         O                -0.773225         -0.691630
   6         O                -0.671777         -0.628876
   7         O                -0.623466         -0.553153

 Normal termination of Gaussian 09 at Tue Dec 15 17:08:01 2015.
