 Gaussian 09, Revision D.01,
 Gaussian 09:  ES64L-G09RevD.01 24-Apr-2013

 ------------------------------------------------------------
 #P AM1(Input,print) CIS(Singlets,NStates=15) pop(full) force
 ------------------------------------------------------------

 -----------------
 AM1-Reparam Input
 -----------------
 Symbolic Z-matrix:
 Charge =  0 Multiplicity = 1

                         Standard orientation:
 ---------------------------------------------------------------------
 Center     Atomic      Atomic             Coordinates (Angstroms)
 Number     Number       Type             X           Y           Z
 ---------------------------------------------------------------------
      1          6           0       -0.604638    1.068931   -0.015413
      2          6           0       -1.152340   -0.264023    0.032375
      3          8           0       -0.149541   -1.118586   -0.035039
      4          6           0        1.069541   -0.492961    0.036707
      5          6           0        0.853211    0.849429   -0.018215
      6          1           0        1.528250    1.653489    0.034645
      7          1           0        1.939498   -1.071980    0.000474
      8          1           0       -2.163899   -0.586992    0.032373
      9          1           0       -1.102162    1.985913    0.000107
 ---------------------------------------------------------------------

 SCF Done:  E(RAM1) =   1.99889590389     A.U. after   13 cycles

 Excitation energies and oscillator strengths:

 Excited State   1:      Singlet-A      5.2630 eV  235.58 nm  f=0.3706  <S**2>=0.000
      13 -> 14         0.69664
 This state for optimization and/or second-order correction.
 Total Energy, E(CIS) =   2.19230627644
 Copying the excited state density for this state as the 1-particle RhoCI density.

 Excited State   2:      Singlet-A      6.6022 eV  187.79 nm  f=0.0019  <S**2>=0.000
      12 -> 14         0.69688

 Excited State   3:      Singlet-A      6.7278 eV  184.29 nm  f=0.0136  <S**2>=0.000
      13 -> 15         0.64925
      13 -> 16        -0.10872
      13 -> 17        -0.22194

 Excited State   4:      Singlet-A      7.0780 eV  175.17 nm  f=0.0074  <S**2>=0.000
      13 -> 15         0.16837
      13 -> 16         0.58027
      13 -> 18        -0.33427

 Excited State   5:      Singlet-A      7.7728 eV  159.51 nm  f=0.0047  <S**2>=0.000
      10 -> 14         0.61264
      13 -> 16         0.13294
      13 -> 18         0.22922
      13 -> 19         0.18609

 Excited State   6:      Singlet-A      7.8483 eV  157.98 nm  f=0.0013  <S**2>=0.000
      10 -> 14        -0.33995
      13 -> 16         0.26353
      13 -> 17        -0.13859
      13 -> 18         0.42346
      13 -> 19         0.30596

 Excited State   7:      Singlet-A      8.4782 eV  146.24 nm  f=0.1304  <S**2>=0.000
      11 -> 14         0.69317

 Excited State   8:      Singlet-A      9.1098 eV  136.10 nm  f=0.0131  <S**2>=0.000
      11 -> 15        -0.14924
      11 -> 16         0.13547
      13 -> 15         0.15138
      13 -> 17         0.59410
      13 -> 18         0.23121
      13 -> 21         0.10467

 Excited State   9:      Singlet-A      9.3453 eV  132.67 nm  f=0.0016  <S**2>=0.000
      11 -> 15        -0.16157
      11 -> 16        -0.11911
      13 -> 16        -0.16960
      13 -> 18        -0.22727
      13 -> 19         0.58277
      13 -> 20        -0.11036

 Excited State  10:      Singlet-A      9.5512 eV  129.81 nm  f=0.0409  <S**2>=0.000
       9 -> 16        -0.10847
      10 -> 15        -0.22314
      10 -> 16        -0.12685
      10 -> 17         0.10572
      10 -> 18         0.11979
      12 -> 15         0.23210
      12 -> 16        -0.27609
      12 -> 17        -0.21710
      12 -> 18         0.38385
      12 -> 19         0.13556

 Excited State  11:      Singlet-A      9.7992 eV  126.52 nm  f=0.0001  <S**2>=0.000
      13 -> 18        -0.10756
      13 -> 20         0.52520
      13 -> 21        -0.43647

 Excited State  12:      Singlet-A     10.0014 eV  123.97 nm  f=0.0696  <S**2>=0.000
      13 -> 18        -0.10425
      13 -> 20         0.41562
      13 -> 21         0.53172

 Excited State  13:      Singlet-A     10.0410 eV  123.48 nm  f=0.0018  <S**2>=0.000
      10 -> 15         0.21758
      10 -> 16        -0.12944
      10 -> 17        -0.10896
      12 -> 15         0.56948
      12 -> 16         0.17583
      12 -> 17        -0.12804
      12 -> 18        -0.17450

 Excited State  14:      Singlet-A     10.2017 eV  121.53 nm  f=0.0241  <S**2>=0.000
       9 -> 14         0.15957
      10 -> 15        -0.10448
      11 -> 15         0.57446
      12 -> 16         0.15133
      13 -> 16        -0.11590
      13 -> 17         0.13752
      13 -> 20        -0.11331

 Excited State  15:      Singlet-A     10.3227 eV  120.11 nm  f=0.2181  <S**2>=0.000
      10 -> 15        -0.41496
      10 -> 17         0.11272
      10 -> 18         0.10226
      11 -> 15        -0.17938
      12 -> 16         0.42776
      12 -> 19         0.13432

 The electronic state is 1-A.
 Alpha  occ. eigenvalues --   -1.94369  -1.17969  -0.96232  -0.82637  -0.79196
 Alpha  occ. eigenvalues --   -0.69344  -0.64953  -0.57523  -0.54316  -0.46499
 Alpha  occ. eigenvalues --   -0.45126  -0.42863  -0.30973
 Alpha virt. eigenvalues --    0.08480   0.18142   0.19941   0.24799   0.25740
 Alpha virt. eigenvalues --    0.26769   0.29318   0.29726   0.36784   0.44676
 Alpha virt. eigenvalues --    0.50757

 Mulliken charges:
               1
     1  C   -0.240560
     2  C   -2.061516
     3  O    3.202412
     4  C   -2.011342
     5  C   -0.164775
     6  H    0.257976
     7  H    0.371993
     8  H    0.385567
     9  H    0.260244
 Sum of Mulliken charges =   0.00000

 Dipole moment (field-independent basis, Debye):
    X=             -1.1238    Y=             -8.9933    Z=             -0.9489  Tot=              9.1128
 N-N= 1.040476620144D+02 E-N=-1.689818372000D+02  KE=-1.547570643830D+01
 Orbital energies and kinetic energies (alpha):
                                 1                 2
   1         O                -1.943688         -1.395146
   2         O                -1.179692         -1.042724
   3         O                -0.962323         -0.853591
   4         O                -0.826368         -0.613123
   5         O                -0.791957         -0.690497
   6         O                -0.693440         -0.575559
   7         O                -0.649528         -0.510638

 Normal termination of Gaussian 09 at Tue Dec 15 17:07:17 2015.
