 Gaussian 09, Revision D.01,
 Gaussian 09:  ES64L-G09RevD.01 24-Apr-2013

 -------------------------------------------------------
 #P B3LYP/3-21G CIS(Singlets,NStates=15) pop(full) force
 -------------------------------------------------------

 --------
 FuranDFT
 --------
 Symbolic Z-matrix:
 Charge =  0 Multiplicity = 1

                         Standard orientation:
 ---------------------------------------------------------------------
 Center     Atomic      Atomic             Coordinates (Angstroms)
 Number     Number       Type             X           Y           Z
 ---------------------------------------------------------------------
      1          6           0       -0.684561    0.942479   -0.004022
      2          6           0       -1.128426   -0.256752    0.028697
      3          8           0       -0.062078   -1.183638   -0.026626
      4          6           0        1.134487   -0.371953    0.024121
      5          6           0        0.738963    0.954621   -0.025195
      6          1           0        1.430802    1.758637    0.020651
      7          1           0        2.086086   -0.898317    0.043721
      8          1           0       -2.030648   -0.814098   -0.001215
      9          1           0       -1.352394    1.812515    0.008243
 ---------------------------------------------------------------------

 SCF Done:  E(RB3LYP) =  -228.738909311     A.U. after   14 cycles

 Excitation energies and oscillator strengths:

 Excited State   1:      Singlet-A      7.1135 eV  174.29 nm  f=0.1771  <S**2>=0.000
      17 -> 19         0.23295
      18 -> 19         0.63349
 This state for optimization and/or second-order correction.
 Total Energy, E(CIS) =  -228.477493703
 Copying the excited state density for this state as the 1-particle RhoCI density.

 Excited State   2:      Singlet-A      7.3096 eV  169.62 nm  f=0.0304  <S**2>=0.000
      17 -> 19         0.51331
      18 -> 19        -0.23787
      18 -> 20         0.40160

 Excited State   3:      Singlet-A      8.3497 eV  148.49 nm  f=0.0027  <S**2>=0.000
      16 -> 19         0.63861
      18 -> 21        -0.28298

 Excited State   4:      Singlet-A      8.3861 eV  147.85 nm  f=0.0008  <S**2>=0.000
      16 -> 19         0.28717
      18 -> 21         0.63780

 Excited State   5:      Singlet-A      9.1850 eV  134.99 nm  f=0.0020  <S**2>=0.000
      18 -> 22         0.69025

 Excited State   6:      Singlet-A      9.3894 eV  132.05 nm  f=0.2330  <S**2>=0.000
      14 -> 19         0.10716
      15 -> 19        -0.11019
      17 -> 19         0.26257
      17 -> 20         0.44245
      18 -> 20        -0.39013

 Excited State   7:      Singlet-A      9.4193 eV  131.63 nm  f=0.0021  <S**2>=0.000
      17 -> 21         0.45148
      18 -> 23         0.52170

 Excited State   8:      Singlet-A      9.5617 eV  129.67 nm  f=0.0108  <S**2>=0.000
      15 -> 19         0.18978
      17 -> 20         0.10287
      17 -> 21         0.51602
      18 -> 23        -0.40526

 Excited State   9:      Singlet-A      9.7791 eV  126.78 nm  f=0.0136  <S**2>=0.000
      15 -> 19         0.64403
      16 -> 20         0.11205
      17 -> 21        -0.11619
      18 -> 23         0.16608

 Excited State  10:      Singlet-A      9.8937 eV  125.32 nm  f=0.2728  <S**2>=0.000
      14 -> 19        -0.10249
      17 -> 19        -0.22781
      17 -> 20         0.49987
      18 -> 20         0.31806

 Excited State  11:      Singlet-A     10.1496 eV  122.16 nm  f=0.0038  <S**2>=0.000
      17 -> 22         0.67247
      17 -> 23         0.14583

 Excited State  12:      Singlet-A     10.4391 eV  118.77 nm  f=0.0021  <S**2>=0.000
      13 -> 19         0.25803
      16 -> 20         0.18604
      17 -> 23         0.11900
      18 -> 24         0.59774

 Excited State  13:      Singlet-A     10.4929 eV  118.16 nm  f=0.0033  <S**2>=0.000
      13 -> 19         0.49946
      14 -> 19        -0.10506
      16 -> 20         0.32017
      18 -> 24        -0.33243

 Excited State  14:      Singlet-A     10.5655 eV  117.35 nm  f=0.0003  <S**2>=0.000
      12 -> 19         0.62453
      13 -> 19        -0.11029
      14 -> 19        -0.10808
      17 -> 23        -0.21765

 Excited State  15:      Singlet-A     10.6442 eV  116.48 nm  f=0.0013  <S**2>=0.000
      12 -> 19         0.24368
      16 -> 20        -0.23945
      17 -> 22        -0.14186
      17 -> 23         0.56341
      17 -> 24        -0.10357
      17 -> 25         0.12414

 The electronic state is 1-A.
 Alpha  occ. eigenvalues --  -19.09578 -10.18103 -10.16727 -10.13055 -10.12250
 Alpha  occ. eigenvalues --   -1.08082  -0.81077  -0.74367  -0.59375  -0.57451
 Alpha  occ. eigenvalues --   -0.53558  -0.43495  -0.42829  -0.42520  -0.40115
 Alpha  occ. eigenvalues --   -0.35339  -0.27741  -0.23720
 Alpha virt. eigenvalues --    0.01245   0.08933   0.12128   0.14102   0.16270
 Alpha virt. eigenvalues --    0.18671   0.20336   0.21390   0.34590   0.42764
 Alpha virt. eigenvalues --    0.48076   0.66103   0.69858   0.70508   0.76592

 Mulliken charges:
               1
     1  C   -0.252413
     2  C    0.085269
     3  O   -0.459008
     4  C    0.046677
     5  C   -0.247556
     6  H    0.192966
     7  H    0.219404
     8  H    0.224272
     9  H    0.190388
 Sum of Mulliken charges =   0.00000

 Dipole moment (field-independent basis, Debye):
    X=              0.0816    Y=              0.8745    Z=              0.0951  Tot=              0.8834
 Quadrupole moment (field-independent basis, Debye-Ang):
   XX=            -22.9813   YY=            -28.3661   ZZ=            -31.7779
   XY=             -0.1407   XZ=              0.1527   YZ=              0.0108

 Normal termination of Gaussian 09 at Tue Dec 15 16:16:20 2015.
