 Gaussian 09, Revision D.01,
 Gaussian 09:  ES64L-G09RevD.01 24-Apr-2013

 ------------------------------------------------------------
 #P AM1(Input,print) CIS(Singlets,NStates=15) pop(full) force
 ------------------------------------------------------------

 -----------------
 AM1-Reparam Input
 -----------------
 Symbolic Z-matrix:
 Charge =  0 Multiplicity = 1

                         Standard orientation:
 ---------------------------------------------------------------------
 Center     Atomic      Atomic             Coordinates (Angstroms)
 Number     Number       Type             X           Y           Z
 ---------------------------------------------------------------------
      1          6           0        0.924730    0.802116   -0.001519
      2          6           0        0.978904   -0.505533   -0.017753
      3          8           0       -0.216221   -1.150469    0.005277
      4          6           0       -1.100722   -0.163239    0.001189
      5          6           0       -0.573084    1.091656    0.000874
      6          1           0       -1.070051    1.991082   -0.016060
      7          1           0       -2.123968   -0.465702    0.005121
      8          1           0        1.856634   -1.238558    0.028856
      9          1           0        1.688186    1.566931    0.043121
 ---------------------------------------------------------------------

 SCF Done:  E(RAM1) =   1.73763433005     A.U. after   14 cycles

 Excitation energies and oscillator strengths:

 Excited State   1:      Singlet-A      4.9953 eV  248.20 nm  f=0.3505  <S**2>=0.000
      13 -> 14         0.69625
 This state for optimization and/or second-order correction.
 Total Energy, E(CIS) =   1.92120859905
 Copying the excited state density for this state as the 1-particle RhoCI density.

 Excited State   2:      Singlet-A      5.5622 eV  222.91 nm  f=0.0004  <S**2>=0.000
      11 -> 15         0.10216
      13 -> 15         0.66800
      13 -> 16        -0.10980
      13 -> 18        -0.15923

 Excited State   3:      Singlet-A      5.8332 eV  212.55 nm  f=0.0019  <S**2>=0.000
      13 -> 15         0.12661
      13 -> 16         0.65013
      13 -> 17         0.17674

 Excited State   4:      Singlet-A      6.6340 eV  186.89 nm  f=0.0002  <S**2>=0.000
      12 -> 14         0.68829
      13 -> 19        -0.10485

 Excited State   5:      Singlet-A      6.9739 eV  177.78 nm  f=0.0005  <S**2>=0.000
      12 -> 14        -0.13601
      13 -> 16        -0.13642
      13 -> 18         0.43953
      13 -> 19        -0.38443
      13 -> 20         0.23269
      13 -> 21         0.21891

 Excited State   6:      Singlet-A      7.4754 eV  165.86 nm  f=0.0251  <S**2>=0.000
      13 -> 16        -0.14550
      13 -> 17         0.66669
      13 -> 18        -0.11598

 Excited State   7:      Singlet-A      8.0068 eV  154.85 nm  f=0.0019  <S**2>=0.000
      13 -> 18         0.47575
      13 -> 19         0.24121
      13 -> 20        -0.36628
      13 -> 21        -0.23081

 Excited State   8:      Singlet-A      8.2677 eV  149.96 nm  f=0.0087  <S**2>=0.000
      10 -> 14         0.26135
      13 -> 18         0.14166
      13 -> 19         0.48421
      13 -> 20         0.31935
      13 -> 21         0.25406

 Excited State   9:      Singlet-A      8.3699 eV  148.13 nm  f=0.0034  <S**2>=0.000
      10 -> 14         0.58346
      11 -> 14        -0.15821
      13 -> 19        -0.16468
      13 -> 21        -0.30061

 Excited State  10:      Singlet-A      8.5085 eV  145.72 nm  f=0.0723  <S**2>=0.000
       8 -> 15        -0.12075
      10 -> 14         0.16217
      11 -> 14         0.57666
      12 -> 15         0.29160

 Excited State  11:      Singlet-A      8.7135 eV  142.29 nm  f=0.0737  <S**2>=0.000
      10 -> 14         0.23409
      13 -> 20        -0.44603
      13 -> 21         0.47912

 Excited State  12:      Singlet-A      8.9162 eV  139.05 nm  f=0.3182  <S**2>=0.000
       8 -> 15        -0.16102
      11 -> 14        -0.28893
      12 -> 15         0.44752
      12 -> 16        -0.31247
      12 -> 18        -0.17125

 Excited State  13:      Singlet-A      9.3777 eV  132.21 nm  f=0.0080  <S**2>=0.000
       7 -> 15        -0.12349
      11 -> 15         0.62219
      11 -> 16         0.15363
      12 -> 15         0.10536
      12 -> 16         0.13716
      13 -> 15        -0.11093

 Excited State  14:      Singlet-A      9.4541 eV  131.14 nm  f=0.1051  <S**2>=0.000
       8 -> 16         0.12766
      11 -> 14        -0.18816
      11 -> 15        -0.18938
      12 -> 15         0.33507
      12 -> 16         0.44924
      12 -> 18         0.12618

 Excited State  15:      Singlet-A      9.6473 eV  128.52 nm  f=0.0036  <S**2>=0.000
       7 -> 16         0.13835
      11 -> 15        -0.16406
      11 -> 16         0.64646
      13 -> 16         0.11315

 The electronic state is 1-A.
 Alpha  occ. eigenvalues --   -1.92049  -1.20667  -0.99378  -0.82805  -0.79266
 Alpha  occ. eigenvalues --   -0.68977  -0.63379  -0.52438  -0.51208  -0.44844
 Alpha  occ. eigenvalues --   -0.42237  -0.39050  -0.25668
 Alpha virt. eigenvalues --    0.12429   0.16365   0.18065   0.26656   0.28086
 Alpha virt. eigenvalues --    0.28344   0.29622   0.30846   0.37637   0.47077
 Alpha virt. eigenvalues --    0.50736

 Mulliken charges:
               1
     1  C   -0.104025
     2  C   -1.872624
     3  O    3.155941
     4  C   -1.920374
     5  C   -0.184519
     6  H    0.177678
     7  H    0.297032
     8  H    0.281368
     9  H    0.169523
 Sum of Mulliken charges =   0.00000

 Dipole moment (field-independent basis, Debye):
    X=             -1.7490    Y=            -10.7827    Z=              0.2875  Tot=             10.9274
 N-N= 1.039846109627D+02 E-N=-1.695193438306D+02  KE=-1.573526759864D+01
 Orbital energies and kinetic energies (alpha):
                                 1                 2
   1         O                -1.920488         -1.392615
   2         O                -1.206669         -1.096849
   3         O                -0.993783         -0.915310
   4         O                -0.828051         -0.636957
   5         O                -0.792663         -0.690658
   6         O                -0.689767         -0.576426
   7         O                -0.633787         -0.510249

 Normal termination of Gaussian 09 at Tue Dec 15 17:07:01 2015.
