 Gaussian 09, Revision D.01,
 Gaussian 09:  ES64L-G09RevD.01 24-Apr-2013

 ------------------------------------------------------------
 #P AM1(Input,print) CIS(Singlets,NStates=15) pop(full) force
 ------------------------------------------------------------

 -----------------
 AM1-Reparam Input
 -----------------
 Symbolic Z-matrix:
 Charge =  0 Multiplicity = 1

                         Standard orientation:
 ---------------------------------------------------------------------
 Center     Atomic      Atomic             Coordinates (Angstroms)
 Number     Number       Type             X           Y           Z
 ---------------------------------------------------------------------
      1          6           0        0.285540    1.128025   -0.022795
      2          6           0        1.182488    0.050844   -0.009044
      3          8           0        0.402109   -1.082291    0.000520
      4          6           0       -0.907967   -0.694371    0.000924
      5          6           0       -0.980951    0.676219    0.016464
      6          1           0       -1.943050    1.161635   -0.007027
      7          1           0       -1.636924   -1.524341   -0.014432
      8          1           0        2.254782   -0.096142    0.061871
      9          1           0        0.633659    2.152871    0.042130
 ---------------------------------------------------------------------

 SCF Done:  E(RAM1) =   1.81927374089     A.U. after   14 cycles

 Excitation energies and oscillator strengths:

 Excited State   1:      Singlet-A      6.0006 eV  206.62 nm  f=0.2628  <S**2>=0.000
      11 -> 17        -0.12741
      13 -> 14         0.67583
 This state for optimization and/or second-order correction.
 Total Energy, E(CIS) =   2.03979270318
 Copying the excited state density for this state as the 1-particle RhoCI density.

 Excited State   2:      Singlet-A      6.8056 eV  182.18 nm  f=0.0047  <S**2>=0.000
      10 -> 15         0.14042
      13 -> 15         0.63610
      13 -> 16         0.14410
      13 -> 17        -0.18994

 Excited State   3:      Singlet-A      7.1238 eV  174.04 nm  f=0.0019  <S**2>=0.000
      12 -> 14         0.64096
      13 -> 15        -0.11208
      13 -> 16         0.23283

 Excited State   4:      Singlet-A      7.1799 eV  172.68 nm  f=0.0019  <S**2>=0.000
      10 -> 16        -0.13293
      12 -> 14        -0.26741
      13 -> 15        -0.12455
      13 -> 16         0.58648
      13 -> 17        -0.11468
      13 -> 19        -0.13076

 Excited State   5:      Singlet-A      7.6337 eV  162.42 nm  f=0.0043  <S**2>=0.000
      11 -> 14         0.69454

 Excited State   6:      Singlet-A      8.3878 eV  147.82 nm  f=0.0169  <S**2>=0.000
      10 -> 15         0.12778
      10 -> 16        -0.12996
      13 -> 15         0.13075
      13 -> 16         0.10923
      13 -> 17         0.63363
      13 -> 18         0.13296

 Excited State   7:      Singlet-A      8.7298 eV  142.02 nm  f=0.0014  <S**2>=0.000
      10 -> 16         0.12079
      13 -> 17        -0.13641
      13 -> 18         0.60563
      13 -> 21        -0.29180

 Excited State   8:      Singlet-A      9.0248 eV  137.38 nm  f=0.0606  <S**2>=0.000
       8 -> 15         0.12199
       9 -> 15         0.10164
      10 -> 14         0.42958
      11 -> 15        -0.11495
      11 -> 16        -0.17527
      11 -> 17         0.21680
      11 -> 18        -0.13259
      12 -> 15         0.32481
      12 -> 18        -0.11348
      13 -> 14         0.11055

 Excited State   9:      Singlet-A      9.0832 eV  136.50 nm  f=0.0883  <S**2>=0.000
      10 -> 14         0.50105
      11 -> 15         0.21081
      11 -> 16         0.16984
      11 -> 17        -0.16216
      12 -> 15        -0.14195
      12 -> 17         0.17807
      12 -> 18         0.18852
      13 -> 14        -0.12071

 Excited State  10:      Singlet-A      9.2905 eV  133.45 nm  f=0.0005  <S**2>=0.000
      10 -> 15        -0.11329
      10 -> 16        -0.11442
      13 -> 19         0.66371

 Excited State  11:      Singlet-A      9.5362 eV  130.01 nm  f=0.0529  <S**2>=0.000
       9 -> 16        -0.10537
      11 -> 15         0.18939
      11 -> 16        -0.13075
      11 -> 19         0.12610
      12 -> 16         0.55812
      12 -> 17        -0.21204
      12 -> 19        -0.16637

 Excited State  12:      Singlet-A      9.5698 eV  129.56 nm  f=0.1398  <S**2>=0.000
       8 -> 15         0.10243
      11 -> 15         0.52590
      12 -> 15         0.32774
      12 -> 16        -0.20723

 Excited State  13:      Singlet-A      9.8833 eV  125.45 nm  f=0.0676  <S**2>=0.000
       9 -> 15         0.10461
      10 -> 14        -0.14805
      10 -> 15         0.30088
      10 -> 16         0.11387
      11 -> 16         0.14809
      11 -> 19        -0.13152
      12 -> 15         0.25673
      12 -> 16         0.18433
      12 -> 17         0.12027
      12 -> 18         0.26571
      12 -> 20        -0.13676
      13 -> 18        -0.11493
      13 -> 21        -0.13739

 Excited State  14:      Singlet-A      9.9235 eV  124.94 nm  f=0.0488  <S**2>=0.000
      10 -> 14         0.10180
      10 -> 15         0.37560
      10 -> 16         0.18266
      12 -> 15        -0.18802
      12 -> 17        -0.11450
      12 -> 18        -0.20034
      13 -> 15        -0.10738
      13 -> 18        -0.19374
      13 -> 21        -0.24689

 Excited State  15:      Singlet-A     10.1691 eV  121.92 nm  f=0.0492  <S**2>=0.000
      10 -> 15         0.28998
      10 -> 16        -0.31805
      13 -> 18         0.11793
      13 -> 20         0.44294
      13 -> 21         0.26060

 The electronic state is 1-A.
 Alpha  occ. eigenvalues --   -1.93754  -1.22792  -0.97001  -0.81037  -0.80620
 Alpha  occ. eigenvalues --   -0.68803  -0.66260  -0.52508  -0.49931  -0.41723
 Alpha  occ. eigenvalues --   -0.40140  -0.38741  -0.29478
 Alpha virt. eigenvalues --    0.14700   0.18756   0.20093   0.25412   0.28343
 Alpha virt. eigenvalues --    0.30211   0.32240   0.35505   0.35808   0.44569
 Alpha virt. eigenvalues --    0.49469

 Mulliken charges:
               1
     1  C   -0.085924
     2  C   -1.948168
     3  O    3.139872
     4  C   -1.944835
     5  C   -0.078205
     6  H    0.157182
     7  H    0.301838
     8  H    0.302316
     9  H    0.155924
 Sum of Mulliken charges =   0.00000

 Dipole moment (field-independent basis, Debye):
    X=              3.1836    Y=             -9.6710    Z=              0.1965  Tot=             10.1834
 N-N= 1.040996908130D+02 E-N=-1.696418159763D+02  KE=-1.566326835475D+01
 Orbital energies and kinetic energies (alpha):
                                 1                 2
   1         O                -1.937543         -1.408289
   2         O                -1.227917         -1.092996
   3         O                -0.970013         -0.902513
   4         O                -0.810368         -0.622786
   5         O                -0.806196         -0.684273
   6         O                -0.688033         -0.577215
   7         O                -0.662604         -0.592881

 Normal termination of Gaussian 09 at Tue Dec 15 17:09:59 2015.
