 Gaussian 09, Revision D.01,
 Gaussian 09:  ES64L-G09RevD.01 24-Apr-2013

 ------------------------------------------------------------
 #P AM1(Input,print) CIS(Singlets,NStates=15) pop(full) force
 ------------------------------------------------------------

 -----------------
 AM1-Reparam Input
 -----------------
 Symbolic Z-matrix:
 Charge =  0 Multiplicity = 1

                         Standard orientation:
 ---------------------------------------------------------------------
 Center     Atomic      Atomic             Coordinates (Angstroms)
 Number     Number       Type             X           Y           Z
 ---------------------------------------------------------------------
      1          6           0        1.141479    0.413954    0.016338
      2          6           0        0.675203   -0.894648   -0.006323
      3          8           0       -0.623343   -0.945061   -0.007641
      4          6           0       -1.108052    0.250006    0.000708
      5          6           0       -0.059486    1.230923   -0.011408
      6          1           0       -0.130946    2.239811   -0.017631
      7          1           0       -2.215799    0.387332    0.065965
      8          1           0        1.272325   -1.838166    0.018469
      9          1           0        2.166301    0.770099   -0.001566
 ---------------------------------------------------------------------

 SCF Done:  E(RAM1) = -0.247909602281     A.U. after   13 cycles

 Excitation energies and oscillator strengths:

 Excited State   1:      Singlet-A      4.2408 eV  292.36 nm  f=0.0033  <S**2>=0.000
      13 -> 14         0.15423
      13 -> 16         0.66038
      13 -> 22        -0.13578
 This state for optimization and/or second-order correction.
 Total Energy, E(CIS) = -0.920623037780E-01
 Copying the excited state density for this state as the 1-particle RhoCI density.

 Excited State   2:      Singlet-A      4.4893 eV  276.18 nm  f=0.1010  <S**2>=0.000
      12 -> 15         0.17054
      13 -> 14         0.65954
      13 -> 16        -0.15191

 Excited State   3:      Singlet-A      4.9404 eV  250.96 nm  f=0.0262  <S**2>=0.000
      12 -> 14        -0.35059
      13 -> 15         0.60947

 Excited State   4:      Singlet-A      4.9707 eV  249.43 nm  f=0.0015  <S**2>=0.000
      12 -> 16         0.13223
      12 -> 19        -0.11755
      13 -> 17         0.57026
      13 -> 18        -0.22477
      13 -> 20        -0.12139
      13 -> 23        -0.17862

 Excited State   5:      Singlet-A      5.4681 eV  226.74 nm  f=0.0002  <S**2>=0.000
      12 -> 17        -0.26408
      12 -> 19        -0.14370
      12 -> 23         0.11568
      13 -> 17         0.11166
      13 -> 18         0.19025
      13 -> 19         0.48536
      13 -> 20         0.19741
      13 -> 21        -0.17986

 Excited State   6:      Singlet-A      6.1117 eV  202.87 nm  f=0.0100  <S**2>=0.000
       7 -> 16        -0.12778
      12 -> 14         0.11136
      12 -> 16         0.63025
      12 -> 22        -0.12721
      13 -> 17        -0.11363

 Excited State   7:      Singlet-A      6.1418 eV  201.87 nm  f=0.0102  <S**2>=0.000
      12 -> 14         0.10918
      12 -> 20         0.12527
      13 -> 17         0.24006
      13 -> 18         0.54039
      13 -> 19        -0.27017
      13 -> 20         0.15200

 Excited State   8:      Singlet-A      6.2694 eV  197.76 nm  f=0.2910  <S**2>=0.000
      12 -> 14         0.54231
      12 -> 15         0.15741
      12 -> 16        -0.13232
      13 -> 15         0.29794

 Excited State   9:      Singlet-A      6.4508 eV  192.20 nm  f=0.1510  <S**2>=0.000
      12 -> 14        -0.12096
      12 -> 15         0.64644
      13 -> 14        -0.15581

 Excited State  10:      Singlet-A      6.6271 eV  187.09 nm  f=0.0008  <S**2>=0.000
      12 -> 17         0.43490
      12 -> 18         0.29270
      12 -> 20         0.18985
      12 -> 21         0.27405
      12 -> 23        -0.14306
      13 -> 20         0.17204
      13 -> 22         0.16893

 Excited State  11:      Singlet-A      6.8808 eV  180.19 nm  f=0.0005  <S**2>=0.000
      12 -> 17         0.21021
      12 -> 18        -0.21801
      12 -> 19         0.14009
      12 -> 21         0.11513
      13 -> 16        -0.13943
      13 -> 18         0.19345
      13 -> 19         0.34711
      13 -> 20        -0.21324
      13 -> 21         0.29386
      13 -> 22        -0.18626

 Excited State  12:      Singlet-A      7.0429 eV  176.04 nm  f=0.0059  <S**2>=0.000
       9 -> 14         0.18185
      10 -> 14         0.12968
      10 -> 15         0.21722
      11 -> 14         0.57526
      11 -> 15         0.14633
      12 -> 19         0.12411

 Excited State  13:      Singlet-A      7.1524 eV  173.35 nm  f=0.0085  <S**2>=0.000
      11 -> 14        -0.14280
      12 -> 17        -0.19313
      12 -> 18         0.26181
      12 -> 19         0.24866
      13 -> 18        -0.12657
      13 -> 20         0.27291
      13 -> 21         0.40504
      13 -> 24         0.14194

 Excited State  14:      Singlet-A      7.3531 eV  168.62 nm  f=0.0050  <S**2>=0.000
      10 -> 14         0.35290
      10 -> 15        -0.13119
      11 -> 15         0.42012
      12 -> 18        -0.10091
      12 -> 19        -0.13280
      12 -> 22        -0.14393
      13 -> 17        -0.11571
      13 -> 20         0.10375
      13 -> 21         0.16733
      13 -> 23        -0.17501
      13 -> 24        -0.13387

 Excited State  15:      Singlet-A      7.3607 eV  168.44 nm  f=0.0062  <S**2>=0.000
      10 -> 14         0.14411
      11 -> 14        -0.11323
      11 -> 15         0.13351
      12 -> 17         0.14638
      12 -> 18        -0.11662
      12 -> 19         0.37603
      12 -> 21        -0.19722
      12 -> 22         0.11390
      13 -> 17         0.16040
      13 -> 19         0.12952
      13 -> 21        -0.15191
      13 -> 22         0.24323
      13 -> 23         0.19237
      13 -> 24         0.17354

 The electronic state is 1-A.
 Alpha  occ. eigenvalues --   -1.65632  -1.26632  -1.13341  -0.86869  -0.82319
 Alpha  occ. eigenvalues --   -0.70486  -0.65350  -0.59467  -0.53181  -0.50881
 Alpha  occ. eigenvalues --   -0.48536  -0.39070  -0.33302
 Alpha virt. eigenvalues --    0.03574   0.06333   0.08098   0.11427   0.14601
 Alpha virt. eigenvalues --    0.15281   0.16913   0.17390   0.19369   0.21254
 Alpha virt. eigenvalues --    0.23752

 Mulliken charges:
               1
     1  C   -0.178971
     2  C   -0.022987
     3  O   -0.187855
     4  C   -0.021871
     5  C   -0.176167
     6  H    0.125553
     7  H    0.166403
     8  H    0.162609
     9  H    0.133286
 Sum of Mulliken charges =   0.00000

 Dipole moment (field-independent basis, Debye):
    X=              0.2205    Y=              0.3129    Z=              0.0652  Tot=              0.3883
 N-N= 1.035992149590D+02 E-N=-1.707380647435D+02  KE=-1.705483309239D+01
 Orbital energies and kinetic energies (alpha):
                                 1                 2
   1         O                -1.656325         -1.362727
   2         O                -1.266319         -1.071705
   3         O                -1.133412         -0.966930
   4         O                -0.868694         -0.737769
   5         O                -0.823192         -0.727750
   6         O                -0.704864         -0.620582
   7         O                -0.653501         -0.524843

 Normal termination of Gaussian 09 at Sat Nov 14 17:36:38 2015.
