 Gaussian 09, Revision D.01,
 Gaussian 09:  ES64L-G09RevD.01 24-Apr-2013

 ------------------------------------------------------------
 #P AM1(Input,print) CIS(Singlets,NStates=15) pop(full) force
 ------------------------------------------------------------

 -----------------
 AM1-Reparam Input
 -----------------
 Symbolic Z-matrix:
 Charge =  0 Multiplicity = 1

                         Standard orientation:
 ---------------------------------------------------------------------
 Center     Atomic      Atomic             Coordinates (Angstroms)
 Number     Number       Type             X           Y           Z
 ---------------------------------------------------------------------
      1          6           0       -1.066028    0.549571    0.013166
      2          6           0       -0.878971   -0.796044   -0.016967
      3          8           0        0.582850   -1.035453    0.006998
      4          6           0        1.153102    0.178886   -0.007447
      5          6           0        0.175993    1.158476   -0.003216
      6          1           0        0.382676    2.257368   -0.024410
      7          1           0        2.218832    0.183356    0.032427
      8          1           0       -1.469872   -1.686384    0.003517
      9          1           0       -2.099014    0.983952    0.019260
 ---------------------------------------------------------------------

 SCF Done:  E(RAM1) =   2.54004132108     A.U. after   14 cycles

 Excitation energies and oscillator strengths:

 Excited State   1:      Singlet-A      5.4882 eV  225.91 nm  f=0.3162  <S**2>=0.000
      13 -> 14         0.69253
 This state for optimization and/or second-order correction.
 Total Energy, E(CIS) =   2.74173061569
 Copying the excited state density for this state as the 1-particle RhoCI density.

 Excited State   2:      Singlet-A      6.3229 eV  196.09 nm  f=0.0025  <S**2>=0.000
      10 -> 15         0.12087
      13 -> 15         0.65729
      13 -> 17        -0.18062

 Excited State   3:      Singlet-A      6.9757 eV  177.74 nm  f=0.0013  <S**2>=0.000
      10 -> 16        -0.12588
      13 -> 16         0.65000
      13 -> 17        -0.11261
      13 -> 19         0.12362

 Excited State   4:      Singlet-A      7.1833 eV  172.60 nm  f=0.0001  <S**2>=0.000
       9 -> 14        -0.11439
      12 -> 14         0.69193

 Excited State   5:      Singlet-A      7.6881 eV  161.27 nm  f=0.0061  <S**2>=0.000
      11 -> 14         0.69044

 Excited State   6:      Singlet-A      8.1186 eV  152.72 nm  f=0.0061  <S**2>=0.000
      10 -> 16        -0.13351
      13 -> 15         0.10746
      13 -> 16         0.12186
      13 -> 17         0.54334
      13 -> 18         0.33494
      13 -> 21        -0.17023

 Excited State   7:      Singlet-A      8.1869 eV  151.44 nm  f=0.0032  <S**2>=0.000
      10 -> 15        -0.10287
      13 -> 15        -0.11496
      13 -> 17        -0.35482
      13 -> 18         0.48597
      13 -> 21        -0.29898

 Excited State   8:      Singlet-A      8.8549 eV  140.02 nm  f=0.0738  <S**2>=0.000
      10 -> 14         0.65873
      11 -> 15        -0.10469
      11 -> 17         0.10871

 Excited State   9:      Singlet-A      8.9674 eV  138.26 nm  f=0.0001  <S**2>=0.000
      10 -> 16         0.11185
      13 -> 18         0.15745
      13 -> 19         0.62816
      13 -> 20        -0.14967

 Excited State  10:      Singlet-A      9.4570 eV  131.10 nm  f=0.0109  <S**2>=0.000
      13 -> 18         0.32013
      13 -> 19        -0.21323
      13 -> 20        -0.23371
      13 -> 21         0.49646

 Excited State  11:      Singlet-A      9.4846 eV  130.72 nm  f=0.0347  <S**2>=0.000
       8 -> 15         0.10780
       9 -> 15        -0.11268
      10 -> 14         0.14552
      11 -> 15         0.12806
      11 -> 16         0.22139
      11 -> 17        -0.27334
      12 -> 15         0.31952
      12 -> 16        -0.14048
      12 -> 18         0.29200
      13 -> 21        -0.13856

 Excited State  12:      Singlet-A      9.5420 eV  129.93 nm  f=0.1318  <S**2>=0.000
       9 -> 15         0.12989
      10 -> 14        -0.13095
      11 -> 15        -0.37090
      11 -> 17         0.16430
      12 -> 15         0.48426
      12 -> 17        -0.13965

 Excited State  13:      Singlet-A      9.7972 eV  126.55 nm  f=0.0201  <S**2>=0.000
       7 -> 15        -0.14642
      10 -> 15         0.60954
      13 -> 15        -0.14121
      13 -> 20         0.22577

 Excited State  14:      Singlet-A      9.9833 eV  124.19 nm  f=0.0800  <S**2>=0.000
      10 -> 15        -0.19257
      13 -> 19         0.11853
      13 -> 20         0.56726
      13 -> 21         0.30379

 Excited State  15:      Singlet-A     10.1557 eV  122.08 nm  f=0.1879  <S**2>=0.000
      11 -> 16         0.31399
      11 -> 19         0.12535
      12 -> 16         0.55866
      12 -> 17        -0.12353

 The electronic state is 1-A.
 Alpha  occ. eigenvalues --   -1.71434  -1.15546  -0.93779  -0.79551  -0.76339
 Alpha  occ. eigenvalues --   -0.66878  -0.63141  -0.54683  -0.50606  -0.43053
 Alpha  occ. eigenvalues --   -0.42076  -0.40575  -0.28715
 Alpha virt. eigenvalues --    0.12641   0.17125   0.20855   0.24945   0.27424
 Alpha virt. eigenvalues --    0.29189   0.31722   0.33086   0.36678   0.45881
 Alpha virt. eigenvalues --    0.50194

 Mulliken charges:
               1
     1  C    0.014627
     2  C   -1.896365
     3  O    3.232971
     4  C   -1.934501
     5  C   -0.144038
     6  H    0.125042
     7  H    0.258625
     8  H    0.230291
     9  H    0.113348
 Sum of Mulliken charges =   0.00000

 Dipole moment (field-independent basis, Debye):
    X=              5.7550    Y=             -9.6242    Z=              0.3736  Tot=             11.2198
 N-N= 1.029851103889D+02 E-N=-1.673953864164D+02  KE=-1.496719868441D+01
 Orbital energies and kinetic energies (alpha):
                                 1                 2
   1         O                -1.714338         -1.188230
   2         O                -1.155465         -1.014037
   3         O                -0.937791         -0.860002
   4         O                -0.795509         -0.613927
   5         O                -0.763395         -0.679524
   6         O                -0.668780         -0.565436
   7         O                -0.631407         -0.516753

 Normal termination of Gaussian 09 at Tue Dec 15 17:06:23 2015.
