 Gaussian 09, Revision D.01,
 Gaussian 09:  ES64L-G09RevD.01 24-Apr-2013

 ------------------------------------------------------------
 #P AM1(Input,print) CIS(Singlets,NStates=15) pop(full) force
 ------------------------------------------------------------

 -----------------
 AM1-Reparam Input
 -----------------
 Symbolic Z-matrix:
 Charge =  0 Multiplicity = 1

                         Standard orientation:
 ---------------------------------------------------------------------
 Center     Atomic      Atomic             Coordinates (Angstroms)
 Number     Number       Type             X           Y           Z
 ---------------------------------------------------------------------
      1          6           0        1.167013   -0.258812   -0.004737
      2          6           0        0.108758   -1.117973   -0.004070
      3          8           0       -1.113809   -0.441459    0.003735
      4          6           0       -0.706110    0.856629    0.002176
      5          6           0        0.623408    0.998950   -0.000937
      6          1           0        1.147896    1.909734    0.006692
      7          1           0       -1.591595    1.537298   -0.015170
      8          1           0       -0.026602   -2.201753    0.001494
      9          1           0        2.222362   -0.586368    0.022516
 ---------------------------------------------------------------------

 SCF Done:  E(RAM1) =   2.57220660903     A.U. after   14 cycles

 Excitation energies and oscillator strengths:

 Excited State   1:      Singlet-A      5.6223 eV  220.52 nm  f=0.3208  <S**2>=0.000
      11 -> 17        -0.10537
      13 -> 14         0.69227
 This state for optimization and/or second-order correction.
 Total Energy, E(CIS) =   2.77882108759
 Copying the excited state density for this state as the 1-particle RhoCI density.

 Excited State   2:      Singlet-A      6.1715 eV  200.90 nm  f=0.0004  <S**2>=0.000
      10 -> 15         0.13270
      13 -> 15         0.67465
      13 -> 17        -0.10294

 Excited State   3:      Singlet-A      6.5633 eV  188.90 nm  f=0.0006  <S**2>=0.000
      10 -> 16        -0.13718
      13 -> 16         0.66233
      13 -> 17        -0.14270

 Excited State   4:      Singlet-A      7.2148 eV  171.85 nm  f=0.0001  <S**2>=0.000
      12 -> 14         0.69652

 Excited State   5:      Singlet-A      7.8641 eV  157.66 nm  f=0.0096  <S**2>=0.000
      10 -> 14         0.16641
      11 -> 14         0.64713
      13 -> 17         0.20377

 Excited State   6:      Singlet-A      8.1631 eV  151.88 nm  f=0.0109  <S**2>=0.000
      10 -> 15         0.10324
      11 -> 14        -0.20814
      13 -> 17         0.63680

 Excited State   7:      Singlet-A      8.2726 eV  149.87 nm  f=0.0004  <S**2>=0.000
      10 -> 16         0.10314
      13 -> 18         0.60239
      13 -> 21        -0.30977

 Excited State   8:      Singlet-A      8.9051 eV  139.23 nm  f=0.0527  <S**2>=0.000
      10 -> 14         0.63791
      11 -> 14        -0.16371
      12 -> 15        -0.17434

 Excited State   9:      Singlet-A      8.9559 eV  138.44 nm  f=0.0003  <S**2>=0.000
      13 -> 18         0.11043
      13 -> 19         0.67436

 Excited State  10:      Singlet-A      9.2019 eV  134.74 nm  f=0.0614  <S**2>=0.000
       8 -> 15        -0.15848
       8 -> 16        -0.14703
      10 -> 14         0.11717
      11 -> 17        -0.17369
      12 -> 15         0.49446
      12 -> 16        -0.26144
      12 -> 18        -0.19679

 Excited State  11:      Singlet-A      9.5159 eV  130.29 nm  f=0.0694  <S**2>=0.000
       9 -> 15         0.15058
      10 -> 14        -0.10413
      10 -> 15        -0.24307
      11 -> 15         0.39415
      11 -> 16         0.13879
      11 -> 17        -0.21651
      12 -> 15        -0.28730
      12 -> 16        -0.14626
      12 -> 18        -0.15840

 Excited State  12:      Singlet-A      9.5392 eV  129.97 nm  f=0.0321  <S**2>=0.000
       7 -> 15        -0.10941
      10 -> 15         0.56257
      11 -> 17        -0.10538
      12 -> 15        -0.20926
      13 -> 15        -0.13872
      13 -> 18        -0.10739
      13 -> 21        -0.10074

 Excited State  13:      Singlet-A      9.7931 eV  126.60 nm  f=0.0023  <S**2>=0.000
      10 -> 15         0.17663
      13 -> 18         0.30489
      13 -> 20        -0.19256
      13 -> 21         0.56040

 Excited State  14:      Singlet-A      9.8795 eV  125.50 nm  f=0.1223  <S**2>=0.000
       9 -> 16        -0.10489
      10 -> 16        -0.17791
      11 -> 16         0.40381
      11 -> 17        -0.14130
      12 -> 16         0.43899
      13 -> 20         0.10918

 Excited State  15:      Singlet-A      9.9433 eV  124.69 nm  f=0.0597  <S**2>=0.000
      10 -> 16         0.53395
      12 -> 16         0.26247
      13 -> 16         0.13054
      13 -> 20        -0.25443

 The electronic state is 1-A.
 Alpha  occ. eigenvalues --   -1.72968  -1.17694  -0.93616  -0.80285  -0.76092
 Alpha  occ. eigenvalues --   -0.67051  -0.64051  -0.52371  -0.50280  -0.42422
 Alpha  occ. eigenvalues --   -0.42081  -0.40166  -0.28408
 Alpha virt. eigenvalues --    0.13690   0.16528   0.18632   0.26204   0.28621
 Alpha virt. eigenvalues --    0.30220   0.32599   0.34765   0.38361   0.48505
 Alpha virt. eigenvalues --    0.51392

 Mulliken charges:
               1
     1  C   -0.036505
     2  C   -1.900960
     3  O    3.208537
     4  C   -1.890796
     5  C   -0.069347
     6  H    0.110343
     7  H    0.236837
     8  H    0.233625
     9  H    0.108266
 Sum of Mulliken charges =   0.00000

 Dipole moment (field-independent basis, Debye):
    X=            -10.8377    Y=             -4.0997    Z=              0.0616  Tot=             11.5874
 N-N= 1.038407069838D+02 E-N=-1.689354813468D+02  KE=-1.505180883276D+01
 Orbital energies and kinetic energies (alpha):
                                 1                 2
   1         O                -1.729682         -1.223421
   2         O                -1.176945         -1.041592
   3         O                -0.936159         -0.862128
   4         O                -0.802854         -0.618142
   5         O                -0.760916         -0.661308
   6         O                -0.670510         -0.588518
   7         O                -0.640513         -0.529865

 Normal termination of Gaussian 09 at Tue Dec 15 17:06:12 2015.
