 Gaussian 09, Revision D.01,
 Gaussian 09:  ES64L-G09RevD.01 24-Apr-2013

 ------------------------------------------------------------
 #P AM1(Input,print) CIS(Singlets,NStates=15) pop(full) force
 ------------------------------------------------------------

 -----------------
 AM1-Reparam Input
 -----------------
 Symbolic Z-matrix:
 Charge =  0 Multiplicity = 1

                         Standard orientation:
 ---------------------------------------------------------------------
 Center     Atomic      Atomic             Coordinates (Angstroms)
 Number     Number       Type             X           Y           Z
 ---------------------------------------------------------------------
      1          6           0       -0.791361    0.865569   -0.019063
      2          6           0       -1.080120   -0.487728    0.038010
      3          8           0        0.150444   -1.116339   -0.018479
      4          6           0        1.149966   -0.213091   -0.005149
      5          6           0        0.564242    0.995773    0.007387
      6          1           0        1.120018    1.939580    0.030739
      7          1           0        2.137831   -0.601887    0.036199
      8          1           0       -1.978883   -1.080538   -0.012795
      9          1           0       -1.538885    1.710418   -0.033425
 ---------------------------------------------------------------------

 SCF Done:  E(RAM1) =   1.71492330137     A.U. after   13 cycles

 Excitation energies and oscillator strengths:

 Excited State   1:      Singlet-A      5.7047 eV  217.34 nm  f=0.3259  <S**2>=0.000
      13 -> 14         0.68807
 This state for optimization and/or second-order correction.
 Total Energy, E(CIS) =   1.92456722316
 Copying the excited state density for this state as the 1-particle RhoCI density.

 Excited State   2:      Singlet-A      7.2679 eV  170.59 nm  f=0.0007  <S**2>=0.000
      12 -> 14         0.69901

 Excited State   3:      Singlet-A      7.4863 eV  165.61 nm  f=0.0073  <S**2>=0.000
      10 -> 15         0.10077
      11 -> 14        -0.13577
      13 -> 15         0.63742
      13 -> 16         0.15757
      13 -> 17        -0.16048

 Excited State   4:      Singlet-A      7.7428 eV  160.13 nm  f=0.0058  <S**2>=0.000
      11 -> 14        -0.43739
      13 -> 15        -0.20376
      13 -> 16         0.47611
      13 -> 19         0.13488

 Excited State   5:      Singlet-A      7.7970 eV  159.02 nm  f=0.0041  <S**2>=0.000
      11 -> 14         0.53307
      13 -> 16         0.43626

 Excited State   6:      Singlet-A      9.1223 eV  135.91 nm  f=0.0001  <S**2>=0.000
      13 -> 18         0.63037
      13 -> 22         0.26667

 Excited State   7:      Singlet-A      9.3952 eV  131.97 nm  f=0.0102  <S**2>=0.000
      10 -> 16        -0.12354
      13 -> 15         0.11716
      13 -> 17         0.66561

 Excited State   8:      Singlet-A      9.5109 eV  130.36 nm  f=0.0847  <S**2>=0.000
      10 -> 14         0.67951

 Excited State   9:      Singlet-A      9.9459 eV  124.66 nm  f=0.0853  <S**2>=0.000
      11 -> 15         0.30863
      11 -> 16         0.16066
      11 -> 17        -0.30965
      12 -> 16        -0.24725
      12 -> 18         0.35138
      12 -> 22         0.10153
      13 -> 14        -0.12857

 Excited State  10:      Singlet-A     10.0855 eV  122.93 nm  f=0.0007  <S**2>=0.000
      13 -> 16        -0.10556
      13 -> 18         0.13496
      13 -> 19         0.64808
      13 -> 22        -0.11082

 Excited State  11:      Singlet-A     10.3305 eV  120.02 nm  f=0.1078  <S**2>=0.000
      11 -> 15        -0.22052
      12 -> 15         0.61552
      12 -> 17        -0.12063
      12 -> 19        -0.11418

 Excited State  12:      Singlet-A     10.6885 eV  116.00 nm  f=0.1620  <S**2>=0.000
      11 -> 15         0.10426
      11 -> 16         0.41966
      11 -> 19         0.10777
      12 -> 16         0.49570

 Excited State  13:      Singlet-A     10.8202 eV  114.59 nm  f=0.0795  <S**2>=0.000
      13 -> 18         0.16645
      13 -> 20         0.57036
      13 -> 22        -0.32021

 Excited State  14:      Singlet-A     10.9239 eV  113.50 nm  f=0.0550  <S**2>=0.000
      11 -> 18        -0.10350
      13 -> 18        -0.17642
      13 -> 19         0.12300
      13 -> 20         0.36408
      13 -> 22         0.50512

 Excited State  15:      Singlet-A     11.0055 eV  112.66 nm  f=0.1021  <S**2>=0.000
       8 -> 16        -0.13351
       9 -> 15        -0.11460
      10 -> 14        -0.12524
      11 -> 15        -0.17309
      11 -> 16         0.21421
      11 -> 18         0.28710
      11 -> 19         0.25994
      12 -> 15        -0.14945
      12 -> 16        -0.14418
      12 -> 17        -0.23675
      12 -> 20         0.16810
      13 -> 22         0.16327

 The electronic state is 1-A.
 Alpha  occ. eigenvalues --   -1.91433  -1.18887  -0.92852  -0.81867  -0.79104
 Alpha  occ. eigenvalues --   -0.69692  -0.68540  -0.58541  -0.55944  -0.47325
 Alpha  occ. eigenvalues --   -0.43992  -0.42708  -0.32044
 Alpha virt. eigenvalues --    0.10826   0.18793   0.20046   0.25991   0.27345
 Alpha virt. eigenvalues --    0.29892   0.31566   0.33928   0.34936   0.42002
 Alpha virt. eigenvalues --    0.46762

 Mulliken charges:
               1
     1  C   -0.152005
     2  C   -2.049446
     3  O    3.318482
     4  C   -2.033133
     5  C   -0.188263
     6  H    0.219326
     7  H    0.334775
     8  H    0.335636
     9  H    0.214629
 Sum of Mulliken charges =   0.00000

 Dipole moment (field-independent basis, Debye):
    X=              1.5514    Y=             -9.8766    Z=             -0.5092  Tot=             10.0107
 N-N= 1.040643918036D+02 E-N=-1.695251194915D+02  KE=-1.551526565440D+01
 Orbital energies and kinetic energies (alpha):
                                 1                 2
   1         O                -1.914335         -1.379319
   2         O                -1.188874         -1.049527
   3         O                -0.928516         -0.880626
   4         O                -0.818669         -0.573329
   5         O                -0.791037         -0.692608
   6         O                -0.696917         -0.603366
   7         O                -0.685398         -0.545776

 Normal termination of Gaussian 09 at Tue Dec 15 17:09:39 2015.
