 Gaussian 09, Revision D.01,
 Gaussian 09:  ES64L-G09RevD.01 24-Apr-2013

 ------------------------------------------------------------
 #P AM1(Input,print) CIS(Singlets,NStates=15) pop(full) force
 ------------------------------------------------------------

 -----------------
 AM1-Reparam Input
 -----------------
 Symbolic Z-matrix:
 Charge =  0 Multiplicity = 1

                         Standard orientation:
 ---------------------------------------------------------------------
 Center     Atomic      Atomic             Coordinates (Angstroms)
 Number     Number       Type             X           Y           Z
 ---------------------------------------------------------------------
      1          6           0        0.269649    1.157506   -0.027083
      2          6           0        1.157473    0.128801    0.036511
      3          8           0        0.480125   -1.103581   -0.017696
      4          6           0       -0.879646   -0.711124    0.014942
      5          6           0       -1.066506    0.611417   -0.011165
      6          1           0       -1.941303    1.097651    0.039832
      7          1           0       -1.572960   -1.579756    0.011849
      8          1           0        2.206221    0.002054   -0.027439
      9          1           0        0.581217    2.189097    0.038100
 ---------------------------------------------------------------------

 SCF Done:  E(RAM1) =   2.08539633714     A.U. after   14 cycles

 Excitation energies and oscillator strengths:

 Excited State   1:      Singlet-A      5.2521 eV  236.07 nm  f=0.3409  <S**2>=0.000
      13 -> 14         0.69483
 This state for optimization and/or second-order correction.
 Total Energy, E(CIS) =   2.27840758072
 Copying the excited state density for this state as the 1-particle RhoCI density.

 Excited State   2:      Singlet-A      6.5899 eV  188.14 nm  f=0.0027  <S**2>=0.000
      13 -> 15         0.64178
      13 -> 17         0.15444
      13 -> 18         0.19956

 Excited State   3:      Singlet-A      6.7646 eV  183.28 nm  f=0.0046  <S**2>=0.000
      12 -> 14         0.42157
      13 -> 16         0.49890
      13 -> 17         0.14063
      13 -> 18        -0.16818

 Excited State   4:      Singlet-A      6.8212 eV  181.76 nm  f=0.0017  <S**2>=0.000
      12 -> 14         0.55708
      13 -> 16        -0.39025
      13 -> 17        -0.10380
      13 -> 18         0.11431

 Excited State   5:      Singlet-A      7.7948 eV  159.06 nm  f=0.0104  <S**2>=0.000
      10 -> 14         0.53366
      11 -> 14        -0.36151
      13 -> 17         0.11888
      13 -> 18         0.14009
      13 -> 19         0.16315

 Excited State   6:      Singlet-A      7.8651 eV  157.64 nm  f=0.0003  <S**2>=0.000
      10 -> 14        -0.22267
      11 -> 14         0.15591
      13 -> 15        -0.14508
      13 -> 16         0.12164
      13 -> 17         0.20873
      13 -> 18         0.36630
      13 -> 19         0.40048
      13 -> 20         0.17431

 Excited State   7:      Singlet-A      8.4076 eV  147.47 nm  f=0.0271  <S**2>=0.000
      11 -> 16         0.11390
      13 -> 15        -0.10739
      13 -> 16        -0.18318
      13 -> 17         0.60916
      13 -> 18        -0.13442
      13 -> 19        -0.16518

 Excited State   8:      Singlet-A      8.7322 eV  141.99 nm  f=0.1000  <S**2>=0.000
      10 -> 14         0.38522
      11 -> 14         0.56102
      13 -> 21         0.11239

 Excited State   9:      Singlet-A      8.7851 eV  141.13 nm  f=0.0009  <S**2>=0.000
      13 -> 15         0.10133
      13 -> 16        -0.12363
      13 -> 18        -0.46344
      13 -> 19         0.49002

 Excited State  10:      Singlet-A      9.5157 eV  130.29 nm  f=0.0372  <S**2>=0.000
       9 -> 15         0.14053
      10 -> 16         0.13865
      10 -> 17         0.16114
      12 -> 15         0.37691
      12 -> 16        -0.20153
      12 -> 17         0.14018
      12 -> 18         0.26807
      12 -> 19         0.21379
      13 -> 20        -0.16388

 Excited State  11:      Singlet-A      9.6344 eV  128.69 nm  f=0.0159  <S**2>=0.000
      12 -> 15         0.11529
      13 -> 18        -0.12464
      13 -> 19        -0.17991
      13 -> 20         0.60795
      13 -> 21         0.15656
      13 -> 22        -0.12424

 Excited State  12:      Singlet-A     10.0164 eV  123.78 nm  f=0.1093  <S**2>=0.000
      11 -> 16         0.17725
      12 -> 16        -0.40633
      12 -> 17        -0.18529
      13 -> 20         0.11984
      13 -> 21        -0.13213
      13 -> 22         0.42441

 Excited State  13:      Singlet-A     10.0272 eV  123.65 nm  f=0.0836  <S**2>=0.000
      10 -> 16         0.13201
      12 -> 16         0.37146
      12 -> 17         0.16742
      13 -> 20         0.14440
      13 -> 21        -0.16061
      13 -> 22         0.46876

 Excited State  14:      Singlet-A     10.1516 eV  122.13 nm  f=0.1478  <S**2>=0.000
       9 -> 15         0.15295
      10 -> 15        -0.12959
      10 -> 17        -0.11709
      11 -> 15         0.24931
      11 -> 16         0.11589
      11 -> 17         0.11619
      12 -> 15         0.42790
      12 -> 16         0.11254
      12 -> 18        -0.11085
      12 -> 19        -0.26817
      13 -> 21         0.13774

 Excited State  15:      Singlet-A     10.3188 eV  120.15 nm  f=0.0150  <S**2>=0.000
       7 -> 15        -0.10201
      10 -> 15         0.21458
      10 -> 16         0.20664
      11 -> 15         0.48657
      11 -> 16         0.19864
      11 -> 17         0.11343
      12 -> 19         0.10029
      13 -> 15        -0.11591

 The electronic state is 1-A.
 Alpha  occ. eigenvalues --   -1.92066  -1.19446  -0.94372  -0.81367  -0.79011
 Alpha  occ. eigenvalues --   -0.68320  -0.63126  -0.53773  -0.52694  -0.43369
 Alpha  occ. eigenvalues --   -0.42906  -0.40025  -0.27714
 Alpha virt. eigenvalues --    0.12089   0.19484   0.20532   0.26799   0.28348
 Alpha virt. eigenvalues --    0.30552   0.31831   0.32533   0.33264   0.42255
 Alpha virt. eigenvalues --    0.45313

 Mulliken charges:
               1
     1  C   -0.229199
     2  C   -1.966744
     3  O    3.170521
     4  C   -1.972299
     5  C   -0.191377
     6  H    0.243009
     7  H    0.352994
     8  H    0.341803
     9  H    0.251292
 Sum of Mulliken charges =   0.00000

 Dipole moment (field-independent basis, Debye):
    X=              4.3493    Y=            -10.7869    Z=             -0.6050  Tot=             11.6464
 N-N= 1.037790011344D+02 E-N=-1.687727949889D+02  KE=-1.545063181471D+01
 Orbital energies and kinetic energies (alpha):
                                 1                 2
   1         O                -1.920664         -1.340027
   2         O                -1.194458         -1.080879
   3         O                -0.943723         -0.882753
   4         O                -0.813666         -0.598453
   5         O                -0.790107         -0.668825
   6         O                -0.683204         -0.577073
   7         O                -0.631261         -0.517287

 Normal termination of Gaussian 09 at Tue Dec 15 17:07:19 2015.
