 Gaussian 09, Revision D.01,
 Gaussian 09:  ES64L-G09RevD.01 24-Apr-2013

 ------------------------------------------------------------
 #P AM1(Input,print) CIS(Singlets,NStates=15) pop(full) force
 ------------------------------------------------------------

 -----------------
 AM1-Reparam Input
 -----------------
 Symbolic Z-matrix:
 Charge =  0 Multiplicity = 1

                         Standard orientation:
 ---------------------------------------------------------------------
 Center     Atomic      Atomic             Coordinates (Angstroms)
 Number     Number       Type             X           Y           Z
 ---------------------------------------------------------------------
      1          6           0        0.906798    0.776835   -0.013504
      2          6           0        1.034385   -0.574751    0.020855
      3          8           0       -0.305036   -1.109669   -0.002194
      4          6           0       -1.147473   -0.105361   -0.002074
      5          6           0       -0.458687    1.060529   -0.015200
      6          1           0       -0.909003    2.133576    0.071905
      7          1           0       -2.221451   -0.316488    0.014679
      8          1           0        1.834847   -1.276483   -0.028184
      9          1           0        1.725766    1.393239    0.018693
 ---------------------------------------------------------------------

 SCF Done:  E(RAM1) =  -3.79614361289     A.U. after   14 cycles

 Excitation energies and oscillator strengths:

 Excited State   1:      Singlet-A      5.6312 eV  220.17 nm  f=0.0030  <S**2>=0.000
      13 -> 14         0.68752
      13 -> 18         0.10830
 This state for optimization and/or second-order correction.
 Total Energy, E(CIS) =  -3.58920183895
 Copying the excited state density for this state as the 1-particle RhoCI density.

 Excited State   2:      Singlet-A      6.7436 eV  183.85 nm  f=0.0010  <S**2>=0.000
      13 -> 15         0.21730
      13 -> 16         0.60655
      13 -> 18         0.13543
      13 -> 19         0.10649
      13 -> 20         0.12135
      13 -> 23        -0.10326

 Excited State   3:      Singlet-A      7.4110 eV  167.30 nm  f=0.1488  <S**2>=0.000
      12 -> 17        -0.11985
      13 -> 15         0.61477
      13 -> 16        -0.23086
      13 -> 18         0.13253

 Excited State   4:      Singlet-A      7.7387 eV  160.21 nm  f=0.0394  <S**2>=0.000
      12 -> 14         0.13082
      13 -> 14        -0.10370
      13 -> 15        -0.17213
      13 -> 17        -0.14014
      13 -> 18         0.62548

 Excited State   5:      Singlet-A      7.9697 eV  155.57 nm  f=0.0123  <S**2>=0.000
      12 -> 14         0.41264
      13 -> 17         0.20230
      13 -> 19         0.49877

 Excited State   6:      Singlet-A      8.1558 eV  152.02 nm  f=0.1258  <S**2>=0.000
      12 -> 14        -0.13728
      12 -> 15         0.20079
      13 -> 17         0.61094
      13 -> 18         0.16503
      13 -> 19        -0.12998

 Excited State   7:      Singlet-A      8.3617 eV  148.28 nm  f=0.0002  <S**2>=0.000
      12 -> 14         0.50780
      12 -> 18         0.10782
      13 -> 19        -0.42885
      13 -> 21         0.11053
      13 -> 22        -0.12128

 Excited State   8:      Singlet-A      9.5887 eV  129.30 nm  f=0.0063  <S**2>=0.000
      12 -> 16         0.14538
      13 -> 16        -0.14705
      13 -> 20         0.61269
      13 -> 21         0.19394

 Excited State   9:      Singlet-A      9.8698 eV  125.62 nm  f=0.0008  <S**2>=0.000
      12 -> 15         0.14399
      12 -> 16         0.30038
      12 -> 18         0.17248
      13 -> 16         0.12746
      13 -> 21        -0.14374
      13 -> 22         0.51667

 Excited State  10:      Singlet-A      9.9049 eV  125.17 nm  f=0.0416  <S**2>=0.000
      11 -> 14         0.40581
      11 -> 15        -0.23407
      11 -> 16        -0.32536
      11 -> 19        -0.10438
      11 -> 21        -0.10774
      12 -> 16        -0.14092
      12 -> 17         0.16843
      13 -> 21         0.17300
      13 -> 22         0.13585

 Excited State  11:      Singlet-A      9.9575 eV  124.51 nm  f=0.0275  <S**2>=0.000
      11 -> 14        -0.22190
      11 -> 16         0.14687
      12 -> 15        -0.21413
      12 -> 16        -0.24835
      12 -> 18        -0.18148
      12 -> 19        -0.19547
      13 -> 20        -0.10322
      13 -> 21         0.29227
      13 -> 22         0.29647
      13 -> 23         0.10243

 Excited State  12:      Singlet-A     10.1199 eV  122.52 nm  f=0.0181  <S**2>=0.000
      11 -> 15         0.40883
      12 -> 15         0.10548
      12 -> 16         0.22923
      12 -> 19         0.11958
      13 -> 20        -0.18930
      13 -> 21         0.42373

 Excited State  13:      Singlet-A     10.2115 eV  121.42 nm  f=0.0172  <S**2>=0.000
      10 -> 15         0.19270
      11 -> 14         0.23182
      11 -> 15         0.35886
      12 -> 15         0.10295
      12 -> 16        -0.35708
      12 -> 17        -0.16359
      13 -> 21        -0.17617
      13 -> 22         0.12484

 Excited State  14:      Singlet-A     10.3059 eV  120.30 nm  f=0.0080  <S**2>=0.000
      10 -> 16         0.16401
      11 -> 14         0.19690
      11 -> 15        -0.30972
      11 -> 16         0.31195
      12 -> 15         0.26988
      12 -> 17        -0.22344
      13 -> 21         0.13299

 Excited State  15:      Singlet-A     10.4676 eV  118.45 nm  f=0.1022  <S**2>=0.000
      10 -> 14        -0.10754
      11 -> 14        -0.28213
      11 -> 18        -0.15072
      12 -> 15         0.39586
      12 -> 16        -0.24365
      12 -> 17         0.10426
      12 -> 18         0.22313
      13 -> 17        -0.11202
      13 -> 21         0.15572

 The electronic state is 1-A.
 Alpha  occ. eigenvalues --   -3.70962  -1.24524  -0.93429  -0.89618  -0.88378
 Alpha  occ. eigenvalues --   -0.81128  -0.72631  -0.60091  -0.57277  -0.48438
 Alpha  occ. eigenvalues --   -0.46564  -0.42245  -0.30990
 Alpha virt. eigenvalues --    0.14528   0.19081   0.20151   0.21301   0.22579
 Alpha virt. eigenvalues --    0.24525   0.29562   0.31308   0.31570   0.34411
 Alpha virt. eigenvalues --    0.40093

 Mulliken charges:
               1
     1  C    0.168536
     2  C   -1.115499
     3  O    2.355953
     4  C   -1.137041
     5  C    0.037511
     6  H   -0.119008
     7  H   -0.016397
     8  H   -0.044990
     9  H   -0.129065
 Sum of Mulliken charges =   0.00000

 Dipole moment (field-independent basis, Debye):
    X=             -2.5708    Y=             -8.4483    Z=             -0.1685  Tot=              8.8324
 N-N= 1.044724473454D+02 E-N=-1.711756942961D+02  KE=-2.123598011717D+01
 Orbital energies and kinetic energies (alpha):
                                 1                 2
   1         O                -3.709620         -3.048357
   2         O                -1.245240         -1.098036
   3         O                -0.934286         -0.894161
   4         O                -0.896183         -0.830060
   5         O                -0.883778         -0.814411
   6         O                -0.811278         -0.702372
   7         O                -0.726315         -0.699345

 Normal termination of Gaussian 09 at Fri Dec 11 13:41:20 2015.
