 Gaussian 09, Revision D.01,
 Gaussian 09:  ES64L-G09RevD.01 24-Apr-2013

 -------------------------------------------------------
 #P B3LYP/3-21G CIS(Singlets,NStates=15) pop(full) force
 -------------------------------------------------------

 --------
 FuranDFT
 --------
 Symbolic Z-matrix:
 Charge =  0 Multiplicity = 1

                         Standard orientation:
 ---------------------------------------------------------------------
 Center     Atomic      Atomic             Coordinates (Angstroms)
 Number     Number       Type             X           Y           Z
 ---------------------------------------------------------------------
      1          6           0        0.891225    0.800723    0.015921
      2          6           0        1.016608   -0.509661    0.031629
      3          8           0       -0.214954   -1.150807   -0.014098
      4          6           0       -1.141199   -0.136255   -0.007561
      5          6           0       -0.532356    1.050949   -0.024795
      6          1           0       -1.111574    2.035757    0.060398
      7          1           0       -2.156911   -0.506916    0.075583
      8          1           0        1.919511   -1.151118   -0.050373
      9          1           0        1.662937    1.594196   -0.063994
 ---------------------------------------------------------------------

 SCF Done:  E(RB3LYP) =  -228.742091677     A.U. after   14 cycles

 Excitation energies and oscillator strengths:

 Excited State   1:      Singlet-A      7.3695 eV  168.24 nm  f=0.1009  <S**2>=0.000
      17 -> 19        -0.35105
      18 -> 19         0.49346
      18 -> 20        -0.33419
 This state for optimization and/or second-order correction.
 Total Energy, E(CIS) =  -228.471267855
 Copying the excited state density for this state as the 1-particle RhoCI density.

 Excited State   2:      Singlet-A      7.4816 eV  165.72 nm  f=0.1076  <S**2>=0.000
      17 -> 19         0.38734
      18 -> 19         0.47294
      18 -> 20         0.32288

 Excited State   3:      Singlet-A      8.3623 eV  148.27 nm  f=0.0046  <S**2>=0.000
      18 -> 20        -0.11235
      18 -> 21         0.68326

 Excited State   4:      Singlet-A      8.9470 eV  138.58 nm  f=0.0046  <S**2>=0.000
      16 -> 19         0.69288

 Excited State   5:      Singlet-A      9.2854 eV  133.53 nm  f=0.0337  <S**2>=0.000
      17 -> 20        -0.44536
      17 -> 21         0.44911
      18 -> 22         0.18483
      18 -> 23        -0.19181

 Excited State   6:      Singlet-A      9.3519 eV  132.58 nm  f=0.0209  <S**2>=0.000
      17 -> 20         0.10551
      17 -> 21        -0.15412
      18 -> 20         0.12906
      18 -> 21         0.10498
      18 -> 22         0.63752

 Excited State   7:      Singlet-A      9.5164 eV  130.28 nm  f=0.0468  <S**2>=0.000
      15 -> 19         0.14220
      17 -> 20        -0.34403
      17 -> 21        -0.12617
      18 -> 23         0.55504

 Excited State   8:      Singlet-A      9.7104 eV  127.68 nm  f=0.0615  <S**2>=0.000
      17 -> 20         0.33725
      17 -> 21         0.48646
      18 -> 23         0.33672

 Excited State   9:      Singlet-A      9.9186 eV  125.00 nm  f=0.1001  <S**2>=0.000
      15 -> 19         0.56023
      17 -> 19        -0.17681
      18 -> 20         0.20533
      18 -> 23        -0.15688
      18 -> 24         0.22458

 Excited State  10:      Singlet-A      9.9484 eV  124.63 nm  f=0.3432  <S**2>=0.000
      15 -> 19        -0.33994
      17 -> 19        -0.33302
      18 -> 20         0.38157
      18 -> 22        -0.17304

 Excited State  11:      Singlet-A     10.1487 eV  122.17 nm  f=0.0131  <S**2>=0.000
      15 -> 19        -0.19380
      18 -> 24         0.65572

 Excited State  12:      Singlet-A     10.3844 eV  119.39 nm  f=0.0026  <S**2>=0.000
      14 -> 19         0.33932
      16 -> 20         0.20317
      17 -> 22         0.56690

 Excited State  13:      Singlet-A     10.4685 eV  118.44 nm  f=0.0312  <S**2>=0.000
      14 -> 19         0.49525
      16 -> 20         0.23111
      17 -> 22        -0.38649

 Excited State  14:      Singlet-A     10.7143 eV  115.72 nm  f=0.0068  <S**2>=0.000
      17 -> 23         0.67026
      17 -> 24        -0.14285
      17 -> 25         0.13263

 Excited State  15:      Singlet-A     10.8341 eV  114.44 nm  f=0.0184  <S**2>=0.000
      13 -> 19         0.22937
      14 -> 19        -0.28364
      16 -> 20         0.58433

 The electronic state is 1-A.
 Alpha  occ. eigenvalues --  -19.10783 -10.17622 -10.17371 -10.13010 -10.12821
 Alpha  occ. eigenvalues --   -1.11696  -0.81139  -0.74874  -0.59825  -0.56726
 Alpha  occ. eigenvalues --   -0.53489  -0.44732  -0.43323  -0.41611  -0.39501
 Alpha  occ. eigenvalues --   -0.36401  -0.27891  -0.23923
 Alpha virt. eigenvalues --    0.02329   0.08232   0.11606   0.14650   0.16206
 Alpha virt. eigenvalues --    0.17180   0.21284   0.22842   0.36534   0.42586
 Alpha virt. eigenvalues --    0.46972   0.67972   0.69523   0.70102   0.76085

 Mulliken charges:
               1
     1  C   -0.252130
     2  C    0.087997
     3  O   -0.478991
     4  C    0.083686
     5  C   -0.245869
     6  H    0.182030
     7  H    0.218279
     8  H    0.212652
     9  H    0.192347
 Sum of Mulliken charges =   0.00000

 Dipole moment (field-independent basis, Debye):
    X=              0.1414    Y=              0.7970    Z=              0.0315  Tot=              0.8101
 Quadrupole moment (field-independent basis, Debye-Ang):
   XX=            -23.6101   YY=            -28.1838   ZZ=            -31.8185
   XY=             -0.5898   XZ=             -0.5667   YZ=              0.0509

 Normal termination of Gaussian 09 at Tue Dec 15 16:30:28 2015.
