 Gaussian 09, Revision D.01,
 Gaussian 09:  ES64L-G09RevD.01 24-Apr-2013

 ------------------------------------------------------------
 #P AM1(Input,print) CIS(Singlets,NStates=15) pop(full) force
 ------------------------------------------------------------

 -----------------
 AM1-Reparam Input
 -----------------
 Symbolic Z-matrix:
 Charge =  0 Multiplicity = 1

                         Standard orientation:
 ---------------------------------------------------------------------
 Center     Atomic      Atomic             Coordinates (Angstroms)
 Number     Number       Type             X           Y           Z
 ---------------------------------------------------------------------
      1          6           0       -0.947164    0.716686   -0.010814
      2          6           0       -1.014519   -0.569908    0.008926
      3          8           0        0.305405   -1.133132   -0.007615
      4          6           0        1.159974   -0.111578   -0.002272
      5          6           0        0.462598    1.147134    0.014043
      6          1           0        0.936790    2.101913   -0.021668
      7          1           0        2.235390   -0.305277    0.012470
      8          1           0       -1.786927   -1.281373    0.020675
      9          1           0       -1.793824    1.455788   -0.009853
 ---------------------------------------------------------------------

 SCF Done:  E(RAM1) =   2.11228980391     A.U. after   14 cycles

 Excitation energies and oscillator strengths:

 Excited State   1:      Singlet-A      5.3310 eV  232.57 nm  f=0.3657  <S**2>=0.000
      13 -> 14         0.69692
 This state for optimization and/or second-order correction.
 Total Energy, E(CIS) =   2.30819880617
 Copying the excited state density for this state as the 1-particle RhoCI density.

 Excited State   2:      Singlet-A      6.1869 eV  200.40 nm  f=0.0020  <S**2>=0.000
      13 -> 15         0.66526
      13 -> 17        -0.17143
      13 -> 19        -0.10705

 Excited State   3:      Singlet-A      6.7330 eV  184.14 nm  f=0.0008  <S**2>=0.000
      11 -> 16         0.10882
      13 -> 16         0.67061
      13 -> 19         0.13410

 Excited State   4:      Singlet-A      6.9966 eV  177.21 nm  f=0.0007  <S**2>=0.000
      12 -> 14         0.70128

 Excited State   5:      Singlet-A      7.8750 eV  157.44 nm  f=0.0008  <S**2>=0.000
      13 -> 15         0.14003
      13 -> 17         0.50771
      13 -> 18         0.22986
      13 -> 19         0.21428
      13 -> 21        -0.24400
      13 -> 22         0.19712

 Excited State   6:      Singlet-A      8.2443 eV  150.39 nm  f=0.0114  <S**2>=0.000
      10 -> 14         0.44997
      13 -> 17        -0.26079
      13 -> 18         0.34932
      13 -> 19         0.21735
      13 -> 21        -0.10577
      13 -> 22         0.13316

 Excited State   7:      Singlet-A      8.3564 eV  148.37 nm  f=0.0007  <S**2>=0.000
      10 -> 14         0.50827
      13 -> 17         0.32927
      13 -> 18        -0.26152
      13 -> 21         0.12697

 Excited State   8:      Singlet-A      8.8277 eV  140.45 nm  f=0.0020  <S**2>=0.000
      13 -> 17        -0.13509
      13 -> 18        -0.43947
      13 -> 19         0.47660
      13 -> 21        -0.19025

 Excited State   9:      Singlet-A      8.9805 eV  138.06 nm  f=0.0364  <S**2>=0.000
      10 -> 14        -0.12202
      11 -> 14         0.61334
      12 -> 16        -0.14518
      12 -> 17        -0.14135
      13 -> 20         0.18646

 Excited State  10:      Singlet-A      9.3400 eV  132.75 nm  f=0.0181  <S**2>=0.000
      13 -> 18         0.17601
      13 -> 19         0.35723
      13 -> 21         0.50761
      13 -> 22        -0.24266

 Excited State  11:      Singlet-A      9.6626 eV  128.31 nm  f=0.0461  <S**2>=0.000
       9 -> 15        -0.11918
      10 -> 16         0.10251
      10 -> 17        -0.10838
      12 -> 15         0.41928
      12 -> 16        -0.23356
      12 -> 17        -0.23206
      12 -> 18        -0.11396
      12 -> 19        -0.11085
      13 -> 20        -0.29411

 Excited State  12:      Singlet-A      9.8757 eV  125.54 nm  f=0.0766  <S**2>=0.000
      11 -> 15        -0.16890
      13 -> 18        -0.11909
      13 -> 21         0.30317
      13 -> 22         0.57935

 Excited State  13:      Singlet-A     10.0158 eV  123.79 nm  f=0.1929  <S**2>=0.000
      11 -> 14         0.21514
      11 -> 15         0.10350
      12 -> 15         0.11508
      12 -> 16         0.53616
      13 -> 20        -0.31172

 Excited State  14:      Singlet-A     10.0912 eV  122.86 nm  f=0.0591  <S**2>=0.000
      10 -> 15        -0.15861
      11 -> 14        -0.12583
      11 -> 15         0.12807
      12 -> 15         0.30926
      12 -> 16         0.22772
      13 -> 20         0.49357

 Excited State  15:      Singlet-A     10.1127 eV  122.60 nm  f=0.0055  <S**2>=0.000
       7 -> 15         0.13117
      11 -> 15         0.60753
      12 -> 16        -0.15163
      13 -> 15         0.12859
      13 -> 22         0.14676

 The electronic state is 1-A.
 Alpha  occ. eigenvalues --   -1.92833  -1.17242  -0.92704  -0.80139  -0.77913
 Alpha  occ. eigenvalues --   -0.69061  -0.64916  -0.55719  -0.53157  -0.45058
 Alpha  occ. eigenvalues --   -0.44784  -0.40792  -0.28101
 Alpha virt. eigenvalues --    0.11636   0.17457   0.19571   0.25447   0.28184
 Alpha virt. eigenvalues --    0.29308   0.30885   0.31216   0.32647   0.39110
 Alpha virt. eigenvalues --    0.43334

 Mulliken charges:
               1
     1  C   -0.057754
     2  C   -1.828429
     3  O    3.211680
     4  C   -1.925732
     5  C   -0.244192
     6  H    0.164162
     7  H    0.280760
     8  H    0.250173
     9  H    0.149333
 Sum of Mulliken charges =   0.00000

 Dipole moment (field-independent basis, Debye):
    X=              2.6604    Y=            -10.7815    Z=             -0.1492  Tot=             11.1059
 N-N= 1.034177116748D+02 E-N=-1.680989679152D+02  KE=-1.526348722465D+01
 Orbital energies and kinetic energies (alpha):
                                 1                 2
   1         O                -1.928327         -1.339026
   2         O                -1.172422         -1.036810
   3         O                -0.927035         -0.880140
   4         O                -0.801388         -0.562824
   5         O                -0.779128         -0.689861
   6         O                -0.690612         -0.578557
   7         O                -0.649162         -0.519254

 Normal termination of Gaussian 09 at Tue Dec 15 17:09:15 2015.
