 Gaussian 09, Revision D.01,
 Gaussian 09:  ES64L-G09RevD.01 24-Apr-2013

 ------------------------------------------------------------
 #P AM1(Input,print) CIS(Singlets,NStates=15) pop(full) force
 ------------------------------------------------------------

 -----------------
 AM1-Reparam Input
 -----------------
 Symbolic Z-matrix:
 Charge =  0 Multiplicity = 1

                         Standard orientation:
 ---------------------------------------------------------------------
 Center     Atomic      Atomic             Coordinates (Angstroms)
 Number     Number       Type             X           Y           Z
 ---------------------------------------------------------------------
      1          6           0        0.284427    1.155142   -0.014745
      2          6           0       -1.009958    0.597668   -0.004234
      3          8           0       -0.898506   -0.785851    0.003526
      4          6           0        0.448782   -1.041636    0.009463
      5          6           0        1.206793    0.132270   -0.010155
      6          1           0        2.319277    0.109767    0.026051
      7          1           0        0.757952   -2.073515   -0.015654
      8          1           0       -1.915603    0.955824    0.004693
      9          1           0        0.446161    2.234072    0.074725
 ---------------------------------------------------------------------

 SCF Done:  E(RAM1) =   2.80770971762     A.U. after   14 cycles

 Excitation energies and oscillator strengths:

 Excited State   1:      Singlet-A      5.6372 eV  219.94 nm  f=0.3065  <S**2>=0.000
      13 -> 14         0.69008
 This state for optimization and/or second-order correction.
 Total Energy, E(CIS) =   3.01487245428
 Copying the excited state density for this state as the 1-particle RhoCI density.

 Excited State   2:      Singlet-A      6.7831 eV  182.78 nm  f=0.0076  <S**2>=0.000
      11 -> 15         0.10927
      13 -> 15         0.62430
      13 -> 16         0.17521
      13 -> 17        -0.21720

 Excited State   3:      Singlet-A      7.1674 eV  172.98 nm  f=0.0030  <S**2>=0.000
       9 -> 14         0.11415
      12 -> 14         0.64316
      13 -> 16        -0.20299

 Excited State   4:      Singlet-A      7.2387 eV  171.28 nm  f=0.0028  <S**2>=0.000
      12 -> 14         0.23664
      13 -> 15        -0.13110
      13 -> 16         0.59036
      13 -> 18        -0.14693
      13 -> 19         0.14935

 Excited State   5:      Singlet-A      7.6962 eV  161.10 nm  f=0.0045  <S**2>=0.000
      10 -> 14         0.64254
      11 -> 14         0.25988

 Excited State   6:      Singlet-A      8.2384 eV  150.50 nm  f=0.0075  <S**2>=0.000
      11 -> 15         0.14785
      13 -> 15         0.17627
      13 -> 17         0.51247
      13 -> 18        -0.23404
      13 -> 21         0.31740

 Excited State   7:      Singlet-A      8.5250 eV  145.44 nm  f=0.0037  <S**2>=0.000
      11 -> 16         0.15444
      13 -> 17        -0.37327
      13 -> 18        -0.27354
      13 -> 19        -0.13006
      13 -> 21         0.46802

 Excited State   8:      Singlet-A      8.6048 eV  144.09 nm  f=0.1053  <S**2>=0.000
      10 -> 14        -0.26338
      11 -> 14         0.63912

 Excited State   9:      Singlet-A      9.0027 eV  137.72 nm  f=0.0006  <S**2>=0.000
      11 -> 15         0.10398
      11 -> 16         0.12180
      13 -> 16        -0.13324
      13 -> 17        -0.11296
      13 -> 18        -0.12111
      13 -> 19         0.63184

 Excited State  10:      Singlet-A      9.2270 eV  134.37 nm  f=0.0023  <S**2>=0.000
      13 -> 18         0.55682
      13 -> 19         0.17089
      13 -> 21         0.37751

 Excited State  11:      Singlet-A      9.4199 eV  131.62 nm  f=0.0693  <S**2>=0.000
       8 -> 15        -0.11744
       9 -> 15         0.11748
       9 -> 16        -0.10452
      10 -> 15        -0.26392
      10 -> 16        -0.25763
      10 -> 17         0.25614
      11 -> 16        -0.10750
      12 -> 15         0.29254
      12 -> 17        -0.15422
      12 -> 18         0.16464
      12 -> 21        -0.12212
      13 -> 14        -0.10657

 Excited State  12:      Singlet-A      9.6823 eV  128.05 nm  f=0.0926  <S**2>=0.000
      11 -> 16         0.10740
      13 -> 20         0.67785

 Excited State  13:      Singlet-A      9.8759 eV  125.54 nm  f=0.0140  <S**2>=0.000
      10 -> 15        -0.11035
      11 -> 15         0.56793
      11 -> 16         0.16080
      11 -> 17        -0.10576
      11 -> 20         0.10314
      12 -> 16        -0.15173
      13 -> 15        -0.15027
      13 -> 16         0.13606

 Excited State  14:      Singlet-A      9.9696 eV  124.36 nm  f=0.0122  <S**2>=0.000
       9 -> 15        -0.11936
      10 -> 15         0.32830
      10 -> 16        -0.10493
      10 -> 17        -0.13206
      10 -> 18         0.10183
      10 -> 19        -0.11754
      11 -> 15         0.17422
      12 -> 15         0.27530
      12 -> 16         0.38894
      12 -> 17        -0.15669

 Excited State  15:      Singlet-A     10.0676 eV  123.15 nm  f=0.1845  <S**2>=0.000
       8 -> 15         0.14904
      10 -> 15        -0.31387
      10 -> 16        -0.10023
      12 -> 15        -0.35134
      12 -> 16         0.38385
      12 -> 19         0.17235

 The electronic state is 1-A.
 Alpha  occ. eigenvalues --   -1.69974  -1.11430  -0.91300  -0.78462  -0.75483
 Alpha  occ. eigenvalues --   -0.66417  -0.62386  -0.53213  -0.49929  -0.42596
 Alpha  occ. eigenvalues --   -0.41874  -0.40885  -0.29682
 Alpha virt. eigenvalues --    0.12313   0.18872   0.21176   0.24617   0.27369
 Alpha virt. eigenvalues --    0.28234   0.29578   0.31175   0.36301   0.45583
 Alpha virt. eigenvalues --    0.49123

 Mulliken charges:
               1
     1  C   -0.102164
     2  C   -1.964008
     3  O    3.211715
     4  C   -1.977468
     5  C   -0.107350
     6  H    0.176799
     7  H    0.302296
     8  H    0.284756
     9  H    0.175425
 Sum of Mulliken charges =   0.00000

 Dipole moment (field-independent basis, Debye):
    X=             -7.4941    Y=             -7.2960    Z=              0.0712  Tot=             10.4594
 N-N= 1.034975023882D+02 E-N=-1.683579208426D+02  KE=-1.474902616468D+01
 Orbital energies and kinetic energies (alpha):
                                 1                 2
   1         O                -1.699741         -1.185777
   2         O                -1.114299         -0.992193
   3         O                -0.913002         -0.841873
   4         O                -0.784622         -0.607367
   5         O                -0.754830         -0.673370
   6         O                -0.664175         -0.574039
   7         O                -0.623857         -0.516714

 Normal termination of Gaussian 09 at Tue Dec 15 17:06:01 2015.
