 Gaussian 09, Revision D.01,
 Gaussian 09:  ES64L-G09RevD.01 24-Apr-2013

 ------------------------------------------------------------
 #P AM1(Input,print) CIS(Singlets,NStates=15) pop(full) force
 ------------------------------------------------------------

 -----------------
 AM1-Reparam Input
 -----------------
 Symbolic Z-matrix:
 Charge =  0 Multiplicity = 1

                         Standard orientation:
 ---------------------------------------------------------------------
 Center     Atomic      Atomic             Coordinates (Angstroms)
 Number     Number       Type             X           Y           Z
 ---------------------------------------------------------------------
      1          6           0        0.225668    1.175268    0.009621
      2          6           0        1.134246    0.127333   -0.014697
      3          8           0        0.512387   -1.068016    0.009717
      4          6           0       -0.839463   -0.714196   -0.009019
      5          6           0       -1.062685    0.545460   -0.011297
      6          1           0       -1.968830    1.034051    0.041291
      7          1           0       -1.511663   -1.649770    0.015622
      8          1           0        2.190800    0.169636    0.015316
      9          1           0        0.443995    2.187015    0.002382
 ---------------------------------------------------------------------

 SCF Done:  E(RAM1) =   1.12150296781     A.U. after   13 cycles

 Excitation energies and oscillator strengths:

 Excited State   1:      Singlet-A      5.4879 eV  225.92 nm  f=0.2054  <S**2>=0.000
      12 -> 15        -0.14368
      13 -> 14         0.68048
 This state for optimization and/or second-order correction.
 Total Energy, E(CIS) =   1.32317834409
 Copying the excited state density for this state as the 1-particle RhoCI density.

 Excited State   2:      Singlet-A      6.4130 eV  193.33 nm  f=0.0028  <S**2>=0.000
      13 -> 16         0.32374
      13 -> 17         0.59654
      13 -> 19        -0.15951

 Excited State   3:      Singlet-A      6.6033 eV  187.76 nm  f=0.0001  <S**2>=0.000
      13 -> 16         0.59126
      13 -> 17        -0.31840
      13 -> 18         0.14236
      13 -> 21         0.10994

 Excited State   4:      Singlet-A      6.7891 eV  182.62 nm  f=0.0350  <S**2>=0.000
      12 -> 14         0.33232
      13 -> 15         0.60818

 Excited State   5:      Singlet-A      7.3761 eV  168.09 nm  f=0.0002  <S**2>=0.000
       9 -> 14        -0.12130
      11 -> 14         0.69162

 Excited State   6:      Singlet-A      8.0234 eV  154.53 nm  f=0.1607  <S**2>=0.000
      10 -> 14        -0.38979
      12 -> 14         0.48955
      13 -> 15        -0.25209

 Excited State   7:      Singlet-A      8.0968 eV  153.13 nm  f=0.0017  <S**2>=0.000
      12 -> 16        -0.13423
      13 -> 16        -0.10627
      13 -> 18         0.64230
      13 -> 19        -0.10419
      13 -> 24         0.15617

 Excited State   8:      Singlet-A      8.1165 eV  152.76 nm  f=0.0932  <S**2>=0.000
      10 -> 14         0.54810
      11 -> 15         0.11851
      12 -> 14         0.34668
      13 -> 15        -0.18214

 Excited State   9:      Singlet-A      8.5235 eV  145.46 nm  f=0.0001  <S**2>=0.000
      12 -> 17         0.11051
      13 -> 19        -0.30934
      13 -> 20         0.57725
      13 -> 21         0.10704
      13 -> 23         0.11296

 Excited State  10:      Singlet-A      8.6574 eV  143.21 nm  f=0.0256  <S**2>=0.000
      12 -> 15         0.29843
      12 -> 16         0.21734
      12 -> 17         0.53472

 Excited State  11:      Singlet-A      8.6935 eV  142.62 nm  f=0.0956  <S**2>=0.000
       9 -> 17        -0.10185
      11 -> 15        -0.13674
      11 -> 16        -0.10712
      11 -> 18        -0.10582
      12 -> 15         0.51139
      12 -> 16        -0.13417
      12 -> 17        -0.29733
      13 -> 14         0.11535

 Excited State  12:      Singlet-A      8.7876 eV  141.09 nm  f=0.0225  <S**2>=0.000
       9 -> 15         0.27877
      10 -> 14        -0.17012
      11 -> 15         0.57645
      12 -> 15         0.14316

 Excited State  13:      Singlet-A      8.9254 eV  138.91 nm  f=0.0036  <S**2>=0.000
      12 -> 16         0.52102
      12 -> 17        -0.16902
      13 -> 18         0.11868
      13 -> 19         0.26904
      13 -> 20         0.27355

 Excited State  14:      Singlet-A      9.3721 eV  132.29 nm  f=0.0006  <S**2>=0.000
       9 -> 14         0.11542
      12 -> 16         0.18766
      12 -> 17        -0.11428
      13 -> 16        -0.10725
      13 -> 19        -0.19027
      13 -> 20        -0.15390
      13 -> 21         0.57535
      13 -> 22        -0.13100

 Excited State  15:      Singlet-A      9.4544 eV  131.14 nm  f=0.0009  <S**2>=0.000
      12 -> 16        -0.24725
      12 -> 17         0.20321
      13 -> 17         0.11920
      13 -> 19         0.48212
      13 -> 20         0.16236
      13 -> 21         0.29974

 The electronic state is 1-A.
 Alpha  occ. eigenvalues --   -1.81519  -1.20947  -0.98053  -0.87598  -0.80814
 Alpha  occ. eigenvalues --   -0.74233  -0.71417  -0.59103  -0.55523  -0.52175
 Alpha  occ. eigenvalues --   -0.49511  -0.47132  -0.37261
 Alpha virt. eigenvalues --    0.04325   0.09510   0.10352   0.10839   0.19120
 Alpha virt. eigenvalues --    0.19510   0.21247   0.22292   0.26684   0.27830
 Alpha virt. eigenvalues --    0.28987

 Mulliken charges:
               1
     1  C   -0.165245
     2  C   -1.236206
     3  O    2.103288
     4  C   -1.218808
     5  C   -0.083612
     6  H    0.098888
     7  H    0.199101
     8  H    0.201694
     9  H    0.100901
 Sum of Mulliken charges =   0.00000

 Dipole moment (field-independent basis, Debye):
    X=              3.0342    Y=             -7.0903    Z=              0.2676  Tot=              7.7169
 N-N= 1.045428859102D+02 E-N=-1.715345994766D+02  KE=-1.500244743075D+01
 Orbital energies and kinetic energies (alpha):
                                 1                 2
   1         O                -1.815192         -1.234890
   2         O                -1.209471         -0.994560
   3         O                -0.980530         -0.835270
   4         O                -0.875979         -0.613741
   5         O                -0.808138         -0.667002
   6         O                -0.742332         -0.596689
   7         O                -0.714175         -0.518036

 Normal termination of Gaussian 09 at Tue Dec 15 17:05:31 2015.
