 Gaussian 09, Revision D.01,
 Gaussian 09:  ES64L-G09RevD.01 24-Apr-2013

 ------------------------------------------------------------
 #P AM1(Input,print) CIS(Singlets,NStates=15) pop(full) force
 ------------------------------------------------------------

 -----------------
 AM1-Reparam Input
 -----------------
 Symbolic Z-matrix:
 Charge =  0 Multiplicity = 1

                         Standard orientation:
 ---------------------------------------------------------------------
 Center     Atomic      Atomic             Coordinates (Angstroms)
 Number     Number       Type             X           Y           Z
 ---------------------------------------------------------------------
      1          6           0        0.793690    0.909031   -0.010062
      2          6           0        1.055359   -0.510029    0.011774
      3          8           0       -0.149891   -1.129275   -0.013064
      4          6           0       -1.121935   -0.230682   -0.006400
      5          6           0       -0.571771    1.008855    0.009104
      6          1           0       -1.136870    2.020088    0.001615
      7          1           0       -2.183792   -0.585309    0.049894
      8          1           0        1.969325   -1.125736    0.039170
      9          1           0        1.618412    1.662100   -0.012663
 ---------------------------------------------------------------------

 SCF Done:  E(RAM1) =   1.75013482465     A.U. after   14 cycles

 Excitation energies and oscillator strengths:

 Excited State   1:      Singlet-A      5.8621 eV  211.50 nm  f=0.3132  <S**2>=0.000
      13 -> 14         0.68460
 This state for optimization and/or second-order correction.
 Total Energy, E(CIS) =   1.96556272752
 Copying the excited state density for this state as the 1-particle RhoCI density.

 Excited State   2:      Singlet-A      7.0423 eV  176.06 nm  f=0.0091  <S**2>=0.000
      13 -> 15         0.64275
      13 -> 16         0.20982
      13 -> 17        -0.13396

 Excited State   3:      Singlet-A      7.4115 eV  167.29 nm  f=0.0007  <S**2>=0.000
      11 -> 15        -0.10697
      13 -> 15        -0.20112
      13 -> 16         0.62876
      13 -> 19         0.16953

 Excited State   4:      Singlet-A      7.6776 eV  161.49 nm  f=0.0017  <S**2>=0.000
      12 -> 14         0.69748

 Excited State   5:      Singlet-A      8.2073 eV  151.07 nm  f=0.0037  <S**2>=0.000
      10 -> 14         0.62550
      11 -> 14         0.30333

 Excited State   6:      Singlet-A      8.6781 eV  142.87 nm  f=0.0003  <S**2>=0.000
      13 -> 17        -0.33189
      13 -> 18         0.53440
      13 -> 21        -0.27516

 Excited State   7:      Singlet-A      9.0449 eV  137.08 nm  f=0.0970  <S**2>=0.000
      10 -> 14        -0.30035
      11 -> 14         0.62158

 Excited State   8:      Singlet-A      9.2874 eV  133.50 nm  f=0.0081  <S**2>=0.000
      11 -> 16        -0.18038
      13 -> 15         0.10444
      13 -> 17         0.55493
      13 -> 18         0.31946
      13 -> 19         0.10334

 Excited State   9:      Singlet-A      9.6975 eV  127.85 nm  f=0.2251  <S**2>=0.000
       9 -> 16         0.11051
      10 -> 15        -0.25409
      10 -> 18         0.19798
      11 -> 15        -0.11835
      12 -> 15         0.31057
      12 -> 16         0.24752
      12 -> 17        -0.28515
      12 -> 18         0.14743
      13 -> 14         0.15131

 Excited State  10:      Singlet-A      9.8556 eV  125.80 nm  f=0.0008  <S**2>=0.000
      10 -> 15        -0.10027
      11 -> 15         0.24413
      11 -> 16         0.21584
      13 -> 18        -0.13837
      13 -> 19         0.57330

 Excited State  11:      Singlet-A     10.0965 eV  122.80 nm  f=0.0529  <S**2>=0.000
      10 -> 15         0.14253
      12 -> 15         0.57484
      12 -> 16        -0.24765
      12 -> 18        -0.16004
      12 -> 19        -0.11731

 Excited State  12:      Singlet-A     10.3343 eV  119.97 nm  f=0.0036  <S**2>=0.000
      10 -> 15        -0.20730
      11 -> 15         0.50789
      11 -> 16         0.16455
      11 -> 20         0.10750
      13 -> 15        -0.11150
      13 -> 16         0.17640
      13 -> 19        -0.29711

 Excited State  13:      Singlet-A     10.5150 eV  117.91 nm  f=0.0861  <S**2>=0.000
      10 -> 15         0.14830
      10 -> 16         0.45377
      10 -> 19         0.15833
      11 -> 16         0.27065
      12 -> 16         0.13069
      12 -> 17        -0.20648
      12 -> 18         0.10950
      13 -> 20         0.10752
      13 -> 21        -0.15416

 Excited State  14:      Singlet-A     10.5618 eV  117.39 nm  f=0.0174  <S**2>=0.000
      10 -> 16         0.20244
      13 -> 17        -0.11269
      13 -> 18         0.22682
      13 -> 19         0.12850
      13 -> 20        -0.16211
      13 -> 21         0.56182

 Excited State  15:      Singlet-A     10.6492 eV  116.43 nm  f=0.0436  <S**2>=0.000
      10 -> 16        -0.20326
      11 -> 15        -0.12631
      11 -> 16         0.38352
      13 -> 17         0.10679
      13 -> 18         0.13288
      13 -> 20         0.41184
      13 -> 21         0.22075

 The electronic state is 1-A.
 Alpha  occ. eigenvalues --   -1.99966  -1.26952  -0.98864  -0.89134  -0.84511
 Alpha  occ. eigenvalues --   -0.75312  -0.74730  -0.64152  -0.61648  -0.51969
 Alpha  occ. eigenvalues --   -0.51642  -0.50291  -0.39151
 Alpha virt. eigenvalues --    0.04375   0.10273   0.11853   0.18032   0.19449
 Alpha virt. eigenvalues --    0.21768   0.23965   0.26010   0.31113   0.38588
 Alpha virt. eigenvalues --    0.44809

 Mulliken charges:
               1
     1  C   -0.099832
     2  C   -1.941296
     3  O    3.179038
     4  C   -1.926476
     5  C   -0.135254
     6  H    0.171320
     7  H    0.305691
     8  H    0.286716
     9  H    0.160093
 Sum of Mulliken charges =   0.00000

 Dipole moment (field-independent basis, Debye):
    X=             -1.7461    Y=             -9.4400    Z=             -0.0661  Tot=              9.6003
 N-N= 1.053867730808D+02 E-N=-1.702997349366D+02  KE=-1.560708887710D+01
 Orbital energies and kinetic energies (alpha):
                                 1                 2
   1         O                -1.999656         -1.394840
   2         O                -1.269519         -1.041598
   3         O                -0.988645         -0.848584
   4         O                -0.891342         -0.592692
   5         O                -0.845111         -0.689158
   6         O                -0.753118         -0.599251
   7         O                -0.747297         -0.564716

 Normal termination of Gaussian 09 at Tue Dec 15 17:08:53 2015.
