 Gaussian 09, Revision D.01,
 Gaussian 09:  ES64L-G09RevD.01 24-Apr-2013

 -------------------------------------------------------
 #P B3LYP/3-21G CIS(Singlets,NStates=15) pop(full) force
 -------------------------------------------------------

 --------
 FuranDFT
 --------
 Symbolic Z-matrix:
 Charge =  0 Multiplicity = 1

                         Standard orientation:
 ---------------------------------------------------------------------
 Center     Atomic      Atomic             Coordinates (Angstroms)
 Number     Number       Type             X           Y           Z
 ---------------------------------------------------------------------
      1          6           0       -0.970438    0.756641   -0.000216
      2          6           0       -0.964119   -0.659446    0.018662
      3          8           0        0.356775   -1.098251   -0.032885
      4          6           0        1.120594   -0.024233    0.048534
      5          6           0        0.427731    1.087000   -0.030332
      6          1           0        0.845592    2.120693   -0.014245
      7          1           0        2.155566   -0.269430    0.017029
      8          1           0       -1.711403   -1.383731    0.010699
      9          1           0       -1.826562    1.358707    0.029712
 ---------------------------------------------------------------------

 SCF Done:  E(RB3LYP) =  -228.737437946     A.U. after   14 cycles

 Excitation energies and oscillator strengths:

 Excited State   1:      Singlet-A      7.0559 eV  175.72 nm  f=0.1100  <S**2>=0.000
      17 -> 19         0.38304
      18 -> 19         0.50048
      18 -> 20         0.28336
 This state for optimization and/or second-order correction.
 Total Energy, E(CIS) =  -228.478137086
 Copying the excited state density for this state as the 1-particle RhoCI density.

 Excited State   2:      Singlet-A      7.3578 eV  168.51 nm  f=0.1111  <S**2>=0.000
      17 -> 19        -0.35573
      18 -> 19         0.46091
      18 -> 20        -0.37449

 Excited State   3:      Singlet-A      8.6069 eV  144.05 nm  f=0.0002  <S**2>=0.000
      18 -> 21         0.69321

 Excited State   4:      Singlet-A      8.7248 eV  142.10 nm  f=0.0103  <S**2>=0.000
      16 -> 19         0.68886

 Excited State   5:      Singlet-A      9.3543 eV  132.54 nm  f=0.2597  <S**2>=0.000
      17 -> 19         0.30062
      17 -> 20         0.44284
      18 -> 20        -0.31811
      18 -> 22         0.22737

 Excited State   6:      Singlet-A      9.4496 eV  131.21 nm  f=0.0270  <S**2>=0.000
      15 -> 19        -0.13279
      17 -> 20        -0.20541
      18 -> 22         0.61754
      18 -> 23         0.13282

 Excited State   7:      Singlet-A      9.7419 eV  127.27 nm  f=0.0068  <S**2>=0.000
      15 -> 19         0.65942
      16 -> 20        -0.12442
      18 -> 22         0.14204
      18 -> 23        -0.11159

 Excited State   8:      Singlet-A      9.7979 eV  126.54 nm  f=0.0011  <S**2>=0.000
      17 -> 21         0.60297
      18 -> 22         0.13200
      18 -> 23        -0.27817
      18 -> 24        -0.17551

 Excited State   9:      Singlet-A      9.8720 eV  125.59 nm  f=0.4085  <S**2>=0.000
      17 -> 19        -0.28176
      17 -> 20         0.46295
      18 -> 20         0.34999

 Excited State  10:      Singlet-A      9.9852 eV  124.17 nm  f=0.0030  <S**2>=0.000
      15 -> 19         0.13259
      17 -> 21         0.33226
      18 -> 23         0.56962
      18 -> 24         0.15848

 Excited State  11:      Singlet-A     10.3441 eV  119.86 nm  f=0.0051  <S**2>=0.000
      18 -> 23        -0.22172
      18 -> 24         0.65599

 Excited State  12:      Singlet-A     10.4831 eV  118.27 nm  f=0.0090  <S**2>=0.000
      14 -> 19         0.53687
      15 -> 19        -0.10101
      16 -> 20        -0.41124
      17 -> 22         0.10267

 Excited State  13:      Singlet-A     10.6401 eV  116.53 nm  f=0.0071  <S**2>=0.000
      17 -> 22         0.68066

 Excited State  14:      Singlet-A     10.7417 eV  115.42 nm  f=0.0011  <S**2>=0.000
      13 -> 19        -0.11255
      14 -> 19         0.41981
      16 -> 20         0.53952

 Excited State  15:      Singlet-A     10.9766 eV  112.95 nm  f=0.0030  <S**2>=0.000
      18 -> 25         0.67429
      18 -> 26         0.14433

 The electronic state is 1-A.
 Alpha  occ. eigenvalues --  -19.11349 -10.17669 -10.16795 -10.13107 -10.12250
 Alpha  occ. eigenvalues --   -1.13410  -0.80467  -0.75162  -0.60756  -0.57325
 Alpha  occ. eigenvalues --   -0.54104  -0.45225  -0.44988  -0.42619  -0.39532
 Alpha  occ. eigenvalues --   -0.36212  -0.27726  -0.23133
 Alpha virt. eigenvalues --    0.01786   0.08150   0.13192   0.15913   0.17912
 Alpha virt. eigenvalues --    0.18913   0.21912   0.23367   0.34123   0.42694
 Alpha virt. eigenvalues --    0.47584   0.68159   0.69921   0.70267   0.75374

 Mulliken charges:
               1
     1  C   -0.247958
     2  C    0.050256
     3  O   -0.483781
     4  C    0.125798
     5  C   -0.252990
     6  H    0.182256
     7  H    0.217183
     8  H    0.217358
     9  H    0.191876
 Sum of Mulliken charges =   0.00000

 Dipole moment (field-independent basis, Debye):
    X=             -0.2608    Y=              0.6038    Z=              0.0699  Tot=              0.6614
 Quadrupole moment (field-independent basis, Debye-Ang):
   XX=            -24.0055   YY=            -27.7375   ZZ=            -31.7618
   XY=              1.0522   XZ=             -0.0552   YZ=             -0.0103

 Normal termination of Gaussian 09 at Tue Dec 15 16:15:32 2015.
