 Gaussian 09, Revision D.01,
 Gaussian 09:  ES64L-G09RevD.01 24-Apr-2013

 ------------------------------------------------------------
 #P AM1(Input,print) CIS(Singlets,NStates=15) pop(full) force
 ------------------------------------------------------------

 -----------------
 AM1-Reparam Input
 -----------------
 Symbolic Z-matrix:
 Charge =  0 Multiplicity = 1

                         Standard orientation:
 ---------------------------------------------------------------------
 Center     Atomic      Atomic             Coordinates (Angstroms)
 Number     Number       Type             X           Y           Z
 ---------------------------------------------------------------------
      1          6           0       -0.257164    1.151475   -0.027852
      2          6           0        0.996723    0.546250   -0.011402
      3          8           0        0.909943   -0.750057    0.005757
      4          6           0       -0.485246   -1.033249   -0.014089
      5          6           0       -1.214787    0.121354    0.032600
      6          1           0       -2.271530    0.189291   -0.054279
      7          1           0       -0.693412   -2.123085    0.015739
      8          1           0        1.950343    0.986965    0.051470
      9          1           0       -0.502104    2.232304    0.065469
 ---------------------------------------------------------------------

 SCF Done:  E(RAM1) =   1.69431900020     A.U. after   14 cycles

 Excitation energies and oscillator strengths:

 Excited State   1:      Singlet-A      5.5095 eV  225.04 nm  f=0.3281  <S**2>=0.000
      13 -> 14         0.69196
 This state for optimization and/or second-order correction.
 Total Energy, E(CIS) =   1.89678774860
 Copying the excited state density for this state as the 1-particle RhoCI density.

 Excited State   2:      Singlet-A      6.3294 eV  195.89 nm  f=0.0084  <S**2>=0.000
      11 -> 15         0.10331
      13 -> 15         0.64558
      13 -> 17         0.23339

 Excited State   3:      Singlet-A      6.7081 eV  184.83 nm  f=0.0005  <S**2>=0.000
      11 -> 16        -0.14389
      13 -> 16         0.64256
      13 -> 18        -0.10698
      13 -> 20         0.14404

 Excited State   4:      Singlet-A      7.1349 eV  173.77 nm  f=0.0004  <S**2>=0.000
      12 -> 14         0.68133
      13 -> 21        -0.12228

 Excited State   5:      Singlet-A      7.6649 eV  161.76 nm  f=0.0149  <S**2>=0.000
      11 -> 16         0.11993
      12 -> 14         0.10634
      13 -> 15        -0.11739
      13 -> 16        -0.14686
      13 -> 17         0.48602
      13 -> 19        -0.14725
      13 -> 20         0.10445
      13 -> 21         0.38934

 Excited State   6:      Singlet-A      7.8731 eV  157.48 nm  f=0.0087  <S**2>=0.000
      10 -> 14        -0.11621
      11 -> 15         0.10592
      13 -> 15         0.16349
      13 -> 17        -0.39939
      13 -> 18         0.10249
      13 -> 19        -0.17165
      13 -> 20         0.16953
      13 -> 21         0.45158

 Excited State   7:      Singlet-A      8.1429 eV  152.26 nm  f=0.0012  <S**2>=0.000
      10 -> 14         0.65480
      13 -> 17        -0.14595
      13 -> 18        -0.15303

 Excited State   8:      Singlet-A      8.3301 eV  148.84 nm  f=0.0048  <S**2>=0.000
      10 -> 14         0.18140
      13 -> 18         0.63519
      13 -> 20        -0.12042

 Excited State   9:      Singlet-A      8.6482 eV  143.36 nm  f=0.0885  <S**2>=0.000
      11 -> 14         0.66107
      12 -> 16        -0.11672

 Excited State  10:      Singlet-A      8.6936 eV  142.62 nm  f=0.0121  <S**2>=0.000
      13 -> 18         0.16887
      13 -> 19        -0.39298
      13 -> 20         0.43252
      13 -> 21        -0.32888

 Excited State  11:      Singlet-A      9.0826 eV  136.51 nm  f=0.0692  <S**2>=0.000
      13 -> 19         0.49754
      13 -> 20         0.45826

 Excited State  12:      Singlet-A      9.4429 eV  131.30 nm  f=0.0209  <S**2>=0.000
       9 -> 15         0.14231
      10 -> 15         0.18533
      10 -> 17         0.20973
      11 -> 15         0.28435
      12 -> 15        -0.24230
      12 -> 16         0.28713
      12 -> 18        -0.17817
      12 -> 21         0.20167
      13 -> 19         0.10776

 Excited State  13:      Singlet-A      9.4805 eV  130.78 nm  f=0.0055  <S**2>=0.000
       7 -> 15        -0.11958
      10 -> 17        -0.11976
      11 -> 15         0.56489
      11 -> 17         0.12823
      12 -> 16        -0.18511
      12 -> 18         0.10255
      12 -> 21        -0.13543
      13 -> 15        -0.12187

 Excited State  14:      Singlet-A      9.6699 eV  128.22 nm  f=0.0537  <S**2>=0.000
      10 -> 15         0.22117
      10 -> 17         0.12150
      11 -> 14         0.10933
      12 -> 15         0.54495
      12 -> 17         0.24290
      12 -> 18         0.11276

 Excited State  15:      Singlet-A      9.9162 eV  125.03 nm  f=0.2887  <S**2>=0.000
       8 -> 16         0.19991
       9 -> 15        -0.13730
       9 -> 16         0.11175
      10 -> 15        -0.19535
      10 -> 17        -0.14886
      11 -> 14         0.10035
      12 -> 16         0.42250
      12 -> 17        -0.19809
      12 -> 18         0.21517
      12 -> 20         0.12336

 The electronic state is 1-A.
 Alpha  occ. eigenvalues --   -1.91191  -1.21969  -0.98219  -0.81664  -0.80544
 Alpha  occ. eigenvalues --   -0.68526  -0.63056  -0.53886  -0.51317  -0.43475
 Alpha  occ. eigenvalues --   -0.41677  -0.40419  -0.28108
 Alpha virt. eigenvalues --    0.13160   0.17685   0.19490   0.24804   0.26644
 Alpha virt. eigenvalues --    0.28838   0.29240   0.30138   0.36928   0.45998
 Alpha virt. eigenvalues --    0.50209

 Mulliken charges:
               1
     1  C   -0.185062
     2  C   -1.963509
     3  O    3.174106
     4  C   -1.919070
     5  C   -0.044210
     6  H    0.170796
     7  H    0.275822
     8  H    0.313769
     9  H    0.177358
 Sum of Mulliken charges =   0.00000

 Dipole moment (field-independent basis, Debye):
    X=              8.1912    Y=             -6.4619    Z=              0.4846  Tot=             10.4445
 N-N= 1.037699019743D+02 E-N=-1.691430011958D+02  KE=-1.572708129080D+01
 Orbital energies and kinetic energies (alpha):
                                 1                 2
   1         O                -1.911914         -1.377726
   2         O                -1.219694         -1.107893
   3         O                -0.982194         -0.897569
   4         O                -0.816645         -0.640323
   5         O                -0.805444         -0.699389
   6         O                -0.685261         -0.580879
   7         O                -0.630562         -0.509595

 Normal termination of Gaussian 09 at Tue Dec 15 17:07:04 2015.
