 Gaussian 09, Revision D.01,
 Gaussian 09:  ES64L-G09RevD.01 24-Apr-2013

 ------------------------------------------------------------
 #P AM1(Input,print) CIS(Singlets,NStates=15) pop(full) force
 ------------------------------------------------------------

 -----------------
 AM1-Reparam Input
 -----------------
 Symbolic Z-matrix:
 Charge =  0 Multiplicity = 1

                         Standard orientation:
 ---------------------------------------------------------------------
 Center     Atomic      Atomic             Coordinates (Angstroms)
 Number     Number       Type             X           Y           Z
 ---------------------------------------------------------------------
      1          6           0       -0.635852    0.987878    0.013521
      2          6           0       -1.130008   -0.288040    0.007647
      3          8           0       -0.073227   -1.147976    0.000258
      4          6           0        1.100177   -0.403273   -0.007055
      5          6           0        0.726460    0.910716   -0.029787
      6          1           0        1.488692    1.726728    0.064265
      7          1           0        2.010116   -0.945801    0.059112
      8          1           0       -2.049912   -0.717208   -0.032770
      9          1           0       -1.227742    1.876404    0.001369
 ---------------------------------------------------------------------

 SCF Done:  E(RAM1) =   1.72995096419     A.U. after   14 cycles

 Excitation energies and oscillator strengths:

 Excited State   1:      Singlet-A      5.7305 eV  216.36 nm  f=0.3240  <S**2>=0.000
      13 -> 14         0.68757
 This state for optimization and/or second-order correction.
 Total Energy, E(CIS) =   1.94054216131
 Copying the excited state density for this state as the 1-particle RhoCI density.

 Excited State   2:      Singlet-A      7.3638 eV  168.37 nm  f=0.0012  <S**2>=0.000
      12 -> 14         0.69102

 Excited State   3:      Singlet-A      7.5389 eV  164.46 nm  f=0.0099  <S**2>=0.000
      10 -> 16        -0.10204
      11 -> 14         0.18431
      13 -> 15         0.64752
      13 -> 17        -0.15920

 Excited State   4:      Singlet-A      7.7558 eV  159.86 nm  f=0.0012  <S**2>=0.000
      10 -> 15        -0.11373
      11 -> 14         0.33076
      13 -> 16         0.57860
      13 -> 19        -0.15189

 Excited State   5:      Singlet-A      7.7862 eV  159.24 nm  f=0.0033  <S**2>=0.000
      11 -> 14         0.58452
      13 -> 15        -0.15863
      13 -> 16        -0.32507

 Excited State   6:      Singlet-A      9.2497 eV  134.04 nm  f=0.0004  <S**2>=0.000
      13 -> 17        -0.22960
      13 -> 18         0.58977
      13 -> 22         0.27046

 Excited State   7:      Singlet-A      9.4767 eV  130.83 nm  f=0.0109  <S**2>=0.000
      10 -> 16        -0.15473
      13 -> 15         0.12319
      13 -> 17         0.62582
      13 -> 18         0.21228

 Excited State   8:      Singlet-A      9.5580 eV  129.72 nm  f=0.0829  <S**2>=0.000
      10 -> 14         0.67498

 Excited State   9:      Singlet-A      9.9962 eV  124.03 nm  f=0.1073  <S**2>=0.000
       9 -> 16         0.11942
      11 -> 15         0.34664
      11 -> 16         0.12563
      11 -> 17        -0.26054
      11 -> 18        -0.14808
      12 -> 15        -0.19127
      12 -> 16         0.18426
      12 -> 17         0.17601
      12 -> 18        -0.27942
      13 -> 14         0.13192

 Excited State  10:      Singlet-A     10.1126 eV  122.60 nm  f=0.0020  <S**2>=0.000
      10 -> 15        -0.13081
      13 -> 16         0.11893
      13 -> 18        -0.15558
      13 -> 19         0.64804

 Excited State  11:      Singlet-A     10.5420 eV  117.61 nm  f=0.0685  <S**2>=0.000
      11 -> 16        -0.21641
      11 -> 19         0.10343
      12 -> 15         0.42174
      12 -> 16         0.45300
      12 -> 17        -0.12642
      12 -> 19        -0.10261

 Excited State  12:      Singlet-A     10.6224 eV  116.72 nm  f=0.1866  <S**2>=0.000
      11 -> 15         0.40793
      11 -> 16        -0.24320
      11 -> 19         0.11109
      12 -> 15         0.26225
      12 -> 16        -0.38410
      12 -> 19         0.11090

 Excited State  13:      Singlet-A     10.9212 eV  113.53 nm  f=0.0705  <S**2>=0.000
      10 -> 16        -0.10377
      13 -> 18         0.16887
      13 -> 20         0.57295
      13 -> 22        -0.33056

 Excited State  14:      Singlet-A     11.0087 eV  112.62 nm  f=0.0612  <S**2>=0.000
       8 -> 16        -0.11782
       9 -> 15         0.11172
      10 -> 14         0.10012
      11 -> 16         0.18688
      11 -> 18         0.15867
      11 -> 19        -0.16305
      12 -> 15         0.18607
      12 -> 17         0.16055
      12 -> 20        -0.10256
      13 -> 18        -0.14222
      13 -> 20         0.28003
      13 -> 21         0.12048
      13 -> 22         0.38226

 Excited State  15:      Singlet-A     11.0136 eV  112.57 nm  f=0.0576  <S**2>=0.000
       8 -> 16         0.12373
       9 -> 15        -0.11162
      11 -> 16        -0.19439
      11 -> 18        -0.17288
      11 -> 19         0.16125
      12 -> 15        -0.20654
      12 -> 17        -0.15964
      12 -> 20         0.11210
      13 -> 18        -0.13691
      13 -> 19        -0.11639
      13 -> 20         0.23704
      13 -> 21        -0.14394
      13 -> 22         0.36334

 The electronic state is 1-A.
 Alpha  occ. eigenvalues --   -1.90921  -1.18857  -0.92993  -0.82102  -0.79360
 Alpha  occ. eigenvalues --   -0.70153  -0.68021  -0.57718  -0.56095  -0.47069
 Alpha  occ. eigenvalues --   -0.43702  -0.42569  -0.31691
 Alpha virt. eigenvalues --    0.11272   0.19772   0.20222   0.26583   0.28380
 Alpha virt. eigenvalues --    0.30298   0.32364   0.33004   0.35587   0.41492
 Alpha virt. eigenvalues --    0.45511

 Mulliken charges:
               1
     1  C   -0.176969
     2  C   -2.033509
     3  O    3.310454
     4  C   -2.031609
     5  C   -0.147382
     6  H    0.212790
     7  H    0.327268
     8  H    0.325369
     9  H    0.213588
 Sum of Mulliken charges =   0.00000

 Dipole moment (field-independent basis, Debye):
    X=             -0.5705    Y=            -10.4936    Z=              0.1171  Tot=             10.5098
 N-N= 1.040228967851D+02 E-N=-1.694283667595D+02  KE=-1.553250877121D+01
 Orbital energies and kinetic energies (alpha):
                                 1                 2
   1         O                -1.909208         -1.365159
   2         O                -1.188571         -1.057455
   3         O                -0.929935         -0.889580
   4         O                -0.821024         -0.584866
   5         O                -0.793598         -0.689610
   6         O                -0.701528         -0.601724
   7         O                -0.680209         -0.542150

 Normal termination of Gaussian 09 at Tue Dec 15 17:09:40 2015.
