 Gaussian 09, Revision D.01,
 Gaussian 09:  ES64L-G09RevD.01 24-Apr-2013

 ------------------------------------------------------------
 #P AM1(Input,print) CIS(Singlets,NStates=15) pop(full) force
 ------------------------------------------------------------

 -----------------
 AM1-Reparam Input
 -----------------
 Symbolic Z-matrix:
 Charge =  0 Multiplicity = 1

                         Standard orientation:
 ---------------------------------------------------------------------
 Center     Atomic      Atomic             Coordinates (Angstroms)
 Number     Number       Type             X           Y           Z
 ---------------------------------------------------------------------
      1          6           0       -0.771177    0.857452   -0.007565
      2          6           0       -1.028867   -0.432706    0.000097
      3          8           0        0.101544   -1.122845   -0.009403
      4          6           0        1.127116   -0.225692    0.001740
      5          6           0        0.584698    0.984843    0.015259
      6          1           0        1.141704    1.894237   -0.041266
      7          1           0        2.137814   -0.626432    0.017541
      8          1           0       -1.978290   -1.078726    0.041361
      9          1           0       -1.584198    1.690297    0.000396
 ---------------------------------------------------------------------

 SCF Done:  E(RAM1) =   1.08942898330     A.U. after   14 cycles

 Excitation energies and oscillator strengths:

 Excited State   1:      Singlet-A      5.7546 eV  215.45 nm  f=0.1756  <S**2>=0.000
      12 -> 16         0.14386
      13 -> 14         0.67348
 This state for optimization and/or second-order correction.
 Total Energy, E(CIS) =   1.30090604386
 Copying the excited state density for this state as the 1-particle RhoCI density.

 Excited State   2:      Singlet-A      6.5678 eV  188.78 nm  f=0.0035  <S**2>=0.000
      13 -> 15         0.64198
      13 -> 17         0.20457
      13 -> 19        -0.14013
      13 -> 20         0.10240

 Excited State   3:      Singlet-A      7.0546 eV  175.75 nm  f=0.0007  <S**2>=0.000
      13 -> 15        -0.19355
      13 -> 17         0.63487
      13 -> 21         0.15338

 Excited State   4:      Singlet-A      7.1979 eV  172.25 nm  f=0.0081  <S**2>=0.000
      12 -> 14        -0.41455
      13 -> 16         0.55403

 Excited State   5:      Singlet-A      7.5062 eV  165.18 nm  f=0.0002  <S**2>=0.000
       9 -> 14        -0.17412
      10 -> 14        -0.14918
      11 -> 14         0.66344

 Excited State   6:      Singlet-A      7.7301 eV  160.39 nm  f=0.0031  <S**2>=0.000
      10 -> 14         0.66588
      11 -> 14         0.15173
      11 -> 16        -0.12180

 Excited State   7:      Singlet-A      8.2482 eV  150.32 nm  f=0.1878  <S**2>=0.000
      12 -> 14         0.49805
      12 -> 15         0.12914
      13 -> 16         0.35488
      13 -> 18        -0.21375
      13 -> 19         0.10538

 Excited State   8:      Singlet-A      8.2615 eV  150.07 nm  f=0.0361  <S**2>=0.000
      12 -> 14         0.21645
      12 -> 15        -0.18346
      13 -> 16         0.14585
      13 -> 18         0.51022
      13 -> 19        -0.27639
      13 -> 24        -0.13652

 Excited State   9:      Singlet-A      8.5877 eV  144.37 nm  f=0.0190  <S**2>=0.000
       9 -> 16         0.22155
      10 -> 14         0.12753
      11 -> 15        -0.12437
      11 -> 16         0.61077
      12 -> 15         0.11550

 Excited State  10:      Singlet-A      8.6145 eV  143.92 nm  f=0.0032  <S**2>=0.000
      11 -> 16        -0.10889
      12 -> 15         0.59086
      12 -> 17         0.13277
      12 -> 20         0.11216
      13 -> 18         0.24506

 Excited State  11:      Singlet-A      8.6434 eV  143.44 nm  f=0.0000  <S**2>=0.000
      13 -> 18         0.14103
      13 -> 19         0.19432
      13 -> 20         0.63191
      13 -> 22         0.12265

 Excited State  12:      Singlet-A      8.8975 eV  139.35 nm  f=0.0080  <S**2>=0.000
      12 -> 17         0.54191
      13 -> 18        -0.13856
      13 -> 19        -0.37199

 Excited State  13:      Singlet-A      9.0200 eV  137.46 nm  f=0.2054  <S**2>=0.000
       8 -> 15         0.10973
       9 -> 15         0.20290
      10 -> 15         0.15133
      11 -> 15         0.15009
      11 -> 17         0.11136
      11 -> 18        -0.10443
      12 -> 16         0.54635
      13 -> 14        -0.14488

 Excited State  14:      Singlet-A      9.1234 eV  135.90 nm  f=0.0570  <S**2>=0.000
       9 -> 15         0.14768
       9 -> 17         0.11269
      10 -> 15         0.18564
      10 -> 17        -0.12224
      11 -> 15         0.48049
      11 -> 17         0.15874
      11 -> 20         0.13852
      12 -> 16        -0.27804

 Excited State  15:      Singlet-A      9.2847 eV  133.54 nm  f=0.0212  <S**2>=0.000
       9 -> 17        -0.14954
      10 -> 15         0.33193
      10 -> 17         0.30197
      10 -> 18        -0.13367
      10 -> 19        -0.20626
      11 -> 15        -0.12002
      11 -> 18        -0.25880
      11 -> 19         0.11891
      12 -> 16        -0.23061

 The electronic state is 1-A.
 Alpha  occ. eigenvalues --   -1.85278  -1.22185  -0.99656  -0.87943  -0.80937
 Alpha  occ. eigenvalues --   -0.73527  -0.73113  -0.60720  -0.55716  -0.50436
 Alpha  occ. eigenvalues --   -0.49319  -0.47454  -0.38886
 Alpha virt. eigenvalues --    0.04575   0.09244   0.10549   0.11246   0.17639
 Alpha virt. eigenvalues --    0.18379   0.19896   0.21889   0.27443   0.28229
 Alpha virt. eigenvalues --    0.28503

 Mulliken charges:
               1
     1  C   -0.168739
     2  C   -1.259153
     3  O    2.148471
     4  C   -1.262129
     5  C   -0.129241
     6  H    0.115609
     7  H    0.204110
     8  H    0.219717
     9  H    0.131355
 Sum of Mulliken charges =   0.00000

 Dipole moment (field-independent basis, Debye):
    X=              0.2098    Y=             -7.0741    Z=             -0.0397  Tot=              7.0773
 N-N= 1.052374524112D+02 E-N=-1.727418919407D+02  KE=-1.505074079534D+01
 Orbital energies and kinetic energies (alpha):
                                 1                 2
   1         O                -1.852779         -1.279616
   2         O                -1.221850         -0.983812
   3         O                -0.996562         -0.819041
   4         O                -0.879427         -0.625085
   5         O                -0.809370         -0.661814
   6         O                -0.735273         -0.532575
   7         O                -0.731134         -0.595207

 Normal termination of Gaussian 09 at Tue Dec 15 17:05:34 2015.
