 Gaussian 09, Revision D.01,
 Gaussian 09:  ES64L-G09RevD.01 24-Apr-2013

 ------------------------------------------------------------
 #P AM1(Input,print) CIS(Singlets,NStates=15) pop(full) force
 ------------------------------------------------------------

 -----------------
 AM1-Reparam Input
 -----------------
 Symbolic Z-matrix:
 Charge =  0 Multiplicity = 1

                         Standard orientation:
 ---------------------------------------------------------------------
 Center     Atomic      Atomic             Coordinates (Angstroms)
 Number     Number       Type             X           Y           Z
 ---------------------------------------------------------------------
      1          6           0        0.788970    0.885096   -0.003663
      2          6           0        1.102359   -0.368707    0.027840
      3          8           0       -0.079589   -1.151040   -0.021614
      4          6           0       -1.150744   -0.252078    0.029135
      5          6           0       -0.671583    0.959252   -0.022512
      6          1           0       -1.227418    1.853659    0.035861
      7          1           0       -2.037413   -0.689635   -0.014642
      8          1           0        2.007510   -1.003691   -0.013128
      9          1           0        1.480020    1.706611   -0.019980
 ---------------------------------------------------------------------

 SCF Done:  E(RAM1) =   2.19306498330     A.U. after   14 cycles

 Excitation energies and oscillator strengths:

 Excited State   1:      Singlet-A      5.1437 eV  241.04 nm  f=0.3519  <S**2>=0.000
      13 -> 14         0.69603
 This state for optimization and/or second-order correction.
 Total Energy, E(CIS) =   2.38209103152
 Copying the excited state density for this state as the 1-particle RhoCI density.

 Excited State   2:      Singlet-A      5.9994 eV  206.66 nm  f=0.0002  <S**2>=0.000
      10 -> 15         0.10508
      13 -> 15         0.67673

 Excited State   3:      Singlet-A      6.3310 eV  195.84 nm  f=0.0016  <S**2>=0.000
      13 -> 16         0.67283
      13 -> 17        -0.11378
      13 -> 20         0.10639

 Excited State   4:      Singlet-A      6.9945 eV  177.26 nm  f=0.0002  <S**2>=0.000
      12 -> 14         0.70111

 Excited State   5:      Singlet-A      7.6109 eV  162.90 nm  f=0.0011  <S**2>=0.000
      13 -> 15         0.10232
      13 -> 17         0.18938
      13 -> 18         0.59288
      13 -> 20         0.14854
      13 -> 22         0.25712

 Excited State   6:      Singlet-A      7.9876 eV  155.22 nm  f=0.0126  <S**2>=0.000
      11 -> 14         0.47555
      13 -> 17         0.47824
      13 -> 18        -0.14335

 Excited State   7:      Singlet-A      8.1775 eV  151.62 nm  f=0.0008  <S**2>=0.000
      11 -> 14         0.51617
      13 -> 17        -0.45316

 Excited State   8:      Singlet-A      8.7567 eV  141.59 nm  f=0.0048  <S**2>=0.000
      10 -> 14         0.37001
      12 -> 15         0.10252
      13 -> 19         0.57916

 Excited State   9:      Singlet-A      8.8330 eV  140.37 nm  f=0.0000  <S**2>=0.000
      13 -> 18        -0.19546
      13 -> 20         0.66128

 Excited State  10:      Singlet-A      9.3341 eV  132.83 nm  f=0.0812  <S**2>=0.000
       8 -> 15        -0.13390
      10 -> 14         0.31639
      12 -> 15         0.45484
      12 -> 16        -0.10459
      12 -> 18        -0.14620
      13 -> 19        -0.29689

 Excited State  11:      Singlet-A      9.4517 eV  131.18 nm  f=0.0276  <S**2>=0.000
      10 -> 14        -0.21317
      12 -> 16        -0.12218
      13 -> 18        -0.22198
      13 -> 19         0.13531
      13 -> 22         0.56550

 Excited State  12:      Singlet-A      9.4786 eV  130.80 nm  f=0.0816  <S**2>=0.000
      10 -> 14         0.28011
      12 -> 15        -0.24826
      12 -> 16         0.20276
      12 -> 18         0.15445
      13 -> 18        -0.12033
      13 -> 19        -0.15404
      13 -> 21         0.36016
      13 -> 22         0.28730

 Excited State  13:      Singlet-A      9.5711 eV  129.54 nm  f=0.0989  <S**2>=0.000
      10 -> 14        -0.24854
      12 -> 15         0.12324
      12 -> 16        -0.12861
      13 -> 19         0.14851
      13 -> 21         0.57021
      13 -> 22        -0.12065
      13 -> 23         0.10688

 Excited State  14:      Singlet-A      9.9553 eV  124.54 nm  f=0.0812  <S**2>=0.000
      10 -> 14        -0.19853
      11 -> 15         0.28571
      11 -> 17        -0.17908
      12 -> 15         0.32497
      12 -> 16         0.37259
      12 -> 18         0.24687

 Excited State  15:      Singlet-A     10.1230 eV  122.48 nm  f=0.1567  <S**2>=0.000
      11 -> 15        -0.11468
      11 -> 16        -0.30938
      11 -> 17         0.23532
      12 -> 16         0.42121
      12 -> 18        -0.30531

 The electronic state is 1-A.
 Alpha  occ. eigenvalues --   -1.93403  -1.19817  -0.95656  -0.80888  -0.79324
 Alpha  occ. eigenvalues --   -0.69791  -0.65840  -0.55531  -0.54080  -0.45181
 Alpha  occ. eigenvalues --   -0.43778  -0.40288  -0.26885
 Alpha virt. eigenvalues --    0.12159   0.17641   0.19742   0.26945   0.28215
 Alpha virt. eigenvalues --    0.28775   0.30769   0.32185   0.33200   0.37614
 Alpha virt. eigenvalues --    0.41090

 Mulliken charges:
               1
     1  C   -0.157624
     2  C   -1.825396
     3  O    3.209495
     4  C   -1.836098
     5  C   -0.203538
     6  H    0.162024
     7  H    0.246091
     8  H    0.247109
     9  H    0.157937
 Sum of Mulliken charges =   0.00000

 Dipole moment (field-independent basis, Debye):
    X=             -0.4790    Y=            -11.6594    Z=             -0.7705  Tot=             11.6947
 N-N= 1.042455609544D+02 E-N=-1.693382223384D+02  KE=-1.535751357762D+01
 Orbital energies and kinetic energies (alpha):
                                 1                 2
   1         O                -1.934034         -1.335417
   2         O                -1.198173         -1.051160
   3         O                -0.956556         -0.905245
   4         O                -0.808878         -0.597616
   5         O                -0.793242         -0.676405
   6         O                -0.697915         -0.580670
   7         O                -0.658398         -0.533174

 Normal termination of Gaussian 09 at Tue Dec 15 17:09:18 2015.
