 Gaussian 09, Revision D.01,
 Gaussian 09:  ES64L-G09RevD.01 24-Apr-2013

 ------------------------------------------------------------
 #P AM1(Input,print) CIS(Singlets,NStates=15) pop(full) force
 ------------------------------------------------------------

 -----------------
 AM1-Reparam Input
 -----------------
 Symbolic Z-matrix:
 Charge =  0 Multiplicity = 1

                         Standard orientation:
 ---------------------------------------------------------------------
 Center     Atomic      Atomic             Coordinates (Angstroms)
 Number     Number       Type             X           Y           Z
 ---------------------------------------------------------------------
      1          6           0       -0.649419    0.961871   -0.002631
      2          6           0       -1.095568   -0.246318    0.001723
      3          8           0       -0.104229   -1.154401    0.000617
      4          6           0        1.085947   -0.418762   -0.000511
      5          6           0        0.768999    0.916622    0.000003
      6          1           0        1.440928    1.691179    0.031100
      7          1           0        2.021488   -0.928274   -0.019471
      8          1           0       -2.054341   -0.701881    0.012815
      9          1           0       -1.233998    1.893702   -0.020884
 ---------------------------------------------------------------------

 SCF Done:  E(RAM1) =   1.83987253777     A.U. after   14 cycles

 Excitation energies and oscillator strengths:

 Excited State   1:      Singlet-A      5.4494 eV  227.52 nm  f=0.3450  <S**2>=0.000
      13 -> 14         0.69161
 This state for optimization and/or second-order correction.
 Total Energy, E(CIS) =   2.04013356926
 Copying the excited state density for this state as the 1-particle RhoCI density.

 Excited State   2:      Singlet-A      6.4682 eV  191.68 nm  f=0.0028  <S**2>=0.000
      13 -> 15         0.67879
      13 -> 18         0.12487

 Excited State   3:      Singlet-A      6.9253 eV  179.03 nm  f=0.0042  <S**2>=0.000
      13 -> 16         0.66991
      13 -> 17        -0.13695
      13 -> 19         0.12107

 Excited State   4:      Singlet-A      7.4945 eV  165.43 nm  f=0.0003  <S**2>=0.000
      12 -> 14         0.69963

 Excited State   5:      Singlet-A      8.1306 eV  152.49 nm  f=0.0002  <S**2>=0.000
      13 -> 16         0.11047
      13 -> 17         0.36694
      13 -> 18         0.53673
      13 -> 21        -0.20803

 Excited State   6:      Singlet-A      8.3262 eV  148.91 nm  f=0.0066  <S**2>=0.000
      10 -> 14         0.20294
      11 -> 14         0.66497

 Excited State   7:      Singlet-A      8.9032 eV  139.26 nm  f=0.0089  <S**2>=0.000
      13 -> 15         0.11113
      13 -> 17         0.54993
      13 -> 18        -0.36781
      13 -> 19         0.12606

 Excited State   8:      Singlet-A      9.1693 eV  135.22 nm  f=0.0822  <S**2>=0.000
      10 -> 14         0.64041
      11 -> 14        -0.19475
      12 -> 15         0.11348

 Excited State   9:      Singlet-A      9.6187 eV  128.90 nm  f=0.0014  <S**2>=0.000
      10 -> 16         0.14672
      13 -> 16        -0.10327
      13 -> 19         0.65964

 Excited State  10:      Singlet-A      9.6854 eV  128.01 nm  f=0.0392  <S**2>=0.000
       8 -> 15        -0.11425
      11 -> 15        -0.15481
      11 -> 16        -0.12114
      11 -> 17         0.13927
      11 -> 18        -0.14398
      12 -> 15         0.36291
      12 -> 16        -0.27495
      12 -> 17         0.22523
      12 -> 18         0.27457

 Excited State  11:      Singlet-A      9.9346 eV  124.80 nm  f=0.1455  <S**2>=0.000
       9 -> 15         0.10767
      11 -> 15         0.24198
      11 -> 18         0.12227
      12 -> 15         0.54533
      12 -> 16         0.12113
      12 -> 17        -0.21571

 Excited State  12:      Singlet-A     10.4093 eV  119.11 nm  f=0.0300  <S**2>=0.000
      13 -> 17         0.10370
      13 -> 18         0.18143
      13 -> 20        -0.43323
      13 -> 21         0.49559

 Excited State  13:      Singlet-A     10.5155 eV  117.91 nm  f=0.0162  <S**2>=0.000
       7 -> 15        -0.12228
      10 -> 15         0.57913
      10 -> 16         0.11443
      11 -> 15        -0.21642
      13 -> 15        -0.10956
      13 -> 20         0.19052

 Excited State  14:      Singlet-A     10.6238 eV  116.70 nm  f=0.1443  <S**2>=0.000
      11 -> 16         0.44458
      11 -> 19         0.10307
      12 -> 16        -0.41870
      12 -> 18        -0.12264
      13 -> 20         0.15959
      13 -> 21         0.19141

 Excited State  15:      Singlet-A     10.6715 eV  116.18 nm  f=0.0746  <S**2>=0.000
      10 -> 15        -0.15347
      10 -> 16        -0.22048
      11 -> 16        -0.10760
      12 -> 16         0.16354
      13 -> 20         0.44775
      13 -> 21         0.39880

 The electronic state is 1-A.
 Alpha  occ. eigenvalues --   -1.99841  -1.28752  -1.01768  -0.89962  -0.85441
 Alpha  occ. eigenvalues --   -0.77235  -0.75230  -0.63410  -0.61848  -0.52270
 Alpha  occ. eigenvalues --   -0.51929  -0.49305  -0.36326
 Alpha virt. eigenvalues --    0.04881   0.10476   0.13043   0.19952   0.20842
 Alpha virt. eigenvalues --    0.23430   0.26275   0.27854   0.28438   0.36782
 Alpha virt. eigenvalues --    0.41518

 Mulliken charges:
               1
     1  C   -0.168324
     2  C   -1.858846
     3  O    3.170103
     4  C   -1.898790
     5  C   -0.100375
     6  H    0.140217
     7  H    0.279901
     8  H    0.275258
     9  H    0.160857
 Sum of Mulliken charges =   0.00000

 Dipole moment (field-independent basis, Debye):
    X=             -1.4586    Y=            -10.8443    Z=             -0.0073  Tot=             10.9419
 N-N= 1.060389361678D+02 E-N=-1.712215070484D+02  KE=-1.571030399462D+01
 Orbital energies and kinetic energies (alpha):
                                 1                 2
   1         O                -1.998408         -1.377030
   2         O                -1.287517         -1.061890
   3         O                -1.017679         -0.897372
   4         O                -0.899619         -0.590977
   5         O                -0.854407         -0.699497
   6         O                -0.772352         -0.609065
   7         O                -0.752301         -0.550527

 Normal termination of Gaussian 09 at Tue Dec 15 17:08:54 2015.
