 Gaussian 09, Revision D.01,
 Gaussian 09:  ES64L-G09RevD.01 24-Apr-2013

 ------------------------------------------------------------
 #P AM1(Input,print) CIS(Singlets,NStates=15) pop(full) force
 ------------------------------------------------------------

 -----------------
 AM1-Reparam Input
 -----------------
 Symbolic Z-matrix:
 Charge =  0 Multiplicity = 1

                         Standard orientation:
 ---------------------------------------------------------------------
 Center     Atomic      Atomic             Coordinates (Angstroms)
 Number     Number       Type             X           Y           Z
 ---------------------------------------------------------------------
      1          6           0        0.700864    0.934248    0.006277
      2          6           0        1.108697   -0.337469   -0.004001
      3          8           0       -0.050307   -1.160973    0.005780
      4          6           0       -1.054767   -0.310436   -0.002874
      5          6           0       -0.677206    0.937314   -0.016136
      6          1           0       -1.415149    1.774369    0.062262
      7          1           0       -2.004087   -0.779762   -0.004379
      8          1           0        2.035659   -0.859894    0.004256
      9          1           0        1.320507    1.811136   -0.007975
 ---------------------------------------------------------------------

 SCF Done:  E(RAM1) =   2.63407499971     A.U. after   13 cycles

 Excitation energies and oscillator strengths:

 Excited State   1:      Singlet-A      5.1962 eV  238.61 nm  f=0.3343  <S**2>=0.000
      13 -> 14         0.69725
 This state for optimization and/or second-order correction.
 Total Energy, E(CIS) =   2.82503066483
 Copying the excited state density for this state as the 1-particle RhoCI density.

 Excited State   2:      Singlet-A      5.8951 eV  210.32 nm  f=0.0013  <S**2>=0.000
      10 -> 15         0.10562
      13 -> 15         0.67889
      13 -> 18         0.10946

 Excited State   3:      Singlet-A      6.6721 eV  185.83 nm  f=0.0028  <S**2>=0.000
      12 -> 14        -0.41770
      13 -> 16         0.53470

 Excited State   4:      Singlet-A      6.7338 eV  184.12 nm  f=0.0003  <S**2>=0.000
      12 -> 14         0.56092
      13 -> 16         0.40469

 Excited State   5:      Singlet-A      7.3243 eV  169.28 nm  f=0.0045  <S**2>=0.000
      11 -> 14         0.69539

 Excited State   6:      Singlet-A      7.8924 eV  157.09 nm  f=0.0000  <S**2>=0.000
      13 -> 17         0.67110
      13 -> 21        -0.11872

 Excited State   7:      Singlet-A      8.6328 eV  143.62 nm  f=0.0999  <S**2>=0.000
      10 -> 14         0.68285

 Excited State   8:      Singlet-A      8.9402 eV  138.68 nm  f=0.0064  <S**2>=0.000
      10 -> 15        -0.24624
      13 -> 18         0.62289
      13 -> 19        -0.10344

 Excited State   9:      Singlet-A      9.1205 eV  135.94 nm  f=0.0175  <S**2>=0.000
       9 -> 15         0.16830
      11 -> 16        -0.18080
      11 -> 18        -0.14754
      12 -> 15         0.52673
      12 -> 16        -0.14438
      12 -> 17         0.23929

 Excited State  10:      Singlet-A      9.2927 eV  133.42 nm  f=0.1847  <S**2>=0.000
      10 -> 14         0.10858
      11 -> 15         0.55498
      11 -> 16         0.12165
      11 -> 18         0.18334
      12 -> 15         0.25977
      12 -> 17        -0.15222

 Excited State  11:      Singlet-A      9.6190 eV  128.90 nm  f=0.0019  <S**2>=0.000
      10 -> 16         0.31638
      13 -> 19         0.60597

 Excited State  12:      Singlet-A      9.8486 eV  125.89 nm  f=0.1086  <S**2>=0.000
       7 -> 15        -0.10108
      10 -> 15         0.43175
      11 -> 15         0.11419
      11 -> 16        -0.24212
      11 -> 19        -0.10729
      12 -> 16         0.32895
      12 -> 17         0.16109
      13 -> 15        -0.10553
      13 -> 18         0.16858

 Excited State  13:      Singlet-A      9.8678 eV  125.65 nm  f=0.0742  <S**2>=0.000
      10 -> 15         0.44523
      11 -> 15        -0.10977
      11 -> 16         0.22767
      11 -> 19         0.10884
      12 -> 16        -0.35840
      12 -> 17        -0.12538
      13 -> 15        -0.10327
      13 -> 18         0.16046

 Excited State  14:      Singlet-A     10.1515 eV  122.13 nm  f=0.0182  <S**2>=0.000
       8 -> 16        -0.12068
       9 -> 15         0.22535
      11 -> 15        -0.18970
      11 -> 17         0.14702
      11 -> 19         0.11717
      12 -> 15         0.21821
      12 -> 16         0.38993
      12 -> 17        -0.31145
      12 -> 18        -0.10340

 Excited State  15:      Singlet-A     10.6029 eV  116.93 nm  f=0.0060  <S**2>=0.000
       9 -> 14        -0.17854
      10 -> 16         0.55074
      13 -> 16         0.14611
      13 -> 18        -0.12301
      13 -> 19        -0.27700

 The electronic state is 1-A.
 Alpha  occ. eigenvalues --   -1.85591  -1.15236  -0.89108  -0.79549  -0.75285
 Alpha  occ. eigenvalues --   -0.66993  -0.64344  -0.55167  -0.54287  -0.44450
 Alpha  occ. eigenvalues --   -0.43048  -0.41728  -0.29436
 Alpha virt. eigenvalues --    0.10336   0.15590   0.19188   0.25877   0.27666
 Alpha virt. eigenvalues --    0.30800   0.36824   0.41915   0.47827   0.55827
 Alpha virt. eigenvalues --    0.59108

 Mulliken charges:
               1
     1  C   -0.140046
     2  C   -1.965704
     3  O    3.431681
     4  C   -1.989876
     5  C   -0.260620
     6  H    0.203535
     7  H    0.275634
     8  H    0.254975
     9  H    0.190421
 Sum of Mulliken charges =   0.00000

 Dipole moment (field-independent basis, Debye):
    X=             -1.2084    Y=            -11.7872    Z=              0.2106  Tot=             11.8508
 N-N= 1.047123041021D+02 E-N=-1.708406599970D+02  KE=-1.443137257175D+01
 Orbital energies and kinetic energies (alpha):
                                 1                 2
   1         O                -1.855909         -1.256394
   2         O                -1.152359         -0.988948
   3         O                -0.891081         -0.810417
   4         O                -0.795488         -0.524950
   5         O                -0.752854         -0.626073
   6         O                -0.669931         -0.542447
   7         O                -0.643438         -0.506056

 Normal termination of Gaussian 09 at Tue Dec 15 17:07:47 2015.
