 Gaussian 09, Revision D.01,
 Gaussian 09:  ES64L-G09RevD.01 24-Apr-2013

 ------------------------------------------------------------
 #P AM1(Input,print) CIS(Singlets,NStates=15) pop(full) force
 ------------------------------------------------------------

 -----------------
 AM1-Reparam Input
 -----------------
 Symbolic Z-matrix:
 Charge =  0 Multiplicity = 1

                         Standard orientation:
 ---------------------------------------------------------------------
 Center     Atomic      Atomic             Coordinates (Angstroms)
 Number     Number       Type             X           Y           Z
 ---------------------------------------------------------------------
      1          6           0        0.998752    0.679922   -0.001949
      2          6           0        0.970490   -0.617294   -0.003461
      3          8           0       -0.401906   -1.116253   -0.007436
      4          6           0       -1.112923    0.025511    0.003450
      5          6           0       -0.424883    1.084749   -0.002005
      6          1           0       -0.759060    2.137273    0.008006
      7          1           0       -2.161964   -0.160181    0.024412
      8          1           0        1.666415   -1.403271    0.051075
      9          1           0        1.881249    1.318878   -0.000214
 ---------------------------------------------------------------------

 SCF Done:  E(RAM1) =   2.93622514524     A.U. after   14 cycles

 Excitation energies and oscillator strengths:

 Excited State   1:      Singlet-A      4.8971 eV  253.18 nm  f=0.3336  <S**2>=0.000
      13 -> 14         0.69677
 This state for optimization and/or second-order correction.
 Total Energy, E(CIS) =   3.11619209208
 Copying the excited state density for this state as the 1-particle RhoCI density.

 Excited State   2:      Singlet-A      5.3822 eV  230.36 nm  f=0.0006  <S**2>=0.000
      13 -> 15         0.68007
      13 -> 18         0.11394

 Excited State   3:      Singlet-A      6.2190 eV  199.36 nm  f=0.0008  <S**2>=0.000
      13 -> 16         0.64325
      13 -> 17         0.14920
      13 -> 18        -0.18107

 Excited State   4:      Singlet-A      6.4465 eV  192.33 nm  f=0.0003  <S**2>=0.000
      12 -> 14         0.69932

 Excited State   5:      Singlet-A      7.2426 eV  171.19 nm  f=0.0004  <S**2>=0.000
      13 -> 16         0.18158
      13 -> 18         0.57626
      13 -> 21        -0.32323

 Excited State   6:      Singlet-A      7.3635 eV  168.38 nm  f=0.0159  <S**2>=0.000
      11 -> 14         0.10598
      13 -> 16        -0.12599
      13 -> 17         0.66467
      13 -> 19         0.11278

 Excited State   7:      Singlet-A      7.8813 eV  157.31 nm  f=0.0015  <S**2>=0.000
      11 -> 14         0.68317
      13 -> 19        -0.10975

 Excited State   8:      Singlet-A      8.1755 eV  151.65 nm  f=0.0005  <S**2>=0.000
      13 -> 17        -0.12239
      13 -> 19         0.64412
      13 -> 21         0.20229

 Excited State   9:      Singlet-A      8.6156 eV  143.91 nm  f=0.0510  <S**2>=0.000
       8 -> 15         0.13014
      10 -> 14        -0.39272
      12 -> 15         0.49274
      12 -> 18         0.12449
      13 -> 21        -0.12405
      13 -> 22         0.10033

 Excited State  10:      Singlet-A      8.6224 eV  143.79 nm  f=0.0122  <S**2>=0.000
      12 -> 15         0.13460
      13 -> 18         0.32321
      13 -> 19        -0.17455
      13 -> 20        -0.29148
      13 -> 21         0.48956

 Excited State  11:      Singlet-A      8.7730 eV  141.32 nm  f=0.1213  <S**2>=0.000
       8 -> 16         0.11989
      10 -> 14         0.47304
      11 -> 17        -0.10924
      12 -> 15         0.32579
      12 -> 16        -0.27048
      12 -> 18         0.16582
      13 -> 22        -0.12302

 Excited State  12:      Singlet-A      9.0151 eV  137.53 nm  f=0.0878  <S**2>=0.000
      13 -> 19        -0.10889
      13 -> 20         0.61545
      13 -> 21         0.29548

 Excited State  13:      Singlet-A      9.3928 eV  132.00 nm  f=0.0287  <S**2>=0.000
       9 -> 15        -0.13163
      10 -> 14         0.19237
      11 -> 15         0.21849
      11 -> 17         0.21254
      12 -> 15         0.26383
      12 -> 16         0.35005
      12 -> 17         0.13236
      12 -> 18        -0.28262
      12 -> 21         0.12710

 Excited State  14:      Singlet-A      9.7944 eV  126.59 nm  f=0.1871  <S**2>=0.000
       8 -> 16        -0.14932
      10 -> 14         0.12873
      11 -> 15        -0.11021
      11 -> 16        -0.16934
      11 -> 17        -0.20461
      12 -> 16         0.45417
      12 -> 17        -0.11854
      12 -> 18         0.26219
      12 -> 19        -0.14262
      12 -> 21        -0.13070

 Excited State  15:      Singlet-A      9.8356 eV  126.06 nm  f=0.0023  <S**2>=0.000
       7 -> 15        -0.17044
      10 -> 15         0.66290
      13 -> 15        -0.10732

 The electronic state is 1-A.
 Alpha  occ. eigenvalues --   -1.71035  -1.12184  -0.93435  -0.78612  -0.75314
 Alpha  occ. eigenvalues --   -0.66062  -0.63420  -0.51856  -0.49324  -0.42737
 Alpha  occ. eigenvalues --   -0.42025  -0.37389  -0.24855
 Alpha virt. eigenvalues --    0.13111   0.17233   0.20945   0.27047   0.28673
 Alpha virt. eigenvalues --    0.29931   0.31797   0.32705   0.34289   0.44017
 Alpha virt. eigenvalues --    0.46642

 Mulliken charges:
               1
     1  C   -0.093591
     2  C   -1.870922
     3  O    3.187387
     4  C   -1.878457
     5  C   -0.238602
     6  H    0.176788
     7  H    0.286820
     8  H    0.265669
     9  H    0.164909
 Sum of Mulliken charges =   0.00000

 Dipole moment (field-independent basis, Debye):
    X=             -4.3862    Y=            -11.0587    Z=              0.0476  Tot=             11.8969
 N-N= 1.040689280560D+02 E-N=-1.693194859354D+02  KE=-1.478095289846D+01
 Orbital energies and kinetic energies (alpha):
                                 1                 2
   1         O                -1.710349         -1.187941
   2         O                -1.121843         -0.991927
   3         O                -0.934352         -0.871681
   4         O                -0.786123         -0.589671
   5         O                -0.753143         -0.684573
   6         O                -0.660620         -0.538274
   7         O                -0.634201         -0.525619

 Normal termination of Gaussian 09 at Tue Dec 15 17:06:08 2015.
