 Gaussian 09, Revision D.01,
 Gaussian 09:  ES64L-G09RevD.01 24-Apr-2013

 ------------------------------------------------------------
 #P AM1(Input,print) CIS(Singlets,NStates=15) pop(full) force
 ------------------------------------------------------------

 -----------------
 AM1-Reparam Input
 -----------------
 Symbolic Z-matrix:
 Charge =  0 Multiplicity = 1

                         Standard orientation:
 ---------------------------------------------------------------------
 Center     Atomic      Atomic             Coordinates (Angstroms)
 Number     Number       Type             X           Y           Z
 ---------------------------------------------------------------------
      1          6           0        1.010083    0.697276   -0.032860
      2          6           0        0.930391   -0.687172    0.030939
      3          8           0       -0.399434   -1.105088   -0.013396
      4          6           0       -1.135891   -0.028866    0.008723
      5          6           0       -0.380748    1.193153    0.008364
      6          1           0       -0.733018    2.149220   -0.013539
      7          1           0       -2.233786   -0.150229    0.002140
      8          1           0        1.729140   -1.456914   -0.030691
      9          1           0        1.890128    1.252281    0.058256
 ---------------------------------------------------------------------

 SCF Done:  E(RAM1) =   1.10957597176     A.U. after   14 cycles

 Excitation energies and oscillator strengths:

 Excited State   1:      Singlet-A      5.4748 eV  226.46 nm  f=0.2335  <S**2>=0.000
      12 -> 16        -0.13221
      13 -> 14         0.68340
 This state for optimization and/or second-order correction.
 Total Energy, E(CIS) =   1.31077112558
 Copying the excited state density for this state as the 1-particle RhoCI density.

 Excited State   2:      Singlet-A      6.3680 eV  194.70 nm  f=0.0039  <S**2>=0.000
      13 -> 15         0.67212
      13 -> 18         0.15769

 Excited State   3:      Singlet-A      6.9939 eV  177.28 nm  f=0.0017  <S**2>=0.000
      12 -> 14         0.40236
      13 -> 16         0.38651
      13 -> 17        -0.38783

 Excited State   4:      Singlet-A      7.0282 eV  176.41 nm  f=0.0010  <S**2>=0.000
      12 -> 14         0.32295
      13 -> 16         0.26659
      13 -> 17         0.52104
      13 -> 19         0.12009

 Excited State   5:      Singlet-A      7.3969 eV  167.62 nm  f=0.0004  <S**2>=0.000
       9 -> 14         0.20615
      11 -> 14         0.67138

 Excited State   6:      Singlet-A      7.9586 eV  155.79 nm  f=0.2043  <S**2>=0.000
      10 -> 14         0.35942
      12 -> 14        -0.39696
      13 -> 16         0.42327

 Excited State   7:      Singlet-A      8.0234 eV  154.53 nm  f=0.0846  <S**2>=0.000
      10 -> 14         0.58940
      12 -> 14         0.24901
      13 -> 16        -0.25002

 Excited State   8:      Singlet-A      8.1679 eV  151.79 nm  f=0.0009  <S**2>=0.000
      12 -> 15         0.44373
      12 -> 17         0.15851
      13 -> 18         0.35098
      13 -> 19        -0.32280
      13 -> 22         0.13877

 Excited State   9:      Singlet-A      8.3762 eV  148.02 nm  f=0.0023  <S**2>=0.000
      12 -> 15         0.49947
      13 -> 17        -0.16148
      13 -> 18        -0.25591
      13 -> 19         0.31980
      13 -> 22        -0.11499

 Excited State  10:      Singlet-A      8.8454 eV  140.17 nm  f=0.1436  <S**2>=0.000
       9 -> 15        -0.18651
      12 -> 16         0.61251
      13 -> 14         0.11340

 Excited State  11:      Singlet-A      8.9221 eV  138.96 nm  f=0.0012  <S**2>=0.000
      12 -> 17         0.56798
      13 -> 18        -0.28526
      13 -> 19        -0.19052
      13 -> 21         0.12489

 Excited State  12:      Singlet-A      8.9858 eV  137.98 nm  f=0.0036  <S**2>=0.000
       9 -> 16        -0.19208
      11 -> 16         0.32534
      13 -> 20         0.42028
      13 -> 21        -0.35906
      13 -> 23         0.10675

 Excited State  13:      Singlet-A      8.9973 eV  137.80 nm  f=0.0223  <S**2>=0.000
       9 -> 16        -0.27138
      11 -> 15        -0.15606
      11 -> 16         0.42873
      12 -> 16         0.11258
      12 -> 17        -0.11032
      13 -> 20        -0.31585
      13 -> 21         0.21806

 Excited State  14:      Singlet-A      9.1749 eV  135.13 nm  f=0.0009  <S**2>=0.000
       9 -> 14         0.63703
      11 -> 14        -0.19758

 Excited State  15:      Singlet-A      9.3955 eV  131.96 nm  f=0.0010  <S**2>=0.000
       9 -> 14         0.13953
      12 -> 17         0.19052
      13 -> 15        -0.14233
      13 -> 18         0.30912
      13 -> 19         0.31287
      13 -> 20         0.27767
      13 -> 21         0.35424

 The electronic state is 1-A.
 Alpha  occ. eigenvalues --   -1.82355  -1.16643  -0.96856  -0.87365  -0.79426
 Alpha  occ. eigenvalues --   -0.73825  -0.70519  -0.60322  -0.54939  -0.53206
 Alpha  occ. eigenvalues --   -0.50810  -0.46830  -0.38244
 Alpha virt. eigenvalues --    0.02739   0.09032   0.10392   0.11596   0.18166
 Alpha virt. eigenvalues --    0.19278   0.20991   0.21397   0.26579   0.26831
 Alpha virt. eigenvalues --    0.28086

 Mulliken charges:
               1
     1  C   -0.058773
     2  C   -1.282876
     3  O    2.147937
     4  C   -1.279534
     5  C   -0.142182
     6  H    0.096422
     7  H    0.216893
     8  H    0.204168
     9  H    0.097945
 Sum of Mulliken charges =   0.00000

 Dipole moment (field-independent basis, Debye):
    X=             -2.5987    Y=             -6.7022    Z=             -0.3654  Tot=              7.1977
 N-N= 1.036095789311D+02 E-N=-1.698550307357D+02  KE=-1.491819209292D+01
 Orbital energies and kinetic energies (alpha):
                                 1                 2
   1         O                -1.823550         -1.231853
   2         O                -1.166428         -0.962305
   3         O                -0.968564         -0.781667
   4         O                -0.873645         -0.649467
   5         O                -0.794256         -0.658292
   6         O                -0.738248         -0.600318
   7         O                -0.705193         -0.498681

 Normal termination of Gaussian 09 at Tue Dec 15 17:05:33 2015.
