 Gaussian 09, Revision D.01,
 Gaussian 09:  ES64L-G09RevD.01 24-Apr-2013

 ------------------------------------------------------------
 #P AM1(Input,print) CIS(Singlets,NStates=15) pop(full) force
 ------------------------------------------------------------

 -----------------
 AM1-Reparam Input
 -----------------
 Symbolic Z-matrix:
 Charge =  0 Multiplicity = 1

                         Standard orientation:
 ---------------------------------------------------------------------
 Center     Atomic      Atomic             Coordinates (Angstroms)
 Number     Number       Type             X           Y           Z
 ---------------------------------------------------------------------
      1          6           0       -0.281351    1.148219   -0.011564
      2          6           0       -1.110725    0.093769    0.001486
      3          8           0       -0.445888   -1.085625   -0.008252
      4          6           0        0.885337   -0.704822   -0.005958
      5          6           0        1.004143    0.621537    0.018903
      6          1           0        1.947620    1.175873   -0.023501
      7          1           0        1.577096   -1.497072    0.026344
      8          1           0       -2.272191   -0.085348    0.053848
      9          1           0       -0.669843    2.139323   -0.007879
 ---------------------------------------------------------------------

 SCF Done:  E(RAM1) =   1.10344215194     A.U. after   14 cycles

 Excitation energies and oscillator strengths:

 Excited State   1:      Singlet-A      5.6949 eV  217.71 nm  f=0.1776  <S**2>=0.000
      12 -> 16        -0.13960
      13 -> 14         0.67359
 This state for optimization and/or second-order correction.
 Total Energy, E(CIS) =   1.31272538028
 Copying the excited state density for this state as the 1-particle RhoCI density.

 Excited State   2:      Singlet-A      6.5311 eV  189.84 nm  f=0.0021  <S**2>=0.000
      13 -> 15         0.58419
      13 -> 16         0.25965
      13 -> 17         0.20622
      13 -> 18        -0.16965

 Excited State   3:      Singlet-A      6.9408 eV  178.63 nm  f=0.0189  <S**2>=0.000
      12 -> 14         0.34597
      13 -> 15        -0.28380
      13 -> 16         0.44784
      13 -> 17         0.28155

 Excited State   4:      Singlet-A      6.9663 eV  177.98 nm  f=0.0043  <S**2>=0.000
      12 -> 14        -0.15238
      13 -> 16        -0.30899
      13 -> 17         0.57862
      13 -> 21         0.12743

 Excited State   5:      Singlet-A      7.6428 eV  162.22 nm  f=0.0009  <S**2>=0.000
       9 -> 14         0.14184
      11 -> 14         0.67992

 Excited State   6:      Singlet-A      7.8660 eV  157.62 nm  f=0.0057  <S**2>=0.000
      10 -> 14         0.67112

 Excited State   7:      Singlet-A      8.1234 eV  152.63 nm  f=0.2536  <S**2>=0.000
      10 -> 14        -0.10188
      12 -> 14         0.57150
      13 -> 15         0.17080
      13 -> 16        -0.30897

 Excited State   8:      Singlet-A      8.3160 eV  149.09 nm  f=0.0022  <S**2>=0.000
      12 -> 15        -0.36078
      12 -> 16        -0.14245
      13 -> 18         0.38398
      13 -> 19        -0.36607
      13 -> 20        -0.10867
      13 -> 24        -0.15617

 Excited State   9:      Singlet-A      8.5358 eV  145.25 nm  f=0.0105  <S**2>=0.000
      12 -> 15         0.46324
      13 -> 19        -0.44120
      13 -> 20         0.16864
      13 -> 24        -0.10809

 Excited State  10:      Singlet-A      8.6214 eV  143.81 nm  f=0.0168  <S**2>=0.000
      12 -> 15        -0.24552
      12 -> 17        -0.25748
      13 -> 18        -0.18556
      13 -> 20         0.52639
      13 -> 23         0.10751

 Excited State  11:      Singlet-A      8.6843 eV  142.77 nm  f=0.1828  <S**2>=0.000
      12 -> 15        -0.11522
      12 -> 16         0.62099
      12 -> 17         0.10540
      13 -> 14         0.13940
      13 -> 20        -0.12078

 Excited State  12:      Singlet-A      8.7559 eV  141.60 nm  f=0.0132  <S**2>=0.000
       9 -> 15         0.12608
       9 -> 16        -0.23090
      10 -> 14         0.13840
      10 -> 16         0.11360
      11 -> 15        -0.30724
      11 -> 16         0.50258

 Excited State  13:      Singlet-A      8.8299 eV  140.41 nm  f=0.0072  <S**2>=0.000
      11 -> 16        -0.11930
      12 -> 17         0.48534
      13 -> 18         0.28345
      13 -> 19         0.11898
      13 -> 20         0.33921

 Excited State  14:      Singlet-A      9.2703 eV  133.74 nm  f=0.0010  <S**2>=0.000
      12 -> 15         0.15180
      12 -> 16         0.11343
      12 -> 17        -0.32528
      13 -> 15         0.12799
      13 -> 18         0.32812
      13 -> 19         0.29207
      13 -> 21         0.34727

 Excited State  15:      Singlet-A      9.3958 eV  131.96 nm  f=0.0062  <S**2>=0.000
       8 -> 15        -0.10034
       9 -> 15        -0.20795
       9 -> 16        -0.11322
      10 -> 15         0.39106
      10 -> 16         0.18794
      10 -> 17         0.21965
      10 -> 18        -0.17517
      10 -> 19        -0.14063
      10 -> 20        -0.13978
      11 -> 17         0.12506
      11 -> 19        -0.20858

 The electronic state is 1-A.
 Alpha  occ. eigenvalues --   -1.82144  -1.21228  -0.98082  -0.87571  -0.80377
 Alpha  occ. eigenvalues --   -0.73432  -0.71773  -0.59022  -0.55942  -0.50790
 Alpha  occ. eigenvalues --   -0.49856  -0.46690  -0.38117
 Alpha virt. eigenvalues --    0.04798   0.09270   0.09637   0.11800   0.18334
 Alpha virt. eigenvalues --    0.19280   0.20623   0.22228   0.26815   0.27879
 Alpha virt. eigenvalues --    0.28666

 Mulliken charges:
               1
     1  C   -0.149266
     2  C   -1.229338
     3  O    2.110659
     4  C   -1.234466
     5  C   -0.111825
     6  H    0.111327
     7  H    0.187953
     8  H    0.204834
     9  H    0.110122
 Sum of Mulliken charges =   0.00000

 Dipole moment (field-independent basis, Debye):
    X=             -3.1628    Y=             -6.9554    Z=              0.0371  Tot=              7.6408
 N-N= 1.046000828431D+02 E-N=-1.717004536569D+02  KE=-1.499233959144D+01
 Orbital energies and kinetic energies (alpha):
                                 1                 2
   1         O                -1.821445         -1.242971
   2         O                -1.212282         -0.990606
   3         O                -0.980818         -0.827441
   4         O                -0.875706         -0.620777
   5         O                -0.803771         -0.656513
   6         O                -0.734322         -0.596115
   7         O                -0.717726         -0.522470

 Normal termination of Gaussian 09 at Tue Dec 15 17:05:38 2015.
