 Gaussian 09, Revision D.01,
 Gaussian 09:  ES64L-G09RevD.01 24-Apr-2013

 ------------------------------------------------------------
 #P AM1(Input,print) CIS(Singlets,NStates=15) pop(full) force
 ------------------------------------------------------------

 -----------------
 AM1-Reparam Input
 -----------------
 Symbolic Z-matrix:
 Charge =  0 Multiplicity = 1

                         Standard orientation:
 ---------------------------------------------------------------------
 Center     Atomic      Atomic             Coordinates (Angstroms)
 Number     Number       Type             X           Y           Z
 ---------------------------------------------------------------------
      1          6           0        0.620232    1.021634   -0.011508
      2          6           0       -0.753987    0.813278   -0.000132
      3          8           0       -1.092145   -0.443872    0.008531
      4          6           0        0.103143   -1.113403   -0.010312
      5          6           0        1.170354   -0.257542    0.001872
      6          1           0        2.244777   -0.537404    0.008794
      7          1           0        0.078390   -2.216367    0.013477
      8          1           0       -1.523544    1.522542   -0.021462
      9          1           0        1.099085    1.998400    0.051417
 ---------------------------------------------------------------------

 SCF Done:  E(RAM1) =   2.59290126797     A.U. after   13 cycles

 Excitation energies and oscillator strengths:

 Excited State   1:      Singlet-A      5.3583 eV  231.39 nm  f=0.3432  <S**2>=0.000
      13 -> 14         0.69765
 This state for optimization and/or second-order correction.
 Total Energy, E(CIS) =   2.78981372656
 Copying the excited state density for this state as the 1-particle RhoCI density.

 Excited State   2:      Singlet-A      6.3635 eV  194.84 nm  f=0.0013  <S**2>=0.000
      13 -> 15         0.67010
      13 -> 17        -0.10123
      13 -> 19         0.12360

 Excited State   3:      Singlet-A      6.7090 eV  184.80 nm  f=0.0035  <S**2>=0.000
      13 -> 16         0.66213

 Excited State   4:      Singlet-A      6.8067 eV  182.15 nm  f=0.0002  <S**2>=0.000
      12 -> 14         0.69208

 Excited State   5:      Singlet-A      7.3749 eV  168.12 nm  f=0.0037  <S**2>=0.000
      10 -> 14         0.46248
      11 -> 14         0.52023

 Excited State   6:      Singlet-A      8.1667 eV  151.82 nm  f=0.0001  <S**2>=0.000
      13 -> 17         0.66737
      13 -> 21         0.13058

 Excited State   7:      Singlet-A      8.4649 eV  146.47 nm  f=0.1131  <S**2>=0.000
      10 -> 14         0.52075
      11 -> 14        -0.46261

 Excited State   8:      Singlet-A      9.2458 eV  134.10 nm  f=0.0070  <S**2>=0.000
       7 -> 15        -0.11135
      10 -> 15         0.25854
      10 -> 16        -0.12408
      11 -> 15        -0.33561
      13 -> 18         0.52166

 Excited State   9:      Singlet-A      9.2953 eV  133.38 nm  f=0.0126  <S**2>=0.000
       8 -> 16        -0.10507
       9 -> 15         0.14850
      10 -> 15         0.18656
      10 -> 16         0.19165
      10 -> 18        -0.13305
      11 -> 15         0.10465
      11 -> 16         0.22232
      11 -> 18        -0.14961
      12 -> 15         0.36268
      12 -> 16        -0.16638
      12 -> 17        -0.29513

 Excited State  10:      Singlet-A      9.5190 eV  130.25 nm  f=0.0093  <S**2>=0.000
      10 -> 16        -0.25569
      11 -> 15         0.18416
      11 -> 16         0.27286
      13 -> 17         0.12674
      13 -> 18         0.10593
      13 -> 19         0.51536

 Excited State  11:      Singlet-A      9.6448 eV  128.55 nm  f=0.1889  <S**2>=0.000
      10 -> 15        -0.33826
      11 -> 15        -0.32456
      12 -> 15         0.43662
      13 -> 19         0.12288

 Excited State  12:      Singlet-A      9.9064 eV  125.16 nm  f=0.1676  <S**2>=0.000
      10 -> 15        -0.10566
      10 -> 16         0.22564
      11 -> 15        -0.10926
      11 -> 16         0.25376
      11 -> 19        -0.10247
      12 -> 16         0.52344
      12 -> 17        -0.11720
      12 -> 19        -0.11758

 Excited State  13:      Singlet-A      9.9838 eV  124.19 nm  f=0.0010  <S**2>=0.000
      10 -> 15         0.37146
      11 -> 15        -0.29812
      13 -> 15        -0.17615
      13 -> 18        -0.33769
      13 -> 19         0.30219

 Excited State  14:      Singlet-A     10.2452 eV  121.02 nm  f=0.0022  <S**2>=0.000
       8 -> 16         0.19025
       9 -> 15         0.25905
      10 -> 15         0.13396
      10 -> 16        -0.15777
      10 -> 17         0.15356
      11 -> 15         0.15125
      11 -> 16        -0.11188
      11 -> 17         0.16219
      11 -> 19         0.10100
      12 -> 15         0.26364
      12 -> 16         0.32911
      12 -> 17         0.13899

 Excited State  15:      Singlet-A     10.3131 eV  120.22 nm  f=0.0014  <S**2>=0.000
      10 -> 16         0.37819
      11 -> 16        -0.35625
      13 -> 16         0.16822
      13 -> 18         0.25916
      13 -> 19         0.28858

 The electronic state is 1-A.
 Alpha  occ. eigenvalues --   -1.85244  -1.13005  -0.87006  -0.79349  -0.74367
 Alpha  occ. eigenvalues --   -0.66653  -0.63637  -0.54674  -0.54007  -0.44191
 Alpha  occ. eigenvalues --   -0.43970  -0.42723  -0.30691
 Alpha virt. eigenvalues --    0.09645   0.16412   0.17704   0.25609   0.27718
 Alpha virt. eigenvalues --    0.29521   0.35446   0.40738   0.50303   0.58219
 Alpha virt. eigenvalues --    0.61650

 Mulliken charges:
               1
     1  C   -0.196168
     2  C   -2.028214
     3  O    3.418746
     4  C   -2.004961
     5  C   -0.122737
     6  H    0.184429
     7  H    0.280895
     8  H    0.281736
     9  H    0.186275
 Sum of Mulliken charges =   0.00000

 Dipole moment (field-independent basis, Debye):
    X=            -10.3346    Y=             -4.1986    Z=              0.2621  Tot=             11.1580
 N-N= 1.042387180517D+02 E-N=-1.701360431203D+02  KE=-1.436528543005D+01
 Orbital energies and kinetic energies (alpha):
                                 1                 2
   1         O                -1.852438         -1.267833
   2         O                -1.130046         -0.979651
   3         O                -0.870056         -0.783416
   4         O                -0.793486         -0.534672
   5         O                -0.743670         -0.619889
   6         O                -0.666528         -0.542634
   7         O                -0.636368         -0.497781

 Normal termination of Gaussian 09 at Tue Dec 15 17:07:42 2015.
