 Gaussian 09, Revision D.01,
 Gaussian 09:  ES64L-G09RevD.01 24-Apr-2013

 ------------------------------------------------------------
 #P AM1(Input,print) CIS(Singlets,NStates=15) pop(full) force
 ------------------------------------------------------------

 -----------------
 AM1-Reparam Input
 -----------------
 Symbolic Z-matrix:
 Charge =  0 Multiplicity = 1

                         Standard orientation:
 ---------------------------------------------------------------------
 Center     Atomic      Atomic             Coordinates (Angstroms)
 Number     Number       Type             X           Y           Z
 ---------------------------------------------------------------------
      1          6           0       -0.619851    1.030034    0.007988
      2          6           0       -1.102430   -0.219413   -0.030448
      3          8           0       -0.134311   -1.166405    0.029321
      4          6           0        1.027502   -0.459811   -0.018884
      5          6           0        0.840039    0.864140    0.005937
      6          1           0        1.535831    1.716008   -0.021504
      7          1           0        1.951865   -1.049190   -0.017593
      8          1           0       -2.137643   -0.600521   -0.033458
      9          1           0       -1.147130    1.975245    0.050430
 ---------------------------------------------------------------------

 SCF Done:  E(RAM1) =   1.10099113855     A.U. after   13 cycles

 Excitation energies and oscillator strengths:

 Excited State   1:      Singlet-A      5.4072 eV  229.29 nm  f=0.2211  <S**2>=0.000
      12 -> 15        -0.12464
      13 -> 14         0.68335
 This state for optimization and/or second-order correction.
 Total Energy, E(CIS) =   1.29970310573
 Copying the excited state density for this state as the 1-particle RhoCI density.

 Excited State   2:      Singlet-A      6.4565 eV  192.03 nm  f=0.0054  <S**2>=0.000
      13 -> 15         0.39955
      13 -> 16         0.40683
      13 -> 17         0.36059
      13 -> 19         0.15741

 Excited State   3:      Singlet-A      6.5825 eV  188.35 nm  f=0.0011  <S**2>=0.000
      13 -> 16        -0.45968
      13 -> 17         0.47551
      13 -> 18        -0.17286
      13 -> 21         0.13169

 Excited State   4:      Singlet-A      6.8587 eV  180.77 nm  f=0.0147  <S**2>=0.000
      12 -> 14         0.38624
      13 -> 15         0.44683
      13 -> 16        -0.23347
      13 -> 17        -0.28272

 Excited State   5:      Singlet-A      7.1604 eV  173.15 nm  f=0.0007  <S**2>=0.000
       9 -> 14         0.11968
      11 -> 14         0.68960

 Excited State   6:      Singlet-A      7.9888 eV  155.20 nm  f=0.0338  <S**2>=0.000
      10 -> 14         0.13479
      12 -> 14        -0.20126
      13 -> 15         0.10374
      13 -> 16        -0.16673
      13 -> 18         0.58547
      13 -> 24         0.15368

 Excited State   7:      Singlet-A      8.0093 eV  154.80 nm  f=0.1703  <S**2>=0.000
      10 -> 14        -0.32752
      12 -> 14         0.44433
      13 -> 15        -0.24977
      13 -> 17         0.14104
      13 -> 18         0.25698

 Excited State   8:      Singlet-A      8.0772 eV  153.50 nm  f=0.0876  <S**2>=0.000
      10 -> 14         0.58123
      12 -> 14         0.29518
      13 -> 15        -0.18469

 Excited State   9:      Singlet-A      8.5724 eV  144.63 nm  f=0.0005  <S**2>=0.000
      12 -> 16         0.15252
      13 -> 19         0.21428
      13 -> 20         0.61060
      13 -> 22         0.15142

 Excited State  10:      Singlet-A      8.6285 eV  143.69 nm  f=0.0518  <S**2>=0.000
      12 -> 15         0.58046
      12 -> 16         0.15446
      12 -> 17         0.18771

 Excited State  11:      Singlet-A      8.8207 eV  140.56 nm  f=0.0501  <S**2>=0.000
      11 -> 15         0.11885
      11 -> 16         0.11452
      11 -> 18         0.12537
      12 -> 15        -0.16290
      12 -> 16         0.47080
      12 -> 17         0.32112
      13 -> 19         0.12607

 Excited State  12:      Singlet-A      8.8339 eV  140.35 nm  f=0.0026  <S**2>=0.000
      12 -> 16        -0.25484
      12 -> 17         0.46356
      13 -> 19        -0.34781
      13 -> 20         0.23719

 Excited State  13:      Singlet-A      8.8893 eV  139.48 nm  f=0.0195  <S**2>=0.000
       6 -> 15        -0.10412
       9 -> 15        -0.28724
      10 -> 14         0.14457
      11 -> 15         0.54938
      11 -> 16        -0.17224
      12 -> 17        -0.12159

 Excited State  14:      Singlet-A      9.3176 eV  133.06 nm  f=0.0017  <S**2>=0.000
       9 -> 14         0.14117
      12 -> 16         0.22848
      13 -> 16         0.12700
      13 -> 19        -0.27478
      13 -> 21         0.54784
      13 -> 23         0.10654

 Excited State  15:      Singlet-A      9.3702 eV  132.32 nm  f=0.0022  <S**2>=0.000
       9 -> 14         0.11883
      12 -> 16        -0.26895
      12 -> 17         0.22341
      13 -> 17        -0.13643
      13 -> 19         0.43681
      13 -> 21         0.33815

 The electronic state is 1-A.
 Alpha  occ. eigenvalues --   -1.82332  -1.18901  -0.98060  -0.87032  -0.80203
 Alpha  occ. eigenvalues --   -0.73548  -0.71430  -0.59362  -0.55294  -0.52259
 Alpha  occ. eigenvalues --   -0.49204  -0.47055  -0.37138
 Alpha virt. eigenvalues --    0.03766   0.09930   0.10718   0.10949   0.18325
 Alpha virt. eigenvalues --    0.19390   0.20953   0.22100   0.27320   0.27479
 Alpha virt. eigenvalues --    0.27692

 Mulliken charges:
               1
     1  C   -0.135660
     2  C   -1.234033
     3  O    2.111203
     4  C   -1.236174
     5  C   -0.128325
     6  H    0.108726
     7  H    0.204066
     8  H    0.204002
     9  H    0.106193
 Sum of Mulliken charges =   0.00000

 Dipole moment (field-independent basis, Debye):
    X=             -0.8611    Y=             -7.3500    Z=              0.4625  Tot=              7.4148
 N-N= 1.042411126754D+02 E-N=-1.710874115679D+02  KE=-1.495646718604D+01
 Orbital energies and kinetic energies (alpha):
                                 1                 2
   1         O                -1.823324         -1.243527
   2         O                -1.189012         -0.971504
   3         O                -0.980601         -0.813522
   4         O                -0.870318         -0.621867
   5         O                -0.802030         -0.674683
   6         O                -0.735479         -0.586724
   7         O                -0.714301         -0.515271

 Normal termination of Gaussian 09 at Tue Dec 15 17:05:29 2015.
