 Gaussian 09, Revision D.01,
 Gaussian 09:  ES64L-G09RevD.01 24-Apr-2013

 ------------------------------------------------------------
 #P AM1(Input,print) CIS(Singlets,NStates=15) pop(full) force
 ------------------------------------------------------------

 -----------------
 AM1-Reparam Input
 -----------------
 Symbolic Z-matrix:
 Charge =  0 Multiplicity = 1

                         Standard orientation:
 ---------------------------------------------------------------------
 Center     Atomic      Atomic             Coordinates (Angstroms)
 Number     Number       Type             X           Y           Z
 ---------------------------------------------------------------------
      1          6           0       -0.257164    1.151475   -0.027852
      2          6           0        0.996723    0.546250   -0.011402
      3          8           0        0.909943   -0.750057    0.005757
      4          6           0       -0.485246   -1.033249   -0.014089
      5          6           0       -1.214787    0.121354    0.032600
      6          1           0       -2.271530    0.189291   -0.054279
      7          1           0       -0.693412   -2.123085    0.015739
      8          1           0        1.950343    0.986965    0.051470
      9          1           0       -0.502104    2.232304    0.065469
 ---------------------------------------------------------------------

 SCF Done:  E(RAM1) =   2.52522589011     A.U. after   14 cycles

 Excitation energies and oscillator strengths:

 Excited State   1:      Singlet-A      5.4885 eV  225.90 nm  f=0.3353  <S**2>=0.000
      13 -> 14         0.69394
 This state for optimization and/or second-order correction.
 Total Energy, E(CIS) =   2.72692561518
 Copying the excited state density for this state as the 1-particle RhoCI density.

 Excited State   2:      Singlet-A      6.3909 eV  194.00 nm  f=0.0063  <S**2>=0.000
      11 -> 15         0.10036
      13 -> 15         0.66143
      13 -> 17        -0.16996

 Excited State   3:      Singlet-A      6.7689 eV  183.17 nm  f=0.0012  <S**2>=0.000
      11 -> 16        -0.13630
      13 -> 16         0.65480
      13 -> 17        -0.11873
      13 -> 18        -0.10723

 Excited State   4:      Singlet-A      6.9501 eV  178.39 nm  f=0.0004  <S**2>=0.000
       9 -> 14        -0.11248
      12 -> 14         0.69401

 Excited State   5:      Singlet-A      7.8759 eV  157.42 nm  f=0.0075  <S**2>=0.000
      10 -> 14         0.62358
      11 -> 14        -0.27797
      13 -> 17        -0.13525

 Excited State   6:      Singlet-A      8.0771 eV  153.50 nm  f=0.0011  <S**2>=0.000
      10 -> 14         0.11462
      11 -> 16        -0.11490
      13 -> 16         0.12181
      13 -> 17         0.33131
      13 -> 18         0.49650
      13 -> 20         0.12397
      13 -> 21        -0.27259

 Excited State   7:      Singlet-A      8.3450 eV  148.57 nm  f=0.0081  <S**2>=0.000
      11 -> 15         0.12194
      13 -> 15         0.16275
      13 -> 17         0.55655
      13 -> 18        -0.30166
      13 -> 21         0.16189

 Excited State   8:      Singlet-A      8.7695 eV  141.38 nm  f=0.0905  <S**2>=0.000
      10 -> 14         0.27902
      11 -> 14         0.61136
      12 -> 16        -0.11951

 Excited State   9:      Singlet-A      9.0180 eV  137.49 nm  f=0.0014  <S**2>=0.000
      11 -> 16        -0.10791
      13 -> 19         0.67320

 Excited State  10:      Singlet-A      9.3734 eV  132.27 nm  f=0.0268  <S**2>=0.000
       8 -> 15        -0.11310
      10 -> 17         0.14926
      12 -> 15         0.47190
      12 -> 16        -0.26323
      12 -> 18         0.26312
      13 -> 20        -0.12897

 Excited State  11:      Singlet-A      9.4530 eV  131.16 nm  f=0.0286  <S**2>=0.000
      12 -> 15        -0.16387
      13 -> 18         0.34152
      13 -> 20        -0.37054
      13 -> 21         0.43954

 Excited State  12:      Singlet-A      9.5514 eV  129.81 nm  f=0.0479  <S**2>=0.000
       9 -> 15         0.19037
      10 -> 15         0.31458
      10 -> 17        -0.19393
      11 -> 14         0.12547
      12 -> 15         0.37949
      12 -> 16         0.18407
      12 -> 17        -0.21260
      12 -> 18        -0.13293

 Excited State  13:      Singlet-A      9.7417 eV  127.27 nm  f=0.0105  <S**2>=0.000
       7 -> 15        -0.14228
      10 -> 15         0.21459
      11 -> 15         0.58550
      13 -> 15        -0.13936
      13 -> 20         0.14717

 Excited State  14:      Singlet-A      9.9733 eV  124.32 nm  f=0.1922  <S**2>=0.000
       8 -> 16         0.16572
      10 -> 16        -0.17656
      10 -> 17         0.12168
      11 -> 16         0.14586
      12 -> 15         0.10180
      12 -> 16         0.50616
      12 -> 18         0.16926
      13 -> 20        -0.11080
      13 -> 21        -0.12394

 Excited State  15:      Singlet-A      9.9991 eV  124.00 nm  f=0.0789  <S**2>=0.000
      10 -> 15        -0.12345
      12 -> 16         0.10924
      13 -> 19        -0.11565
      13 -> 20         0.49812
      13 -> 21         0.38938

 The electronic state is 1-A.
 Alpha  occ. eigenvalues --   -1.73734  -1.15831  -0.94145  -0.80466  -0.76051
 Alpha  occ. eigenvalues --   -0.67482  -0.64242  -0.54246  -0.49897  -0.43717
 Alpha  occ. eigenvalues --   -0.43246  -0.40641  -0.29191
 Alpha virt. eigenvalues --    0.11930   0.17056   0.18909   0.25363   0.27108
 Alpha virt. eigenvalues --    0.29165   0.30984   0.32874   0.39817   0.49142
 Alpha virt. eigenvalues --    0.53307

 Mulliken charges:
               1
     1  C   -0.123787
     2  C   -1.955162
     3  O    3.220088
     4  C   -1.900518
     5  C    0.019820
     6  H    0.110399
     7  H    0.234474
     8  H    0.274006
     9  H    0.120680
 Sum of Mulliken charges =   0.00000

 Dipole moment (field-independent basis, Debye):
    X=              8.3789    Y=             -6.6143    Z=              0.4689  Tot=             10.6853
 N-N= 1.035658758054D+02 E-N=-1.684032420870D+02  KE=-1.502030666068D+01
 Orbital energies and kinetic energies (alpha):
                                 1                 2
   1         O                -1.737336         -1.231509
   2         O                -1.158312         -1.022955
   3         O                -0.941445         -0.850210
   4         O                -0.804656         -0.621736
   5         O                -0.760508         -0.681131
   6         O                -0.674822         -0.570411
   7         O                -0.642418         -0.519689

 Normal termination of Gaussian 09 at Tue Dec 15 17:06:23 2015.
