 Gaussian 09, Revision D.01,
 Gaussian 09:  ES64L-G09RevD.01 24-Apr-2013

 ------------------------------------------------------------
 #P AM1(Input,print) CIS(Singlets,NStates=15) pop(full) force
 ------------------------------------------------------------

 -----------------
 AM1-Reparam Input
 -----------------
 Symbolic Z-matrix:
 Charge =  0 Multiplicity = 1

                         Standard orientation:
 ---------------------------------------------------------------------
 Center     Atomic      Atomic             Coordinates (Angstroms)
 Number     Number       Type             X           Y           Z
 ---------------------------------------------------------------------
      1          6           0       -1.019134    0.700298   -0.028078
      2          6           0       -0.896149   -0.702093    0.005899
      3          8           0        0.366618   -1.083516   -0.012352
      4          6           0        1.164285   -0.002440    0.015332
      5          6           0        0.363164    1.140054    0.027278
      6          1           0        0.743042    2.129363   -0.022659
      7          1           0        2.214252   -0.156025   -0.065589
      8          1           0       -1.697125   -1.438065    0.071687
      9          1           0       -1.866105    1.317940   -0.007204
 ---------------------------------------------------------------------

 SCF Done:  E(RAM1) =   1.69009263113     A.U. after   13 cycles

 Excitation energies and oscillator strengths:

 Excited State   1:      Singlet-A      5.5163 eV  224.76 nm  f=0.3796  <S**2>=0.000
      13 -> 14         0.69473
 This state for optimization and/or second-order correction.
 Total Energy, E(CIS) =   1.89281122021
 Copying the excited state density for this state as the 1-particle RhoCI density.

 Excited State   2:      Singlet-A      7.0222 eV  176.56 nm  f=0.0006  <S**2>=0.000
      12 -> 14         0.69906

 Excited State   3:      Singlet-A      7.3363 eV  169.00 nm  f=0.0064  <S**2>=0.000
      13 -> 15         0.66575
      13 -> 17        -0.16829

 Excited State   4:      Singlet-A      7.6024 eV  163.09 nm  f=0.0026  <S**2>=0.000
      13 -> 16         0.65675
      13 -> 18        -0.19694

 Excited State   5:      Singlet-A      8.0385 eV  154.24 nm  f=0.0056  <S**2>=0.000
      10 -> 14        -0.12932
      11 -> 14         0.68840

 Excited State   6:      Singlet-A      8.9923 eV  137.88 nm  f=0.0010  <S**2>=0.000
      10 -> 15        -0.10078
      13 -> 15        -0.10984
      13 -> 16         0.11675
      13 -> 17        -0.29026
      13 -> 18         0.52618
      13 -> 19        -0.12114
      13 -> 21        -0.28138

 Excited State   7:      Singlet-A      9.2029 eV  134.72 nm  f=0.1253  <S**2>=0.000
      10 -> 14         0.68141
      11 -> 14         0.12808

 Excited State   8:      Singlet-A      9.5552 eV  129.76 nm  f=0.0130  <S**2>=0.000
      10 -> 16        -0.13435
      13 -> 16         0.10690
      13 -> 17         0.59470
      13 -> 18         0.28441

 Excited State   9:      Singlet-A     10.0049 eV  123.92 nm  f=0.0011  <S**2>=0.000
      13 -> 18         0.11218
      13 -> 19         0.66036

 Excited State  10:      Singlet-A     10.0411 eV  123.48 nm  f=0.0097  <S**2>=0.000
       9 -> 15        -0.10831
      11 -> 15        -0.13990
      11 -> 16        -0.19247
      11 -> 17         0.17314
      11 -> 18         0.12353
      12 -> 15         0.38257
      12 -> 16        -0.20961
      12 -> 17        -0.18046
      12 -> 18         0.26971
      13 -> 19         0.11093

 Excited State  11:      Singlet-A     10.5791 eV  117.20 nm  f=0.0634  <S**2>=0.000
      11 -> 16        -0.16521
      12 -> 15         0.28186
      12 -> 16         0.56863
      12 -> 17        -0.11524
      12 -> 18        -0.13914

 Excited State  12:      Singlet-A     10.7213 eV  115.64 nm  f=0.0265  <S**2>=0.000
       9 -> 14        -0.15218
      11 -> 15        -0.10148
      12 -> 15        -0.10794
      13 -> 18         0.23486
      13 -> 20         0.22757
      13 -> 21         0.55696

 Excited State  13:      Singlet-A     10.7246 eV  115.61 nm  f=0.2044  <S**2>=0.000
      11 -> 15         0.33951
      11 -> 16         0.18535
      11 -> 17        -0.17476
      12 -> 15         0.38520
      12 -> 16        -0.18704
      12 -> 19         0.18467
      13 -> 21         0.15351

 Excited State  14:      Singlet-A     10.8583 eV  114.18 nm  f=0.0808  <S**2>=0.000
       8 -> 14        -0.11497
      13 -> 20         0.62770
      13 -> 21        -0.23511

 Excited State  15:      Singlet-A     10.9859 eV  112.86 nm  f=0.0035  <S**2>=0.000
       9 -> 14         0.66684
      13 -> 21         0.13257

 The electronic state is 1-A.
 Alpha  occ. eigenvalues --   -1.91375  -1.16140  -0.91853  -0.82653  -0.77937
 Alpha  occ. eigenvalues --   -0.70382  -0.67804  -0.57737  -0.55205  -0.47354
 Alpha  occ. eigenvalues --   -0.46580  -0.43223  -0.31901
 Alpha virt. eigenvalues --    0.09201   0.18134   0.19280   0.26656   0.27615
 Alpha virt. eigenvalues --    0.29514   0.31650   0.33671   0.36165   0.44266
 Alpha virt. eigenvalues --    0.48964

 Mulliken charges:
               1
     1  C   -0.163138
     2  C   -2.065140
     3  O    3.301682
     4  C   -2.040845
     5  C   -0.139252
     6  H    0.208400
     7  H    0.335669
     8  H    0.353293
     9  H    0.209332
 Sum of Mulliken charges =   0.00000

 Dipole moment (field-independent basis, Debye):
    X=              2.9462    Y=             -9.4039    Z=             -0.3676  Tot=              9.8614
 N-N= 1.037192217613D+02 E-N=-1.689774006141D+02  KE=-1.547799588585D+01
 Orbital energies and kinetic energies (alpha):
                                 1                 2
   1         O                -1.913754         -1.388607
   2         O                -1.161396         -1.038348
   3         O                -0.918528         -0.871907
   4         O                -0.826534         -0.575759
   5         O                -0.779367         -0.696819
   6         O                -0.703823         -0.598557
   7         O                -0.678037         -0.529070

 Normal termination of Gaussian 09 at Tue Dec 15 17:09:31 2015.
