 Gaussian 09, Revision D.01,
 Gaussian 09:  ES64L-G09RevD.01 24-Apr-2013

 ------------------------------------------------------------
 #P AM1(Input,print) CIS(Singlets,NStates=15) pop(full) force
 ------------------------------------------------------------

 -----------------
 AM1-Reparam Input
 -----------------
 Symbolic Z-matrix:
 Charge =  0 Multiplicity = 1

                         Standard orientation:
 ---------------------------------------------------------------------
 Center     Atomic      Atomic             Coordinates (Angstroms)
 Number     Number       Type             X           Y           Z
 ---------------------------------------------------------------------
      1          6           0       -0.791361    0.865569   -0.019063
      2          6           0       -1.080120   -0.487728    0.038010
      3          8           0        0.150444   -1.116339   -0.018479
      4          6           0        1.149966   -0.213091   -0.005149
      5          6           0        0.564242    0.995773    0.007387
      6          1           0        1.120018    1.939580    0.030739
      7          1           0        2.137831   -0.601887    0.036199
      8          1           0       -1.978883   -1.080538   -0.012795
      9          1           0       -1.538885    1.710418   -0.033425
 ---------------------------------------------------------------------

 SCF Done:  E(RAM1) =   2.57398393735     A.U. after   13 cycles

 Excitation energies and oscillator strengths:

 Excited State   1:      Singlet-A      5.3105 eV  233.47 nm  f=0.3370  <S**2>=0.000
      13 -> 14         0.69619
 This state for optimization and/or second-order correction.
 Total Energy, E(CIS) =   2.76914155426
 Copying the excited state density for this state as the 1-particle RhoCI density.

 Excited State   2:      Singlet-A      6.5775 eV  188.50 nm  f=0.0012  <S**2>=0.000
      10 -> 15         0.10911
      13 -> 15         0.65058
      13 -> 16        -0.13229
      13 -> 19        -0.12480

 Excited State   3:      Singlet-A      6.7948 eV  182.47 nm  f=0.0011  <S**2>=0.000
      12 -> 14         0.65950
      13 -> 16         0.21057

 Excited State   4:      Singlet-A      6.8121 eV  182.01 nm  f=0.0051  <S**2>=0.000
      11 -> 14        -0.17952
      12 -> 14        -0.18245
      13 -> 15         0.15656
      13 -> 16         0.61098

 Excited State   5:      Singlet-A      7.2243 eV  171.62 nm  f=0.0067  <S**2>=0.000
      11 -> 14         0.67600
      13 -> 16         0.15165

 Excited State   6:      Singlet-A      8.0218 eV  154.56 nm  f=0.0001  <S**2>=0.000
      13 -> 17         0.67362
      13 -> 21        -0.12138

 Excited State   7:      Singlet-A      8.4782 eV  146.24 nm  f=0.1102  <S**2>=0.000
      10 -> 14         0.69422

 Excited State   8:      Singlet-A      9.3091 eV  133.19 nm  f=0.0790  <S**2>=0.000
       9 -> 15        -0.10316
      10 -> 15         0.13638
      11 -> 15        -0.30212
      11 -> 16        -0.25439
      11 -> 18         0.21582
      12 -> 16         0.22005
      12 -> 17         0.34119
      13 -> 18         0.19462

 Excited State   9:      Singlet-A      9.3794 eV  132.19 nm  f=0.0052  <S**2>=0.000
      10 -> 15         0.26704
      10 -> 16        -0.19582
      11 -> 15         0.11694
      12 -> 15         0.11428
      12 -> 16        -0.11500
      12 -> 17        -0.11894
      13 -> 18         0.54635

 Excited State  10:      Singlet-A      9.6294 eV  128.76 nm  f=0.1356  <S**2>=0.000
      10 -> 16         0.11560
      11 -> 15        -0.20431
      12 -> 15         0.61055
      12 -> 19        -0.11436
      13 -> 19         0.12063

 Excited State  11:      Singlet-A      9.7452 eV  127.23 nm  f=0.0273  <S**2>=0.000
      10 -> 15         0.22812
      10 -> 16         0.32664
      11 -> 16         0.10663
      12 -> 15        -0.14055
      12 -> 16         0.10635
      13 -> 17        -0.10128
      13 -> 19         0.50277

 Excited State  12:      Singlet-A      9.9606 eV  124.47 nm  f=0.1340  <S**2>=0.000
      10 -> 16        -0.11414
      11 -> 15        -0.17283
      11 -> 16         0.50127
      11 -> 19         0.16010
      12 -> 16         0.37170

 Excited State  13:      Singlet-A     10.3478 eV  119.82 nm  f=0.0028  <S**2>=0.000
      10 -> 15         0.53581
      13 -> 15        -0.17198
      13 -> 18        -0.27243
      13 -> 19        -0.25438

 Excited State  14:      Singlet-A     10.4346 eV  118.82 nm  f=0.0801  <S**2>=0.000
       8 -> 15        -0.15193
       8 -> 16         0.13190
       9 -> 16         0.13866
      11 -> 15         0.16769
      11 -> 17         0.43469
      11 -> 19        -0.14211
      12 -> 15         0.13554
      12 -> 16         0.27736
      12 -> 17        -0.12643
      12 -> 18         0.15755
      12 -> 20        -0.12927

 Excited State  15:      Singlet-A     10.5613 eV  117.40 nm  f=0.0038  <S**2>=0.000
       9 -> 14        -0.20861
      10 -> 16         0.49183
      13 -> 16         0.15409
      13 -> 18         0.23885
      13 -> 19        -0.30368

 The electronic state is 1-A.
 Alpha  occ. eigenvalues --   -1.85018  -1.13884  -0.88304  -0.79159  -0.75666
 Alpha  occ. eigenvalues --   -0.66331  -0.64025  -0.57535  -0.55509  -0.45083
 Alpha  occ. eigenvalues --   -0.44212  -0.43501  -0.31630
 Alpha virt. eigenvalues --    0.08671   0.16493   0.17633   0.23994   0.26761
 Alpha virt. eigenvalues --    0.29307   0.34554   0.39538   0.48462   0.55505
 Alpha virt. eigenvalues --    0.60637

 Mulliken charges:
               1
     1  C   -0.177444
     2  C   -2.015540
     3  O    3.447483
     4  C   -2.002362
     5  C   -0.221744
     6  H    0.213655
     7  H    0.273624
     8  H    0.274641
     9  H    0.207687
 Sum of Mulliken charges =   0.00000

 Dipole moment (field-independent basis, Debye):
    X=              1.5969    Y=            -10.3538    Z=             -0.5209  Tot=             10.4892
 N-N= 1.042016889457D+02 E-N=-1.698896015679D+02  KE=-1.436864793634D+01
 Orbital energies and kinetic energies (alpha):
                                 1                 2
   1         O                -1.850181         -1.256002
   2         O                -1.138845         -0.963656
   3         O                -0.883037         -0.782023
   4         O                -0.791593         -0.536837
   5         O                -0.756664         -0.627423
   6         O                -0.663308         -0.562998
   7         O                -0.640246         -0.501856

 Normal termination of Gaussian 09 at Tue Dec 15 17:07:39 2015.
