 Gaussian 09, Revision D.01,
 Gaussian 09:  ES64L-G09RevD.01 24-Apr-2013

 ------------------------------------------------------------
 #P AM1(Input,print) CIS(Singlets,NStates=15) pop(full) force
 ------------------------------------------------------------

 -----------------
 AM1-Reparam Input
 -----------------
 Symbolic Z-matrix:
 Charge =  0 Multiplicity = 1

                         Standard orientation:
 ---------------------------------------------------------------------
 Center     Atomic      Atomic             Coordinates (Angstroms)
 Number     Number       Type             X           Y           Z
 ---------------------------------------------------------------------
      1          6           0       -0.873396    0.885094    0.037995
      2          6           0       -1.056651   -0.514862   -0.031016
      3          8           0        0.187870   -1.157394    0.029963
      4          6           0        1.139993   -0.180627   -0.018536
      5          6           0        0.583327    1.030721   -0.014062
      6          1           0        1.102784    1.990162    0.006108
      7          1           0        2.125937   -0.480355   -0.009790
      8          1           0       -1.858154   -1.182478   -0.058149
      9          1           0       -1.633164    1.609865   -0.024166
 ---------------------------------------------------------------------

 SCF Done:  E(RAM1) =  0.171701508507E-01 A.U. after   13 cycles

 Excitation energies and oscillator strengths:

 Excited State   1:      Singlet-A      4.3655 eV  284.01 nm  f=0.0846  <S**2>=0.000
      12 -> 15         0.20326
      13 -> 14         0.66813
 This state for optimization and/or second-order correction.
 Total Energy, E(CIS) =  0.177597841024
 Copying the excited state density for this state as the 1-particle RhoCI density.

 Excited State   2:      Singlet-A      4.9784 eV  249.04 nm  f=0.0034  <S**2>=0.000
      12 -> 14        -0.42524
      13 -> 15         0.52168
      13 -> 16         0.19925

 Excited State   3:      Singlet-A      5.0161 eV  247.17 nm  f=0.0008  <S**2>=0.000
      12 -> 14         0.12913
      13 -> 15        -0.15568
      13 -> 16         0.66002
      13 -> 22         0.11094

 Excited State   4:      Singlet-A      5.7032 eV  217.39 nm  f=0.0016  <S**2>=0.000
      12 -> 16         0.14507
      12 -> 17         0.14431
      12 -> 18        -0.12880
      13 -> 17         0.41189
      13 -> 18        -0.33658
      13 -> 19        -0.12801
      13 -> 20        -0.17793
      13 -> 21        -0.11749
      13 -> 22         0.14337
      13 -> 23         0.15705

 Excited State   5:      Singlet-A      5.8894 eV  210.52 nm  f=0.0015  <S**2>=0.000
       7 -> 16        -0.19617
      12 -> 16         0.63922
      12 -> 22         0.11767

 Excited State   6:      Singlet-A      6.0622 eV  204.52 nm  f=0.3336  <S**2>=0.000
      12 -> 14         0.48887
      12 -> 15         0.18392
      13 -> 15         0.41225

 Excited State   7:      Singlet-A      6.1616 eV  201.22 nm  f=0.0043  <S**2>=0.000
      12 -> 17        -0.11856
      12 -> 19        -0.22805
      12 -> 21        -0.12934
      12 -> 22         0.10219
      12 -> 23        -0.13790
      13 -> 17         0.15768
      13 -> 19         0.44599
      13 -> 21         0.16584
      13 -> 22        -0.20579
      13 -> 23         0.19789

 Excited State   8:      Singlet-A      6.2672 eV  197.83 nm  f=0.1633  <S**2>=0.000
      12 -> 14        -0.13431
      12 -> 15         0.62910
      13 -> 14        -0.18636

 Excited State   9:      Singlet-A      6.4591 eV  191.95 nm  f=0.0118  <S**2>=0.000
      11 -> 14        -0.11338
      13 -> 17         0.36315
      13 -> 18         0.53880
      13 -> 19        -0.12239

 Excited State  10:      Singlet-A      6.9363 eV  178.75 nm  f=0.0014  <S**2>=0.000
      12 -> 17         0.26742
      12 -> 18         0.56058
      12 -> 20         0.13493
      12 -> 21        -0.11833
      12 -> 23         0.14737
      13 -> 18        -0.10346
      13 -> 19        -0.11492

 Excited State  11:      Singlet-A      7.0319 eV  176.32 nm  f=0.0023  <S**2>=0.000
       9 -> 14         0.28075
       9 -> 15         0.15929
      10 -> 14         0.40506
      11 -> 14        -0.36705
      11 -> 15        -0.24605

 Excited State  12:      Singlet-A      7.3186 eV  169.41 nm  f=0.0031  <S**2>=0.000
       8 -> 14        -0.10564
       9 -> 14        -0.12541
       9 -> 15         0.16317
      10 -> 14         0.40337
      10 -> 15        -0.24956
      11 -> 14         0.32575
      11 -> 15         0.16799
      12 -> 19         0.13703
      13 -> 19         0.10186

 Excited State  13:      Singlet-A      7.3444 eV  168.81 nm  f=0.0015  <S**2>=0.000
      10 -> 14        -0.17920
      10 -> 15         0.14069
      11 -> 14        -0.14623
      12 -> 17         0.27389
      12 -> 19         0.27604
      12 -> 23         0.10999
      13 -> 19         0.37031
      13 -> 21        -0.22121

 Excited State  14:      Singlet-A      7.4817 eV  165.72 nm  f=0.0002  <S**2>=0.000
       9 -> 14         0.11242
      12 -> 17         0.33402
      12 -> 18        -0.17989
      12 -> 19        -0.19464
      12 -> 22         0.20686
      12 -> 24        -0.10208
      13 -> 17        -0.24450
      13 -> 19        -0.10485
      13 -> 20        -0.18531
      13 -> 21         0.11247
      13 -> 22        -0.16863
      13 -> 24         0.24154

 Excited State  15:      Singlet-A      7.6345 eV  162.40 nm  f=0.0036  <S**2>=0.000
       9 -> 14        -0.17956
      11 -> 14        -0.19927
      12 -> 19        -0.15345
      12 -> 20         0.11543
      12 -> 22         0.15282
      13 -> 17        -0.20515
      13 -> 22         0.46119
      13 -> 23         0.22167

 The electronic state is 1-A.
 Alpha  occ. eigenvalues --   -1.54270  -1.22469  -1.10040  -0.82788  -0.81131
 Alpha  occ. eigenvalues --   -0.68402  -0.59269  -0.56983  -0.51398  -0.50537
 Alpha  occ. eigenvalues --   -0.49455  -0.39113  -0.34610
 Alpha virt. eigenvalues --    0.02591   0.06012   0.09859   0.14017   0.14491
 Alpha virt. eigenvalues --    0.15689   0.17777   0.18245   0.19168   0.20722
 Alpha virt. eigenvalues --    0.21948

 Mulliken charges:
               1
     1  C   -0.185488
     2  C   -0.103196
     3  O   -0.102110
     4  C   -0.078232
     5  C   -0.213146
     6  H    0.156161
     7  H    0.177761
     8  H    0.184531
     9  H    0.163719
 Sum of Mulliken charges =   0.00000

 Dipole moment (field-independent basis, Debye):
    X=             -0.1143    Y=              0.4750    Z=             -0.0771  Tot=              0.4946
 N-N= 1.030213028192D+02 E-N=-1.702837880333D+02  KE=-1.651517980528D+01
 Orbital energies and kinetic energies (alpha):
                                 1                 2
   1         O                -1.542703         -1.295952
   2         O                -1.224694         -1.042841
   3         O                -1.100399         -0.964413
   4         O                -0.827877         -0.723897
   5         O                -0.811310         -0.715458
   6         O                -0.684017         -0.601750
   7         O                -0.592690         -0.480573

 Normal termination of Gaussian 09 at Tue Dec 15 16:27:19 2015.
