 Gaussian 09, Revision D.01,
 Gaussian 09:  ES64L-G09RevD.01 24-Apr-2013

 -------------------------------------------------------
 #P B3LYP/3-21G CIS(Singlets,NStates=15) pop(full) force
 -------------------------------------------------------

 --------
 FuranDFT
 --------
 Symbolic Z-matrix:
 Charge =  0 Multiplicity = 1

                         Standard orientation:
 ---------------------------------------------------------------------
 Center     Atomic      Atomic             Coordinates (Angstroms)
 Number     Number       Type             X           Y           Z
 ---------------------------------------------------------------------
      1          6           0        0.998752    0.679922   -0.001949
      2          6           0        0.970490   -0.617294   -0.003461
      3          8           0       -0.401906   -1.116253   -0.007436
      4          6           0       -1.112923    0.025511    0.003450
      5          6           0       -0.424883    1.084749   -0.002005
      6          1           0       -0.759060    2.137273    0.008006
      7          1           0       -2.161964   -0.160181    0.024412
      8          1           0        1.666415   -1.403271    0.051075
      9          1           0        1.881249    1.318878   -0.000214
 ---------------------------------------------------------------------

 SCF Done:  E(RB3LYP) =  -228.732189470     A.U. after   14 cycles

 Excitation energies and oscillator strengths:

 Excited State   1:      Singlet-A      7.4131 eV  167.25 nm  f=0.1029  <S**2>=0.000
      17 -> 19         0.27516
      18 -> 19         0.58990
      18 -> 20         0.21941
 This state for optimization and/or second-order correction.
 Total Energy, E(CIS) =  -228.459764559
 Copying the excited state density for this state as the 1-particle RhoCI density.

 Excited State   2:      Singlet-A      7.9881 eV  155.21 nm  f=0.0686  <S**2>=0.000
      17 -> 19         0.46949
      18 -> 19        -0.34465
      18 -> 20         0.37180

 Excited State   3:      Singlet-A      8.5413 eV  145.16 nm  f=0.0011  <S**2>=0.000
      18 -> 21         0.69938

 Excited State   4:      Singlet-A      9.1750 eV  135.13 nm  f=0.0013  <S**2>=0.000
      16 -> 19         0.61342
      17 -> 21         0.21507
      18 -> 22         0.25103

 Excited State   5:      Singlet-A      9.2846 eV  133.54 nm  f=0.0062  <S**2>=0.000
      16 -> 19        -0.28653
      18 -> 22         0.61981
      18 -> 23        -0.11902

 Excited State   6:      Singlet-A      9.4329 eV  131.44 nm  f=0.0014  <S**2>=0.000
      16 -> 19        -0.18817
      17 -> 21         0.64269
      17 -> 22        -0.13170
      18 -> 22        -0.12622

 Excited State   7:      Singlet-A      9.6307 eV  128.74 nm  f=0.0919  <S**2>=0.000
      17 -> 20         0.67360

 Excited State   8:      Singlet-A      9.9311 eV  124.84 nm  f=0.0025  <S**2>=0.000
      15 -> 19         0.67490
      18 -> 23         0.13939

 Excited State   9:      Singlet-A     10.1429 eV  122.24 nm  f=0.1813  <S**2>=0.000
      17 -> 19         0.25405
      17 -> 22         0.37485
      18 -> 20        -0.33914
      18 -> 22        -0.12292
      18 -> 23        -0.31169

 Excited State  10:      Singlet-A     10.1852 eV  121.73 nm  f=0.1421  <S**2>=0.000
      17 -> 19        -0.21889
      17 -> 21         0.12852
      17 -> 22         0.53369
      18 -> 20         0.29289

 Excited State  11:      Singlet-A     10.2512 eV  120.95 nm  f=0.0830  <S**2>=0.000
      15 -> 19        -0.13450
      17 -> 19         0.16334
      17 -> 22         0.15006
      18 -> 20        -0.21343
      18 -> 23         0.57964

 Excited State  12:      Singlet-A     10.5898 eV  117.08 nm  f=0.0015  <S**2>=0.000
      18 -> 24         0.68873

 Excited State  13:      Singlet-A     10.9200 eV  113.54 nm  f=0.0006  <S**2>=0.000
      13 -> 19         0.25297
      14 -> 19         0.31178
      16 -> 20         0.53829
      17 -> 24        -0.10314
      18 -> 25        -0.16756

 Excited State  14:      Singlet-A     11.0254 eV  112.45 nm  f=0.0009  <S**2>=0.000
      12 -> 19         0.11086
      13 -> 19         0.43704
      14 -> 19        -0.28052
      17 -> 23        -0.43159

 Excited State  15:      Singlet-A     11.0434 eV  112.27 nm  f=0.0048  <S**2>=0.000
      13 -> 19        -0.16735
      14 -> 19         0.30055
      16 -> 20         0.10721
      17 -> 23        -0.35000
      18 -> 25         0.45955

 The electronic state is 1-A.
 Alpha  occ. eigenvalues --  -19.09851 -10.16968 -10.16326 -10.12976 -10.11834
 Alpha  occ. eigenvalues --   -1.10530  -0.81780  -0.75378  -0.60019  -0.57194
 Alpha  occ. eigenvalues --   -0.54059  -0.43923  -0.43555  -0.42979  -0.38945
 Alpha  occ. eigenvalues --   -0.36531  -0.27901  -0.24620
 Alpha virt. eigenvalues --    0.03041   0.09336   0.11745   0.14444   0.17274
 Alpha virt. eigenvalues --    0.18225   0.20493   0.23784   0.38092   0.42915
 Alpha virt. eigenvalues --    0.48372   0.66724   0.68609   0.69528   0.76166

 Mulliken charges:
               1
     1  C   -0.238542
     2  C    0.029420
     3  O   -0.470865
     4  C    0.128545
     5  C   -0.260620
     6  H    0.184952
     7  H    0.215939
     8  H    0.214806
     9  H    0.196365
 Sum of Mulliken charges =   0.00000

 Dipole moment (field-independent basis, Debye):
    X=              0.4270    Y=              0.8987    Z=              0.0880  Tot=              0.9988
 Quadrupole moment (field-independent basis, Debye-Ang):
   XX=            -23.9687   YY=            -27.7749   ZZ=            -31.5112
   XY=             -1.1405   XZ=              0.0427   YZ=             -0.0791

 Normal termination of Gaussian 09 at Tue Dec 15 16:31:19 2015.
