 Gaussian 09, Revision D.01,
 Gaussian 09:  ES64L-G09RevD.01 24-Apr-2013

 ------------------------------------------------------------
 #P AM1(Input,print) CIS(Singlets,NStates=15) pop(full) force
 ------------------------------------------------------------

 -----------------
 AM1-Reparam Input
 -----------------
 Symbolic Z-matrix:
 Charge =  0 Multiplicity = 1

                         Standard orientation:
 ---------------------------------------------------------------------
 Center     Atomic      Atomic             Coordinates (Angstroms)
 Number     Number       Type             X           Y           Z
 ---------------------------------------------------------------------
      1          6           0       -0.997617    0.663434    0.002578
      2          6           0       -0.876975   -0.703491   -0.019168
      3          8           0        0.403608   -1.045229    0.013682
      4          6           0        1.141382    0.032805   -0.004873
      5          6           0        0.313001    1.104345   -0.014920
      6          1           0        0.565638    2.173084    0.016866
      7          1           0        2.267236   -0.017053    0.024764
      8          1           0       -1.574377   -1.494734   -0.004473
      9          1           0       -1.966114    1.117970    0.071685
 ---------------------------------------------------------------------

 SCF Done:  E(RAM1) =   2.03626883122     A.U. after   14 cycles

 Excitation energies and oscillator strengths:

 Excited State   1:      Singlet-A      5.6197 eV  220.62 nm  f=0.3267  <S**2>=0.000
      13 -> 14         0.69140
 This state for optimization and/or second-order correction.
 Total Energy, E(CIS) =   2.24279052829
 Copying the excited state density for this state as the 1-particle RhoCI density.

 Excited State   2:      Singlet-A      6.8920 eV  179.89 nm  f=0.0046  <S**2>=0.000
      12 -> 14         0.67247
      13 -> 15         0.17077

 Excited State   3:      Singlet-A      6.9422 eV  178.60 nm  f=0.0129  <S**2>=0.000
      12 -> 14        -0.18608
      13 -> 15         0.55744
      13 -> 16         0.31069
      13 -> 17        -0.20578

 Excited State   4:      Singlet-A      7.2091 eV  171.98 nm  f=0.0002  <S**2>=0.000
      13 -> 15        -0.30447
      13 -> 16         0.54672
      13 -> 18         0.28159

 Excited State   5:      Singlet-A      7.7284 eV  160.43 nm  f=0.0064  <S**2>=0.000
      10 -> 14         0.32985
      11 -> 14         0.61319

 Excited State   6:      Singlet-A      8.2679 eV  149.96 nm  f=0.0002  <S**2>=0.000
      13 -> 16        -0.16387
      13 -> 17        -0.14093
      13 -> 18         0.26988
      13 -> 19         0.48625
      13 -> 20        -0.32170
      13 -> 21        -0.12268

 Excited State   7:      Singlet-A      8.8111 eV  140.71 nm  f=0.1146  <S**2>=0.000
      10 -> 14         0.61021
      11 -> 14        -0.32989

 Excited State   8:      Singlet-A      8.9492 eV  138.54 nm  f=0.0203  <S**2>=0.000
      10 -> 16         0.13833
      13 -> 15         0.18148
      13 -> 17         0.61849
      13 -> 18         0.15224
      13 -> 20        -0.11179

 Excited State   9:      Singlet-A      9.2469 eV  134.08 nm  f=0.0011  <S**2>=0.000
      10 -> 15        -0.11517
      13 -> 16        -0.17449
      13 -> 17        -0.10794
      13 -> 18         0.49165
      13 -> 19        -0.40462

 Excited State  10:      Singlet-A      9.4571 eV  131.10 nm  f=0.0551  <S**2>=0.000
       9 -> 16         0.12671
       9 -> 18         0.10627
      10 -> 15         0.15825
      11 -> 15         0.27555
      11 -> 17        -0.17616
      11 -> 19        -0.10163
      12 -> 15         0.24419
      12 -> 16         0.29089
      12 -> 17        -0.18668
      12 -> 18         0.14072
      12 -> 19         0.19487
      13 -> 14         0.10451

 Excited State  11:      Singlet-A      9.8188 eV  126.27 nm  f=0.0714  <S**2>=0.000
      11 -> 16        -0.11336
      12 -> 15         0.55530
      12 -> 16        -0.22965
      12 -> 17        -0.14857
      12 -> 18        -0.26053

 Excited State  12:      Singlet-A      9.8402 eV  126.00 nm  f=0.0081  <S**2>=0.000
      13 -> 18         0.24050
      13 -> 19         0.29517
      13 -> 20         0.53919
      13 -> 21         0.22791

 Excited State  13:      Singlet-A     10.1426 eV  122.24 nm  f=0.0827  <S**2>=0.000
      10 -> 15        -0.25181
      11 -> 15         0.36713
      11 -> 16         0.35823
      11 -> 17        -0.11499
      12 -> 16        -0.27164
      13 -> 16         0.12286

 Excited State  14:      Singlet-A     10.2025 eV  121.52 nm  f=0.0593  <S**2>=0.000
      10 -> 15         0.20692
      11 -> 16         0.16631
      13 -> 20        -0.24617
      13 -> 21         0.56791

 Excited State  15:      Singlet-A     10.2575 eV  120.87 nm  f=0.0503  <S**2>=0.000
      10 -> 15         0.33504
      10 -> 16         0.26524
      10 -> 17        -0.10536
      11 -> 16         0.24103
      11 -> 18         0.13109
      12 -> 17         0.11750
      12 -> 19        -0.17435
      13 -> 21        -0.29921

 The electronic state is 1-A.
 Alpha  occ. eigenvalues --   -1.96262  -1.21704  -0.96630  -0.83128  -0.78733
 Alpha  occ. eigenvalues --   -0.68924  -0.66851  -0.56036  -0.53870  -0.44867
 Alpha  occ. eigenvalues --   -0.44186  -0.42040  -0.31339
 Alpha virt. eigenvalues --    0.10707   0.18090   0.19354   0.24710   0.26446
 Alpha virt. eigenvalues --    0.27862   0.29932   0.30077   0.38860   0.47118
 Alpha virt. eigenvalues --    0.52442

 Mulliken charges:
               1
     1  C   -0.189006
     2  C   -2.039482
     3  O    3.189458
     4  C   -2.042642
     5  C   -0.212349
     6  H    0.263546
     7  H    0.398692
     8  H    0.370433
     9  H    0.261350
 Sum of Mulliken charges =   0.00000

 Dipole moment (field-independent basis, Debye):
    X=              3.4624    Y=             -8.5214    Z=              0.5539  Tot=              9.2146
 N-N= 1.052621396011D+02 E-N=-1.711928096594D+02  KE=-1.556754938295D+01
 Orbital energies and kinetic energies (alpha):
                                 1                 2
   1         O                -1.962618         -1.437192
   2         O                -1.217042         -1.072768
   3         O                -0.966302         -0.867463
   4         O                -0.831278         -0.603975
   5         O                -0.787328         -0.678625
   6         O                -0.689240         -0.574165
   7         O                -0.668506         -0.532568

 Normal termination of Gaussian 09 at Tue Dec 15 17:07:16 2015.
