 Gaussian 09, Revision D.01,
 Gaussian 09:  ES64L-G09RevD.01 24-Apr-2013

 ------------------------------------------------------------
 #P AM1(Input,print) CIS(Singlets,NStates=15) pop(full) force
 ------------------------------------------------------------

 -----------------
 AM1-Reparam Input
 -----------------
 Symbolic Z-matrix:
 Charge =  0 Multiplicity = 1

                         Standard orientation:
 ---------------------------------------------------------------------
 Center     Atomic      Atomic             Coordinates (Angstroms)
 Number     Number       Type             X           Y           Z
 ---------------------------------------------------------------------
      1          6           0       -0.357273    1.107183    0.008426
      2          6           0       -1.134583   -0.015534   -0.019840
      3          8           0       -0.369875   -1.079863    0.012951
      4          6           0        0.918742   -0.623146   -0.030174
      5          6           0        0.961139    0.656778    0.000726
      6          1           0        1.851394    1.255369    0.024804
      7          1           0        1.690044   -1.408432    0.072972
      8          1           0       -2.200424   -0.150930    0.036690
      9          1           0       -0.710163    2.191213    0.007102
 ---------------------------------------------------------------------

 SCF Done:  E(RAM1) =   1.84295586560     A.U. after   14 cycles

 Excitation energies and oscillator strengths:

 Excited State   1:      Singlet-A      5.5676 eV  222.69 nm  f=0.3280  <S**2>=0.000
      13 -> 14         0.68961
 This state for optimization and/or second-order correction.
 Total Energy, E(CIS) =   2.04756177930
 Copying the excited state density for this state as the 1-particle RhoCI density.

 Excited State   2:      Singlet-A      6.6717 eV  185.83 nm  f=0.0067  <S**2>=0.000
      13 -> 15         0.66190
      13 -> 16         0.14101
      13 -> 17        -0.15503

 Excited State   3:      Singlet-A      6.7590 eV  183.43 nm  f=0.0002  <S**2>=0.000
      13 -> 15        -0.13473
      13 -> 16         0.66023
      13 -> 19         0.14058

 Excited State   4:      Singlet-A      7.5765 eV  163.64 nm  f=0.0002  <S**2>=0.000
      12 -> 14         0.69916

 Excited State   5:      Singlet-A      8.2058 eV  151.09 nm  f=0.0065  <S**2>=0.000
      11 -> 14         0.68292
      13 -> 17        -0.10877
      13 -> 18        -0.10895

 Excited State   6:      Singlet-A      8.2254 eV  150.73 nm  f=0.0001  <S**2>=0.000
      11 -> 14         0.13862
      13 -> 17         0.14963
      13 -> 18         0.61831
      13 -> 20         0.10673
      13 -> 21        -0.21509

 Excited State   7:      Singlet-A      8.9000 eV  139.31 nm  f=0.0080  <S**2>=0.000
      10 -> 16         0.11937
      13 -> 15         0.13010
      13 -> 17         0.64848
      13 -> 18        -0.15620

 Excited State   8:      Singlet-A      9.2478 eV  134.07 nm  f=0.0609  <S**2>=0.000
       8 -> 16        -0.10300
      10 -> 14         0.62578
      11 -> 18         0.11172
      12 -> 16         0.15980
      12 -> 18        -0.11619

 Excited State   9:      Singlet-A      9.5251 eV  130.17 nm  f=0.0004  <S**2>=0.000
      10 -> 15        -0.11158
      13 -> 16        -0.10604
      13 -> 19         0.67263

 Excited State  10:      Singlet-A      9.7004 eV  127.81 nm  f=0.0252  <S**2>=0.000
       8 -> 15         0.12347
       9 -> 16        -0.10281
      10 -> 14         0.23572
      11 -> 15        -0.23071
      11 -> 16        -0.10221
      11 -> 17         0.24877
      12 -> 15         0.15253
      12 -> 16        -0.30316
      12 -> 18         0.34028
      13 -> 14        -0.10046

 Excited State  11:      Singlet-A     10.0593 eV  123.25 nm  f=0.3022  <S**2>=0.000
      11 -> 15        -0.36364
      11 -> 16        -0.12850
      11 -> 17         0.13583
      12 -> 15        -0.25632
      12 -> 16         0.45453
      12 -> 19         0.11935

 Excited State  12:      Singlet-A     10.1125 eV  122.60 nm  f=0.0230  <S**2>=0.000
      11 -> 16        -0.32439
      11 -> 19        -0.10851
      12 -> 15         0.50161
      12 -> 16         0.27603
      12 -> 17        -0.11629

 Excited State  13:      Singlet-A     10.3080 eV  120.28 nm  f=0.0478  <S**2>=0.000
      10 -> 16         0.10932
      13 -> 18        -0.19895
      13 -> 20         0.54523
      13 -> 21        -0.35218

 Excited State  14:      Singlet-A     10.4712 eV  118.40 nm  f=0.0017  <S**2>=0.000
      10 -> 15         0.63245
      13 -> 18        -0.10711
      13 -> 21        -0.15303

 Excited State  15:      Singlet-A     10.7233 eV  115.62 nm  f=0.0732  <S**2>=0.000
       8 -> 16        -0.15552
       9 -> 15         0.12785
      10 -> 14        -0.11916
      10 -> 15         0.13810
      11 -> 16         0.21698
      11 -> 18         0.15556
      11 -> 19         0.17690
      12 -> 15         0.14471
      12 -> 17         0.15342
      13 -> 20         0.26831
      13 -> 21         0.38691

 The electronic state is 1-A.
 Alpha  occ. eigenvalues --   -2.01583  -1.29835  -1.01543  -0.90256  -0.85284
 Alpha  occ. eigenvalues --   -0.77346  -0.75544  -0.63390  -0.61475  -0.52625
 Alpha  occ. eigenvalues --   -0.51190  -0.49388  -0.36883
 Alpha virt. eigenvalues --    0.05196   0.11056   0.11164   0.19395   0.20208
 Alpha virt. eigenvalues --    0.22920   0.25490   0.27913   0.30540   0.38623
 Alpha virt. eigenvalues --    0.43663

 Mulliken charges:
               1
     1  C   -0.190174
     2  C   -1.910070
     3  O    3.165024
     4  C   -1.877316
     5  C   -0.085722
     6  H    0.149234
     7  H    0.288372
     8  H    0.293696
     9  H    0.166956
 Sum of Mulliken charges =   0.00000

 Dipole moment (field-independent basis, Debye):
    X=             -3.1529    Y=             -9.9635    Z=              0.7956  Tot=             10.4807
 N-N= 1.065412000686D+02 E-N=-1.721422430818D+02  KE=-1.572738704650D+01
 Orbital energies and kinetic energies (alpha):
                                 1                 2
   1         O                -2.015834         -1.411615
   2         O                -1.298353         -1.065830
   3         O                -1.015426         -0.890143
   4         O                -0.902563         -0.584198
   5         O                -0.852842         -0.700779
   6         O                -0.773462         -0.583878
   7         O                -0.755439         -0.573693

 Normal termination of Gaussian 09 at Tue Dec 15 17:09:09 2015.
