 Gaussian 09, Revision D.01,
 Gaussian 09:  ES64L-G09RevD.01 24-Apr-2013

 ------------------------------------------------------------
 #P AM1(Input,print) CIS(Singlets,NStates=15) pop(full) force
 ------------------------------------------------------------

 -----------------
 AM1-Reparam Input
 -----------------
 Symbolic Z-matrix:
 Charge =  0 Multiplicity = 1

                         Standard orientation:
 ---------------------------------------------------------------------
 Center     Atomic      Atomic             Coordinates (Angstroms)
 Number     Number       Type             X           Y           Z
 ---------------------------------------------------------------------
      1          6           0       -0.885000    0.851222   -0.017525
      2          6           0       -1.028314   -0.529937    0.024752
      3          8           0        0.176282   -1.125813   -0.025403
      4          6           0        1.140646   -0.185201    0.009596
      5          6           0        0.603293    1.036301    0.004514
      6          1           0        1.084755    1.957468   -0.002401
      7          1           0        2.141008   -0.531214    0.041122
      8          1           0       -1.941124   -1.084861    0.040854
      9          1           0       -1.678640    1.630808   -0.004370
 ---------------------------------------------------------------------

 SCF Done:  E(RAM1) =   2.10130422187     A.U. after   13 cycles

 Excitation energies and oscillator strengths:

 Excited State   1:      Singlet-A      5.2393 eV  236.64 nm  f=0.3730  <S**2>=0.000
      13 -> 14         0.69727
 This state for optimization and/or second-order correction.
 Total Energy, E(CIS) =   2.29384361747
 Copying the excited state density for this state as the 1-particle RhoCI density.

 Excited State   2:      Singlet-A      6.4847 eV  191.20 nm  f=0.0037  <S**2>=0.000
      13 -> 15         0.62695
      13 -> 16         0.24795
      13 -> 17        -0.15938

 Excited State   3:      Singlet-A      6.5468 eV  189.38 nm  f=0.0006  <S**2>=0.000
      13 -> 15        -0.24517
      13 -> 16         0.61093
      13 -> 18         0.16682
      13 -> 19        -0.15314

 Excited State   4:      Singlet-A      6.9499 eV  178.40 nm  f=0.0004  <S**2>=0.000
      12 -> 14         0.70015

 Excited State   5:      Singlet-A      7.8375 eV  158.19 nm  f=0.0001  <S**2>=0.000
      13 -> 16        -0.15414
      13 -> 18         0.57134
      13 -> 19        -0.17018
      13 -> 20         0.18153
      13 -> 21        -0.26516

 Excited State   6:      Singlet-A      8.1870 eV  151.44 nm  f=0.0074  <S**2>=0.000
      10 -> 14         0.63966
      13 -> 17        -0.27448

 Excited State   7:      Singlet-A      8.4549 eV  146.64 nm  f=0.0019  <S**2>=0.000
      10 -> 14         0.28519
      13 -> 15         0.10860
      13 -> 17         0.62138

 Excited State   8:      Singlet-A      8.8750 eV  139.70 nm  f=0.1077  <S**2>=0.000
      11 -> 14         0.67573
      13 -> 22         0.11583

 Excited State   9:      Singlet-A      9.0000 eV  137.76 nm  f=0.0040  <S**2>=0.000
      13 -> 18         0.22086
      13 -> 19         0.65016

 Excited State  10:      Singlet-A      9.4064 eV  131.81 nm  f=0.0141  <S**2>=0.000
      13 -> 18        -0.29103
      13 -> 20         0.47226
      13 -> 21        -0.41044

 Excited State  11:      Singlet-A      9.7540 eV  127.11 nm  f=0.0892  <S**2>=0.000
       8 -> 15        -0.10161
      10 -> 17        -0.14475
      12 -> 15        -0.19031
      12 -> 16         0.35227
      12 -> 18         0.24015
      13 -> 20         0.28313
      13 -> 21         0.33621

 Excited State  12:      Singlet-A      9.7883 eV  126.67 nm  f=0.1003  <S**2>=0.000
      10 -> 17         0.11611
      12 -> 15         0.17903
      12 -> 16        -0.29805
      12 -> 18        -0.19795
      13 -> 20         0.36742
      13 -> 21         0.37216

 Excited State  13:      Singlet-A     10.1096 eV  122.64 nm  f=0.0517  <S**2>=0.000
      10 -> 15         0.16911
      11 -> 14         0.10372
      12 -> 15         0.58880
      12 -> 16         0.18448
      12 -> 18         0.10991

 Excited State  14:      Singlet-A     10.3672 eV  119.59 nm  f=0.0138  <S**2>=0.000
       7 -> 16         0.11298
      11 -> 15         0.52393
      11 -> 16         0.35323
      12 -> 18         0.12484
      13 -> 16         0.12696

 Excited State  15:      Singlet-A     10.4521 eV  118.62 nm  f=0.1574  <S**2>=0.000
      10 -> 15        -0.27012
      10 -> 16        -0.23047
      10 -> 17         0.20552
      11 -> 15         0.14955
      12 -> 16         0.39220
      12 -> 18        -0.25143
      12 -> 20        -0.13933

 The electronic state is 1-A.
 Alpha  occ. eigenvalues --   -1.94334  -1.17255  -0.93962  -0.81321  -0.77962
 Alpha  occ. eigenvalues --   -0.69673  -0.66047  -0.56405  -0.53644  -0.46190
 Alpha  occ. eigenvalues --   -0.45296  -0.42034  -0.28920
 Alpha virt. eigenvalues --    0.10198   0.17825   0.18380   0.25904   0.26913
 Alpha virt. eigenvalues --    0.29011   0.30125   0.31199   0.32979   0.40827
 Alpha virt. eigenvalues --    0.45784

 Mulliken charges:
               1
     1  C   -0.161864
     2  C   -1.916997
     3  O    3.217530
     4  C   -1.874740
     5  C   -0.141474
     6  H    0.158163
     7  H    0.270302
     8  H    0.285787
     9  H    0.163294
 Sum of Mulliken charges =   0.00000

 Dipole moment (field-independent basis, Debye):
    X=              1.5950    Y=            -10.1223    Z=             -0.4769  Tot=             10.2583
 N-N= 1.039644295145D+02 E-N=-1.689582262688D+02  KE=-1.530717279783D+01
 Orbital energies and kinetic energies (alpha):
                                 1                 2
   1         O                -1.943339         -1.373389
   2         O                -1.172547         -1.028326
   3         O                -0.939622         -0.880775
   4         O                -0.813214         -0.573379
   5         O                -0.779625         -0.692295
   6         O                -0.696729         -0.577270
   7         O                -0.660467         -0.520127

 Normal termination of Gaussian 09 at Tue Dec 15 17:08:45 2015.
