 Gaussian 09, Revision D.01,
 Gaussian 09:  ES64L-G09RevD.01 24-Apr-2013

 ----------------------------
 #P AM1(Input,print) Opt Freq
 ----------------------------

 -----------------
 AM1-Reparam Input
 -----------------
 Symbolic Z-matrix:
 Charge =  0 Multiplicity = 1

 SCF Done:  E(RAM1) =  0.108592517124E-01 A.U. after   13 cycles
 SCF Done:  E(RAM1) =  0.664844091369E-02 A.U. after   11 cycles
 SCF Done:  E(RAM1) =  0.457258141610E-02 A.U. after   10 cycles
 SCF Done:  E(RAM1) =  0.453566994301E-02 A.U. after   10 cycles
 SCF Done:  E(RAM1) =  0.452794866780E-02 A.U. after    9 cycles
 Optimization completed.
    -- Stationary point found.
 Normal termination of Gaussian 09 at Mon Jan  4 09:49:53 2016.

 -------------------------------------------------------------
 #P Geom=AllCheck Guess=TCheck SCRF=Check GenChk RAM1/ZDO Freq
 -------------------------------------------------------------

 Structure from the checkpoint file:  "/opt/g09/scratch/Gau-13148.chk"
 -----------------
 AM1-Reparam Input
 -----------------
 Charge =  0 Multiplicity = 1

                         Standard orientation:
 ---------------------------------------------------------------------
 Center     Atomic      Atomic             Coordinates (Angstroms)
 Number     Number       Type             X           Y           Z
 ---------------------------------------------------------------------
      1          6           0        0.000000    0.723847   -0.973593
      2          6           0        0.000000    1.118107    0.348613
      3          8           0        0.000000    0.000000    1.183230
      4          6           0        0.000000   -1.118107    0.348613
      5          6           0        0.000000   -0.723847   -0.973593
      6          1           0        0.000000   -1.356812   -1.856054
      7          1           0        0.000000   -2.068362    0.873014
      8          1           0        0.000000    2.068362    0.873014
      9          1           0        0.000000    1.356812   -1.856054
 ---------------------------------------------------------------------

 SCF Done:  E(RAM1) =  0.452794866781E-02 A.U. after    2 cycles

 The electronic state is 1-A1.
 Alpha  occ. eigenvalues --   -1.52654  -1.22211  -1.08437  -0.81511  -0.81120
 Alpha  occ. eigenvalues --   -0.67431  -0.58510  -0.56158  -0.50653  -0.50603
 Alpha  occ. eigenvalues --   -0.49600  -0.39121  -0.34237
 Alpha virt. eigenvalues --    0.02656   0.06187   0.09736   0.13622   0.14637
 Alpha virt. eigenvalues --    0.14982   0.17793   0.17839   0.18950   0.20746
 Alpha virt. eigenvalues --    0.21873

 Mulliken charges:
               1
     1  C   -0.199276
     2  C   -0.097220
     3  O   -0.107218
     4  C   -0.097220
     5  C   -0.199276
     6  H    0.160969
     7  H    0.189136
     8  H    0.189136
     9  H    0.160969
 Sum of Mulliken charges =   0.00000

 Dipole moment (field-independent basis, Debye):
    X=              0.0000    Y=              0.0000    Z=             -0.4919  Tot=              0.4919
 N-N= 1.025625045390D+02 E-N=-1.696303084090D+02  KE=-1.644072324305D+01
 Symmetry A1   KE=-8.984981967043D+00
 Symmetry A2   KE=-6.247625727850D-01
 Symmetry B1   KE=-1.636820771914D+00
 Symmetry B2   KE=-5.194157931308D+00
  Exact polarizability:   7.396   0.000  46.220   0.000   0.000  47.474
 Approx polarizability:   5.282   0.000  36.042   0.000   0.000  43.721
 Leave Link  601 at Mon Jan  4 09:49:53 2016, MaxMem=    33554432 cpu:         0.0
 (Enter /opt/g09/g09/l701.exe)
 Compute integral second derivatives.

                      1                      2                      3
                     B1                     A2                     B1
 Frequencies --    513.3920               529.9076               823.7752
 Red. masses --      2.9907                 1.8397                 1.2008
 Frc consts  --      0.4644                 0.3044                 0.4801
 IR Inten    --     13.1450                 0.0000               140.3375

                      4                      5                      6
                     A2                     B1                     A1
 Frequencies --    829.3299               871.7655               911.4799
 Red. masses --      1.3754                 1.4278                 4.6900
 Frc consts  --      0.5574                 0.6393                 2.2957
 IR Inten    --      0.0000                 0.1923                 5.4379

                      7                      8                      9
                     B2                     A2                     A1
 Frequencies --    923.9458               929.7907              1096.2221
 Red. masses --      6.1930                 1.6862                 1.1438
 Frc consts  --      3.1149                 0.8589                 0.8098
 IR Inten    --      0.0339                 0.0000                28.2881

                     10                     11                     12
                     B2                     A1                     B2
 Frequencies --   1106.4480              1167.5890              1243.1105
 Red. masses --      1.1778                 1.1955                 1.2182
 Frc consts  --      0.8495                 0.9603                 1.1092
 IR Inten    --      3.3568                 7.3281                 0.3244

                     13                     14                     15
                     A1                     B2                     A1
 Frequencies --   1353.8959              1366.9451              1487.5146
 Red. masses --      7.8422                 5.8241                 5.5120
 Frc consts  --      8.4695                 6.4118                 7.1859
 IR Inten    --     37.8961                 4.7512                 0.6179

                     16                     17                     18
                     A1                     B2                     B2
 Frequencies --   1622.6610              1674.2326              3281.3085
 Red. masses --      5.9623                 7.3941                 1.0838
 Frc consts  --      9.2495                12.2115                 6.8752
 IR Inten    --     11.3217                 7.7393                 7.3220

                     19                     20                     21
                     A1                     B2                     A1
 Frequencies --   3283.4295              3292.1970              3303.6409
 Red. masses --      1.0832                 1.0854                 1.1004
 Frc consts  --      6.8807                 6.9311                 7.0762
 IR Inten    --    136.3117               184.0860                 4.1896

 - Thermochemistry -
 -------------------
 Temperature   298.150 Kelvin.  Pressure   1.00000 Atm.
 Atom     1 has atomic number  6 and mass  12.00000

 Molecular mass:    68.02621 amu.
 Principal axes and moments of inertia in atomic units:
                           1         2         3
     Eigenvalues --   196.09683 201.70729 397.80412
           X            0.00000   0.00000   1.00000
           Y            0.00000   1.00000   0.00000
           Z            1.00000   0.00000   0.00000
 This molecule is an asymmetric top.
 Rotational symmetry number  2.
 Rotational temperatures (Kelvin)      0.44169     0.42940     0.21773
 Rotational constants (GHZ):           9.20332     8.94733     4.53676
 Zero-point vibrational energy     189085.2 (Joules/Mol)
                                   45.19245 (Kcal/Mol)
 Warning -- explicit consideration of   2 degrees of freedom as
           vibrations may cause significant error
 Vibrational temperatures:    738.66   762.42  1185.23  1193.22  1254.27
          (Kelvin)           1311.41  1329.35  1337.76  1577.22  1591.93
                             1679.90  1788.56  1947.95  1966.73  2140.20
                             2334.64  2408.84  4721.07  4724.12  4736.73
                             4753.20

 Zero-point correction=                           0.072019 (Hartree/Particle)
 Thermal correction to Energy=                    0.075731
 Thermal correction to Enthalpy=                  0.076675
 Thermal correction to Gibbs Free Energy=         0.046333
 Sum of electronic and zero-point Energies=              0.076547
 Sum of electronic and thermal Energies=                 0.080259
 Sum of electronic and thermal Enthalpies=               0.081203
 Sum of electronic and thermal Free Energies=            0.050861

                     E (Thermal)             CV                S
                      KCal/Mol        Cal/Mol-Kelvin    Cal/Mol-Kelvin
 Total                   47.522             12.907             63.861
 Electronic               0.000              0.000              0.000
 Translational            0.889              2.981             38.570
 Rotational               0.889              2.981             22.891
 Vibrational             45.744              6.946              2.400
 Vibration     1          0.868              1.220              0.625
 Vibration     2          0.885              1.184              0.587

 Optimization completed.
    -- Stationary point found.
 Normal termination of Gaussian 09 at Mon Jan  4 09:49:53 2016.
