 Gaussian 09, Revision D.01,
 Gaussian 09:  ES64L-G09RevD.01 24-Apr-2013

 ------------------------------------------------------------
 #P AM1(Input,print) CIS(Singlets,NStates=15) pop(full) force
 ------------------------------------------------------------

 -----------------
 AM1-Reparam Input
 -----------------
 Symbolic Z-matrix:
 Charge =  0 Multiplicity = 1

                         Standard orientation:
 ---------------------------------------------------------------------
 Center     Atomic      Atomic             Coordinates (Angstroms)
 Number     Number       Type             X           Y           Z
 ---------------------------------------------------------------------
      1          6           0       -0.948388    0.813173   -0.020257
      2          6           0       -0.985423   -0.618480   -0.014085
      3          8           0        0.261296   -1.072863    0.015507
      4          6           0        1.185691   -0.120481   -0.012115
      5          6           0        0.485941    1.046557    0.028516
      6          1           0        0.912059    2.022266   -0.028832
      7          1           0        2.133718   -0.338212   -0.046274
      8          1           0       -1.858493   -1.254421    0.018396
      9          1           0       -1.704583    1.428654    0.040298
 ---------------------------------------------------------------------

 SCF Done:  E(RAM1) =   1.81788454694     A.U. after   13 cycles

 Excitation energies and oscillator strengths:

 Excited State   1:      Singlet-A      5.6443 eV  219.66 nm  f=0.3488  <S**2>=0.000
      13 -> 14         0.69069
 This state for optimization and/or second-order correction.
 Total Energy, E(CIS) =   2.02530714909
 Copying the excited state density for this state as the 1-particle RhoCI density.

 Excited State   2:      Singlet-A      6.4406 eV  192.50 nm  f=0.0009  <S**2>=0.000
      12 -> 14         0.69672

 Excited State   3:      Singlet-A      6.7535 eV  183.58 nm  f=0.0106  <S**2>=0.000
      13 -> 15         0.65464
      13 -> 17        -0.19922

 Excited State   4:      Singlet-A      7.2074 eV  172.02 nm  f=0.0027  <S**2>=0.000
      13 -> 16         0.64936
      13 -> 18        -0.16883
      13 -> 19        -0.15306

 Excited State   5:      Singlet-A      7.8498 eV  157.95 nm  f=0.0035  <S**2>=0.000
      10 -> 14         0.69295

 Excited State   6:      Singlet-A      8.1468 eV  152.19 nm  f=0.0003  <S**2>=0.000
      11 -> 15        -0.12490
      13 -> 15         0.12302
      13 -> 17         0.45770
      13 -> 18        -0.38567
      13 -> 19         0.10064
      13 -> 20         0.15852
      13 -> 21        -0.23914

 Excited State   7:      Singlet-A      8.7799 eV  141.21 nm  f=0.0909  <S**2>=0.000
      11 -> 14         0.66186
      12 -> 17         0.15263

 Excited State   8:      Singlet-A      8.8944 eV  139.40 nm  f=0.0125  <S**2>=0.000
      11 -> 16         0.15554
      13 -> 15         0.11606
      13 -> 17         0.45338
      13 -> 18         0.41747
      13 -> 19        -0.11355
      13 -> 20        -0.17700
      13 -> 21         0.11732

 Excited State   9:      Singlet-A      9.0769 eV  136.59 nm  f=0.0508  <S**2>=0.000
       9 -> 16        -0.12328
      10 -> 15        -0.16990
      10 -> 16        -0.18004
      10 -> 17         0.10076
      10 -> 18         0.16320
      11 -> 14         0.14030
      12 -> 15         0.43004
      12 -> 17        -0.27609
      12 -> 18         0.17810

 Excited State  10:      Singlet-A      9.2748 eV  133.68 nm  f=0.0032  <S**2>=0.000
      11 -> 15         0.16040
      13 -> 16         0.13505
      13 -> 19         0.64187

 Excited State  11:      Singlet-A      9.4688 eV  130.94 nm  f=0.0879  <S**2>=0.000
      12 -> 15         0.19968
      12 -> 16         0.59903
      12 -> 18        -0.20791

 Excited State  12:      Singlet-A      9.7844 eV  126.72 nm  f=0.1311  <S**2>=0.000
       8 -> 15         0.12047
       9 -> 15         0.10838
      10 -> 15         0.11503
      11 -> 14        -0.11439
      12 -> 15         0.38085
      12 -> 16        -0.17669
      12 -> 17         0.23350
      12 -> 18        -0.22199
      12 -> 19         0.26007
      13 -> 20         0.10594
      13 -> 21        -0.11522

 Excited State  13:      Singlet-A      9.8119 eV  126.36 nm  f=0.0148  <S**2>=0.000
       9 -> 14         0.17269
      13 -> 18        -0.33352
      13 -> 20        -0.31102
      13 -> 21         0.44316

 Excited State  14:      Singlet-A      9.9934 eV  124.07 nm  f=0.0465  <S**2>=0.000
       9 -> 14        -0.11065
       9 -> 15        -0.18315
      10 -> 15         0.52281
      10 -> 17        -0.11842
      10 -> 19         0.17516
      11 -> 15        -0.14885
      12 -> 15         0.12284
      12 -> 16        -0.10662
      12 -> 17        -0.20316

 Excited State  15:      Singlet-A     10.0271 eV  123.65 nm  f=0.0007  <S**2>=0.000
       9 -> 14         0.65294
      13 -> 20         0.13408

 The electronic state is 1-A.
 Alpha  occ. eigenvalues --   -1.95907  -1.20878  -1.00447  -0.82724  -0.80846
 Alpha  occ. eigenvalues --   -0.69913  -0.68305  -0.55638  -0.50165  -0.44174
 Alpha  occ. eigenvalues --   -0.43788  -0.39428  -0.30134
 Alpha virt. eigenvalues --    0.11155   0.18659   0.20329   0.25180   0.27645
 Alpha virt. eigenvalues --    0.28449   0.31022   0.32100   0.38408   0.46014
 Alpha virt. eigenvalues --    0.52726

 Mulliken charges:
               1
     1  C   -0.104264
     2  C   -2.003047
     3  O    3.166115
     4  C   -1.959414
     5  C   -0.090127
     6  H    0.166883
     7  H    0.320498
     8  H    0.335377
     9  H    0.167979
 Sum of Mulliken charges =   0.00000

 Dipole moment (field-independent basis, Debye):
    X=              1.9109    Y=             -8.5614    Z=              0.3866  Tot=              8.7805
 N-N= 1.045793729709D+02 E-N=-1.701617502660D+02  KE=-1.571431727233D+01
 Orbital energies and kinetic energies (alpha):
                                 1                 2
   1         O                -1.959066         -1.445287
   2         O                -1.208775         -1.064024
   3         O                -1.004472         -0.911115
   4         O                -0.827241         -0.628625
   5         O                -0.808465         -0.710147
   6         O                -0.699126         -0.567072
   7         O                -0.683052         -0.585198

 Normal termination of Gaussian 09 at Tue Dec 15 17:10:00 2015.
