 Gaussian 09, Revision D.01,
 Gaussian 09:  ES64L-G09RevD.01 24-Apr-2013

 ------------------------------------------------------------
 #P AM1(Input,print) CIS(Singlets,NStates=15) pop(full) force
 ------------------------------------------------------------

 -----------------
 AM1-Reparam Input
 -----------------
 Symbolic Z-matrix:
 Charge =  0 Multiplicity = 1

                         Standard orientation:
 ---------------------------------------------------------------------
 Center     Atomic      Atomic             Coordinates (Angstroms)
 Number     Number       Type             X           Y           Z
 ---------------------------------------------------------------------
      1          6           0        0.701226    0.967271    0.040553
      2          6           0        1.125392   -0.316932   -0.018002
      3          8           0        0.007052   -1.142557   -0.010788
      4          6           0       -1.064523   -0.340344    0.037152
      5          6           0       -0.742517    0.901630   -0.041313
      6          1           0       -1.448645    1.775495   -0.029997
      7          1           0       -2.014939   -0.928212    0.013211
      8          1           0        2.024224   -0.811181   -0.003780
      9          1           0        1.265480    1.834602   -0.003475
 ---------------------------------------------------------------------

 SCF Done:  E(RAM1) =   1.78061807189     A.U. after   13 cycles

 Excitation energies and oscillator strengths:

 Excited State   1:      Singlet-A      5.2670 eV  235.40 nm  f=0.3646  <S**2>=0.000
      13 -> 14         0.69499
 This state for optimization and/or second-order correction.
 Total Energy, E(CIS) =   1.97417517421
 Copying the excited state density for this state as the 1-particle RhoCI density.

 Excited State   2:      Singlet-A      6.4463 eV  192.33 nm  f=0.0004  <S**2>=0.000
      13 -> 15         0.68407
      13 -> 18         0.10751

 Excited State   3:      Singlet-A      6.8655 eV  180.59 nm  f=0.0002  <S**2>=0.000
      12 -> 14         0.70184

 Excited State   4:      Singlet-A      7.2944 eV  169.97 nm  f=0.0029  <S**2>=0.000
      13 -> 16         0.66474
      13 -> 17        -0.13395
      13 -> 19         0.12841

 Excited State   5:      Singlet-A      7.9357 eV  156.24 nm  f=0.0099  <S**2>=0.000
      11 -> 14         0.69793

 Excited State   6:      Singlet-A      8.5398 eV  145.18 nm  f=0.0014  <S**2>=0.000
      13 -> 16         0.11303
      13 -> 17         0.11349
      13 -> 18         0.63512
      13 -> 22        -0.22741

 Excited State   7:      Singlet-A      8.8767 eV  139.67 nm  f=0.0078  <S**2>=0.000
      13 -> 17         0.66527
      13 -> 18        -0.13316

 Excited State   8:      Singlet-A      9.3396 eV  132.75 nm  f=0.0438  <S**2>=0.000
       8 -> 15        -0.12166
      10 -> 14         0.46831
      12 -> 15         0.45763

 Excited State   9:      Singlet-A      9.5578 eV  129.72 nm  f=0.1210  <S**2>=0.000
      10 -> 14         0.46391
      12 -> 15        -0.39626
      12 -> 16         0.18029
      12 -> 18        -0.19629
      13 -> 20        -0.10208

 Excited State  10:      Singlet-A      9.6980 eV  127.85 nm  f=0.0055  <S**2>=0.000
      13 -> 16        -0.11391
      13 -> 19         0.67369

 Excited State  11:      Singlet-A     10.0322 eV  123.59 nm  f=0.0418  <S**2>=0.000
       9 -> 15         0.12593
      11 -> 15         0.34573
      11 -> 17        -0.21258
      11 -> 18         0.12496
      12 -> 15         0.26493
      12 -> 16         0.24495
      12 -> 17        -0.21640
      12 -> 18        -0.25033

 Excited State  12:      Singlet-A     10.4630 eV  118.50 nm  f=0.0625  <S**2>=0.000
      13 -> 18        -0.15608
      13 -> 20         0.42704
      13 -> 21        -0.35385
      13 -> 22        -0.36970

 Excited State  13:      Singlet-A     10.6675 eV  116.23 nm  f=0.1242  <S**2>=0.000
      11 -> 16        -0.22498
      11 -> 17         0.11162
      12 -> 16         0.44467
      12 -> 18         0.10130
      12 -> 19         0.11783
      13 -> 21        -0.25675
      13 -> 22         0.29429

 Excited State  14:      Singlet-A     10.6858 eV  116.03 nm  f=0.0835  <S**2>=0.000
      10 -> 14         0.10968
      11 -> 15         0.16634
      11 -> 16         0.10192
      12 -> 16        -0.27821
      13 -> 18         0.11912
      13 -> 20         0.30469
      13 -> 21        -0.13298
      13 -> 22         0.44063

 Excited State  15:      Singlet-A     10.7727 eV  115.09 nm  f=0.0802  <S**2>=0.000
       9 -> 15         0.11145
      10 -> 14         0.11730
      11 -> 15         0.25089
      11 -> 16        -0.23170
      11 -> 19        -0.10838
      12 -> 16         0.11903
      12 -> 18         0.22453
      13 -> 20         0.23917
      13 -> 21         0.40011

 The electronic state is 1-A.
 Alpha  occ. eigenvalues --   -1.91928  -1.18342  -0.93739  -0.82546  -0.78797
 Alpha  occ. eigenvalues --   -0.70122  -0.68476  -0.56647  -0.55275  -0.47375
 Alpha  occ. eigenvalues --   -0.44390  -0.40994  -0.29206
 Alpha virt. eigenvalues --    0.10909   0.16523   0.20968   0.27465   0.28791
 Alpha virt. eigenvalues --    0.31032   0.33303   0.33508   0.35978   0.42215
 Alpha virt. eigenvalues --    0.45693

 Mulliken charges:
               1
     1  C   -0.171860
     2  C   -2.001496
     3  O    3.292177
     4  C   -1.978912
     5  C   -0.203554
     6  H    0.210995
     7  H    0.328629
     8  H    0.317500
     9  H    0.206521
 Sum of Mulliken charges =   0.00000

 Dipole moment (field-independent basis, Debye):
    X=             -0.7788    Y=            -11.1193    Z=             -0.3191  Tot=             11.1511
 N-N= 1.042706056071D+02 E-N=-1.698876698559D+02  KE=-1.553557687483D+01
 Orbital energies and kinetic energies (alpha):
                                 1                 2
   1         O                -1.919280         -1.378562
   2         O                -1.183418         -1.053662
   3         O                -0.937395         -0.892524
   4         O                -0.825456         -0.577229
   5         O                -0.787975         -0.696664
   6         O                -0.701216         -0.584058
   7         O                -0.684759         -0.543790

 Normal termination of Gaussian 09 at Tue Dec 15 17:09:34 2015.
