 Gaussian 09, Revision D.01,
 Gaussian 09:  ES64L-G09RevD.01 24-Apr-2013

 ------------------------------------------------------------
 #P AM1(Input,print) CIS(Singlets,NStates=15) pop(full) force
 ------------------------------------------------------------

 -----------------
 AM1-Reparam Input
 -----------------
 Symbolic Z-matrix:
 Charge =  0 Multiplicity = 1

                         Standard orientation:
 ---------------------------------------------------------------------
 Center     Atomic      Atomic             Coordinates (Angstroms)
 Number     Number       Type             X           Y           Z
 ---------------------------------------------------------------------
      1          6           0       -1.137190    0.380335    0.010335
      2          6           0       -0.696027   -0.885175   -0.005211
      3          8           0        0.690219   -0.967181    0.003865
      4          6           0        1.061751    0.335255   -0.003555
      5          6           0        0.039693    1.178220   -0.013275
      6          1           0        0.091382    2.257813   -0.001811
      7          1           0        2.232895    0.449551    0.037523
      8          1           0       -1.277352   -1.790679   -0.025039
      9          1           0       -2.178041    0.768954    0.028640
 ---------------------------------------------------------------------

 SCF Done:  E(RAM1) =   2.06664151622     A.U. after   14 cycles

 Excitation energies and oscillator strengths:

 Excited State   1:      Singlet-A      5.3813 eV  230.40 nm  f=0.3445  <S**2>=0.000
      13 -> 14         0.69568
 This state for optimization and/or second-order correction.
 Total Energy, E(CIS) =   2.26440186702
 Copying the excited state density for this state as the 1-particle RhoCI density.

 Excited State   2:      Singlet-A      6.3335 eV  195.76 nm  f=0.0009  <S**2>=0.000
      10 -> 15         0.11356
      13 -> 15         0.66308
      13 -> 17        -0.16840
      13 -> 18        -0.10424

 Excited State   3:      Singlet-A      6.7849 eV  182.73 nm  f=0.0001  <S**2>=0.000
      12 -> 14         0.69702

 Excited State   4:      Singlet-A      6.8547 eV  180.87 nm  f=0.0063  <S**2>=0.000
      13 -> 16         0.64441
      13 -> 18         0.23301

 Excited State   5:      Singlet-A      7.7839 eV  159.28 nm  f=0.0092  <S**2>=0.000
      10 -> 14        -0.12447
      11 -> 14         0.67940
      13 -> 17        -0.10362

 Excited State   6:      Singlet-A      7.9011 eV  156.92 nm  f=0.0022  <S**2>=0.000
      11 -> 14         0.10469
      13 -> 15         0.13702
      13 -> 16        -0.13247
      13 -> 17         0.32714
      13 -> 18         0.41841
      13 -> 19         0.15585
      13 -> 20         0.20330
      13 -> 21        -0.29528

 Excited State   7:      Singlet-A      8.3365 eV  148.72 nm  f=0.0171  <S**2>=0.000
      13 -> 15         0.10602
      13 -> 16         0.11970
      13 -> 17         0.56744
      13 -> 18        -0.18864
      13 -> 19        -0.21597
      13 -> 20        -0.15384
      13 -> 21         0.15684

 Excited State   8:      Singlet-A      8.8085 eV  140.76 nm  f=0.0894  <S**2>=0.000
      10 -> 14         0.66700
      11 -> 14         0.12109
      12 -> 15         0.11304

 Excited State   9:      Singlet-A      8.9561 eV  138.44 nm  f=0.0014  <S**2>=0.000
      10 -> 16        -0.10538
      13 -> 16         0.14562
      13 -> 17         0.10738
      13 -> 18        -0.36178
      13 -> 19         0.53129
      13 -> 20         0.12209
      13 -> 21        -0.13525

 Excited State  10:      Singlet-A      9.3004 eV  133.31 nm  f=0.0969  <S**2>=0.000
       9 -> 15         0.14458
      11 -> 16         0.10210
      11 -> 17        -0.16772
      12 -> 15         0.46209
      12 -> 16        -0.24817
      12 -> 17        -0.11273
      12 -> 18        -0.27317

 Excited State  11:      Singlet-A      9.4570 eV  131.10 nm  f=0.0071  <S**2>=0.000
      13 -> 18         0.27566
      13 -> 19         0.36631
      13 -> 20        -0.26166
      13 -> 21         0.45696

 Excited State  12:      Singlet-A      9.7376 eV  127.32 nm  f=0.0739  <S**2>=0.000
      11 -> 15        -0.27945
      11 -> 17         0.21190
      12 -> 15         0.40634
      12 -> 16         0.22821
      12 -> 18         0.16509
      12 -> 19         0.14447
      13 -> 20        -0.16187

 Excited State  13:      Singlet-A      9.7597 eV  127.04 nm  f=0.0707  <S**2>=0.000
      13 -> 20         0.55353
      13 -> 21         0.36906

 Excited State  14:      Singlet-A      9.9324 eV  124.83 nm  f=0.0046  <S**2>=0.000
       7 -> 15        -0.13542
      10 -> 15         0.61335
      11 -> 15         0.20867
      13 -> 15        -0.14340

 Excited State  15:      Singlet-A     10.2125 eV  121.40 nm  f=0.1485  <S**2>=0.000
      11 -> 15         0.16162
      11 -> 16         0.26361
      11 -> 17        -0.14633
      11 -> 18         0.12154
      12 -> 16         0.50623
      12 -> 19        -0.14997
      12 -> 20        -0.15228

 The electronic state is 1-A.
 Alpha  occ. eigenvalues --   -1.93171  -1.20453  -0.93915  -0.81117  -0.78169
 Alpha  occ. eigenvalues --   -0.67784  -0.64526  -0.53126  -0.52351  -0.43038
 Alpha  occ. eigenvalues --   -0.42591  -0.39665  -0.27922
 Alpha virt. eigenvalues --    0.12636   0.17299   0.21037   0.26900   0.28428
 Alpha virt. eigenvalues --    0.30256   0.31564   0.32183   0.35507   0.45111
 Alpha virt. eigenvalues --    0.48317

 Mulliken charges:
               1
     1  C   -0.191698
     2  C   -2.000392
     3  O    3.167349
     4  C   -1.976173
     5  C   -0.229182
     6  H    0.248790
     7  H    0.364096
     8  H    0.370011
     9  H    0.247201
 Sum of Mulliken charges =   0.00000

 Dipole moment (field-independent basis, Debye):
    X=              6.5535    Y=             -8.7568    Z=              0.1884  Tot=             10.9392
 N-N= 1.042905164730D+02 E-N=-1.698222603631D+02  KE=-1.546892848857D+01
 Orbital energies and kinetic energies (alpha):
                                 1                 2
   1         O                -1.931712         -1.379384
   2         O                -1.204529         -1.084068
   3         O                -0.939151         -0.876922
   4         O                -0.811169         -0.583895
   5         O                -0.781692         -0.666005
   6         O                -0.677836         -0.571157
   7         O                -0.645265         -0.527250

 Normal termination of Gaussian 09 at Tue Dec 15 17:07:24 2015.
