 Gaussian 09, Revision D.01,
 Gaussian 09:  ES64L-G09RevD.01 24-Apr-2013

 ------------------------------------------------------------
 #P AM1(Input,print) CIS(Singlets,NStates=15) pop(full) force
 ------------------------------------------------------------

 -----------------
 AM1-Reparam Input
 -----------------
 Symbolic Z-matrix:
 Charge =  0 Multiplicity = 1

                         Standard orientation:
 ---------------------------------------------------------------------
 Center     Atomic      Atomic             Coordinates (Angstroms)
 Number     Number       Type             X           Y           Z
 ---------------------------------------------------------------------
      1          6           0       -0.758455    0.927988   -0.011958
      2          6           0       -1.090365   -0.318593    0.029877
      3          8           0        0.016607   -1.170386   -0.037171
      4          6           0        1.068205   -0.332823    0.042094
      5          6           0        0.758371    0.984817   -0.009150
      6          1           0        1.365174    1.773344   -0.016099
      7          1           0        2.037449   -0.902824   -0.007160
      8          1           0       -2.057556   -0.851726    0.034843
      9          1           0       -1.344462    1.775963   -0.019400
 ---------------------------------------------------------------------

 SCF Done:  E(RAM1) =   2.66240251502     A.U. after   13 cycles

 Excitation energies and oscillator strengths:

 Excited State   1:      Singlet-A      4.6702 eV  265.48 nm  f=0.3653  <S**2>=0.000
      13 -> 14         0.69923
 This state for optimization and/or second-order correction.
 Total Energy, E(CIS) =   2.83402749343
 Copying the excited state density for this state as the 1-particle RhoCI density.

 Excited State   2:      Singlet-A      5.3794 eV  230.48 nm  f=0.0003  <S**2>=0.000
      13 -> 15         0.66741
      13 -> 17        -0.17161

 Excited State   3:      Singlet-A      6.0376 eV  205.35 nm  f=0.0016  <S**2>=0.000
      12 -> 14         0.19367
      13 -> 16         0.64814
      13 -> 18        -0.11530

 Excited State   4:      Singlet-A      6.1097 eV  202.93 nm  f=0.0005  <S**2>=0.000
      12 -> 14         0.67510
      13 -> 16        -0.19024

 Excited State   5:      Singlet-A      7.2471 eV  171.08 nm  f=0.0001  <S**2>=0.000
      13 -> 15         0.14437
      13 -> 17         0.66386
      13 -> 21         0.10367

 Excited State   6:      Singlet-A      7.6894 eV  161.24 nm  f=0.0056  <S**2>=0.000
      10 -> 14         0.69836

 Excited State   7:      Singlet-A      8.3961 eV  147.67 nm  f=0.1180  <S**2>=0.000
      11 -> 14         0.68632

 Excited State   8:      Singlet-A      8.8008 eV  140.88 nm  f=0.2676  <S**2>=0.000
       9 -> 15         0.10888
      12 -> 15         0.58901
      12 -> 16        -0.17888
      12 -> 17        -0.23096

 Excited State   9:      Singlet-A      8.8094 eV  140.74 nm  f=0.0117  <S**2>=0.000
      11 -> 15        -0.22968
      13 -> 18         0.61236
      13 -> 19         0.21733

 Excited State  10:      Singlet-A      9.0981 eV  136.28 nm  f=0.0023  <S**2>=0.000
      11 -> 16        -0.16479
      13 -> 18        -0.19881
      13 -> 19         0.64105

 Excited State  11:      Singlet-A      9.5793 eV  129.43 nm  f=0.0430  <S**2>=0.000
      10 -> 15        -0.15007
      12 -> 15         0.15720
      12 -> 16         0.62092

 Excited State  12:      Singlet-A      9.6913 eV  127.93 nm  f=0.0031  <S**2>=0.000
       7 -> 15         0.12791
      11 -> 15         0.61336
      11 -> 16         0.11465
      13 -> 15         0.11246
      13 -> 18         0.20888

 Excited State  13:      Singlet-A      9.7817 eV  126.75 nm  f=0.0979  <S**2>=0.000
       8 -> 15         0.11543
      10 -> 15        -0.17438
      10 -> 16        -0.25156
      10 -> 18         0.18724
      12 -> 15         0.21918
      12 -> 17         0.48846
      12 -> 19        -0.13802

 Excited State  14:      Singlet-A     10.1878 eV  121.70 nm  f=0.0021  <S**2>=0.000
       9 -> 14        -0.13513
       9 -> 15         0.13019
      10 -> 15         0.24911
      11 -> 16         0.54238
      13 -> 19         0.11526

 Excited State  15:      Singlet-A     10.2126 eV  121.40 nm  f=0.0142  <S**2>=0.000
       9 -> 15         0.27452
      10 -> 15         0.45992
      10 -> 18        -0.10794
      10 -> 19        -0.14052
      11 -> 16        -0.28726
      12 -> 17         0.15339

 The electronic state is 1-A.
 Alpha  occ. eigenvalues --   -1.84696  -1.11841  -0.87667  -0.80030  -0.74208
 Alpha  occ. eigenvalues --   -0.67355  -0.62666  -0.54660  -0.53829  -0.45701
 Alpha  occ. eigenvalues --   -0.44732  -0.40667  -0.27473
 Alpha virt. eigenvalues --    0.08841   0.15169   0.17394   0.25702   0.29403
 Alpha virt. eigenvalues --    0.30392   0.37793   0.41276   0.47210   0.55383
 Alpha virt. eigenvalues --    0.58425

 Mulliken charges:
               1
     1  C   -0.158824
     2  C   -1.943677
     3  O    3.425145
     4  C   -1.976383
     5  C   -0.228273
     6  H    0.169811
     7  H    0.267885
     8  H    0.267217
     9  H    0.177099
 Sum of Mulliken charges =   0.00000

 Dipole moment (field-independent basis, Debye):
    X=              0.0642    Y=            -12.5577    Z=             -1.1300  Tot=             12.6086
 N-N= 1.039057578311D+02 E-N=-1.694241269652D+02  KE=-1.435210906373D+01
 Orbital energies and kinetic energies (alpha):
                                 1                 2
   1         O                -1.846960         -1.235469
   2         O                -1.118414         -0.971328
   3         O                -0.876667         -0.804496
   4         O                -0.800296         -0.533132
   5         O                -0.742081         -0.603617
   6         O                -0.673551         -0.545713
   7         O                -0.626663         -0.492662

 Normal termination of Gaussian 09 at Tue Dec 15 17:07:31 2015.
