 Gaussian 09, Revision D.01,
 Gaussian 09:  ES64L-G09RevD.01 24-Apr-2013

 ------------------------------------------------------------
 #P AM1(Input,print) CIS(Singlets,NStates=15) pop(full) force
 ------------------------------------------------------------

 -----------------
 AM1-Reparam Input
 -----------------
 Symbolic Z-matrix:
 Charge =  0 Multiplicity = 1

                         Standard orientation:
 ---------------------------------------------------------------------
 Center     Atomic      Atomic             Coordinates (Angstroms)
 Number     Number       Type             X           Y           Z
 ---------------------------------------------------------------------
      1          6           0       -0.585602    1.057473   -0.018000
      2          6           0       -1.120263   -0.201910    0.019622
      3          8           0       -0.163898   -1.148734   -0.002021
      4          6           0        1.014724   -0.518693   -0.021482
      5          6           0        0.875538    0.862879    0.004002
      6          1           0        1.588808    1.641524    0.066881
      7          1           0        1.873576   -1.106909    0.044213
      8          1           0       -2.169753   -0.487836    0.012103
      9          1           0       -1.087835    1.944592   -0.011880
 ---------------------------------------------------------------------

 SCF Done:  E(RAM1) =   1.71911334987     A.U. after   13 cycles

 Excitation energies and oscillator strengths:

 Excited State   1:      Singlet-A      5.3478 eV  231.84 nm  f=0.3830  <S**2>=0.000
      13 -> 14         0.69625
 This state for optimization and/or second-order correction.
 Total Energy, E(CIS) =   1.91564315364
 Copying the excited state density for this state as the 1-particle RhoCI density.

 Excited State   2:      Singlet-A      6.8897 eV  179.95 nm  f=0.0005  <S**2>=0.000
      12 -> 14         0.70174

 Excited State   3:      Singlet-A      7.2283 eV  171.53 nm  f=0.0009  <S**2>=0.000
      13 -> 15         0.61211
      13 -> 16        -0.25134
      13 -> 17        -0.17882

 Excited State   4:      Singlet-A      7.2862 eV  170.16 nm  f=0.0060  <S**2>=0.000
      13 -> 15         0.26759
      13 -> 16         0.61484
      13 -> 18        -0.17655

 Excited State   5:      Singlet-A      8.1095 eV  152.89 nm  f=0.0082  <S**2>=0.000
      10 -> 14        -0.11687
      11 -> 14         0.69176

 Excited State   6:      Singlet-A      8.7510 eV  141.68 nm  f=0.0000  <S**2>=0.000
      13 -> 15         0.11604
      13 -> 16        -0.13522
      13 -> 17         0.43643
      13 -> 18        -0.43380
      13 -> 21        -0.24627

 Excited State   7:      Singlet-A      9.2206 eV  134.46 nm  f=0.1243  <S**2>=0.000
      10 -> 14         0.67894
      11 -> 14         0.11541

 Excited State   8:      Singlet-A      9.4251 eV  131.55 nm  f=0.0144  <S**2>=0.000
      13 -> 15         0.10312
      13 -> 17         0.48486
      13 -> 18         0.46506

 Excited State   9:      Singlet-A      9.8877 eV  125.39 nm  f=0.0004  <S**2>=0.000
      13 -> 19         0.68155

 Excited State  10:      Singlet-A      9.9293 eV  124.87 nm  f=0.0636  <S**2>=0.000
      11 -> 15         0.13665
      11 -> 16         0.11140
      11 -> 17        -0.14902
      11 -> 18        -0.12035
      12 -> 15        -0.31544
      12 -> 16         0.36974
      12 -> 17         0.23578
      12 -> 18        -0.26238

 Excited State  11:      Singlet-A     10.5475 eV  117.55 nm  f=0.0288  <S**2>=0.000
      11 -> 15         0.17052
      12 -> 15         0.53482
      12 -> 16         0.33272
      12 -> 18        -0.11602

 Excited State  12:      Singlet-A     10.5968 eV  117.00 nm  f=0.0408  <S**2>=0.000
      13 -> 17        -0.12910
      13 -> 18         0.16864
      13 -> 20         0.47663
      13 -> 21        -0.43924

 Excited State  13:      Singlet-A     10.7926 eV  114.88 nm  f=0.1867  <S**2>=0.000
      11 -> 15        -0.26116
      11 -> 16        -0.22599
      11 -> 17         0.12323
      11 -> 18         0.14379
      12 -> 15        -0.14746
      12 -> 16         0.39244
      12 -> 17        -0.11240
      12 -> 18         0.10817
      12 -> 19        -0.17039
      13 -> 20        -0.18537
      13 -> 21        -0.16665

 Excited State  14:      Singlet-A     10.8001 eV  114.80 nm  f=0.0686  <S**2>=0.000
       8 -> 14        -0.11042
      11 -> 15        -0.10702
      11 -> 16        -0.11647
      12 -> 16         0.12602
      13 -> 20         0.43698
      13 -> 21         0.44438

 Excited State  15:      Singlet-A     11.0570 eV  112.13 nm  f=0.0008  <S**2>=0.000
       9 -> 14         0.67227

 The electronic state is 1-A.
 Alpha  occ. eigenvalues --   -1.91099  -1.16401  -0.92340  -0.82503  -0.78237
 Alpha  occ. eigenvalues --   -0.70715  -0.67570  -0.56592  -0.55192  -0.47177
 Alpha  occ. eigenvalues --   -0.46428  -0.42415  -0.30593
 Alpha virt. eigenvalues --    0.09612   0.18869   0.19308   0.27811   0.27986
 Alpha virt. eigenvalues --    0.30465   0.32520   0.34640   0.35414   0.43963
 Alpha virt. eigenvalues --    0.47897

 Mulliken charges:
               1
     1  C   -0.153650
     2  C   -2.035257
     3  O    3.293474
     4  C   -2.034244
     5  C   -0.163033
     6  H    0.206106
     7  H    0.336200
     8  H    0.346655
     9  H    0.203749
 Sum of Mulliken charges =   0.00000

 Dipole moment (field-independent basis, Debye):
    X=             -1.6549    Y=            -10.2439    Z=              0.1648  Tot=             10.3781
 N-N= 1.038275526765D+02 E-N=-1.691726431330D+02  KE=-1.549895445572D+01
 Orbital energies and kinetic energies (alpha):
                                 1                 2
   1         O                -1.910990         -1.380647
   2         O                -1.164011         -1.047001
   3         O                -0.923402         -0.885111
   4         O                -0.825034         -0.574117
   5         O                -0.782372         -0.698660
   6         O                -0.707153         -0.592294
   7         O                -0.675704         -0.530562

 Normal termination of Gaussian 09 at Tue Dec 15 17:09:42 2015.
