 Gaussian 09, Revision D.01,
 Gaussian 09:  ES64L-G09RevD.01 24-Apr-2013

 ------------------------------------------------------------
 #P AM1(Input,print) CIS(Singlets,NStates=15) pop(full) force
 ------------------------------------------------------------

 -----------------
 AM1-Reparam Input
 -----------------
 Symbolic Z-matrix:
 Charge =  0 Multiplicity = 1

                         Standard orientation:
 ---------------------------------------------------------------------
 Center     Atomic      Atomic             Coordinates (Angstroms)
 Number     Number       Type             X           Y           Z
 ---------------------------------------------------------------------
      1          6           0       -0.854886    0.855175    0.007371
      2          6           0       -1.039381   -0.523795   -0.018260
      3          8           0        0.161980   -1.110345    0.011342
      4          6           0        1.149741   -0.200510   -0.033841
      5          6           0        0.565601    1.020617    0.019370
      6          1           0        1.073919    1.971679   -0.025861
      7          1           0        2.154652   -0.508292    0.067459
      8          1           0       -1.846721   -1.133546    0.036402
      9          1           0       -1.604135    1.643992   -0.016579
 ---------------------------------------------------------------------

 SCF Done:  E(RAM1) =   2.10044568008     A.U. after   13 cycles

 Excitation energies and oscillator strengths:

 Excited State   1:      Singlet-A      5.5597 eV  223.00 nm  f=0.3606  <S**2>=0.000
      13 -> 14         0.69547
 This state for optimization and/or second-order correction.
 Total Energy, E(CIS) =   2.30476203016
 Copying the excited state density for this state as the 1-particle RhoCI density.

 Excited State   2:      Singlet-A      6.8115 eV  182.02 nm  f=0.0056  <S**2>=0.000
      13 -> 15         0.65091
      13 -> 16         0.15973
      13 -> 17        -0.17191

 Excited State   3:      Singlet-A      7.0414 eV  176.08 nm  f=0.0001  <S**2>=0.000
      11 -> 15        -0.11913
      13 -> 15        -0.16044
      13 -> 16         0.63773
      13 -> 18         0.11914
      13 -> 19         0.16663

 Excited State   4:      Singlet-A      7.1712 eV  172.89 nm  f=0.0002  <S**2>=0.000
      12 -> 14         0.69816

 Excited State   5:      Singlet-A      8.0975 eV  153.11 nm  f=0.0057  <S**2>=0.000
      10 -> 14         0.64727
      11 -> 14         0.23515
      13 -> 17        -0.11015

 Excited State   6:      Singlet-A      8.2179 eV  150.87 nm  f=0.0000  <S**2>=0.000
      13 -> 16        -0.12580
      13 -> 17        -0.14821
      13 -> 18         0.54347
      13 -> 21        -0.36392

 Excited State   7:      Singlet-A      8.7219 eV  142.15 nm  f=0.0048  <S**2>=0.000
      11 -> 16        -0.13044
      13 -> 15         0.13420
      13 -> 17         0.64334
      13 -> 18         0.15649

 Excited State   8:      Singlet-A      8.9743 eV  138.15 nm  f=0.1072  <S**2>=0.000
      10 -> 14        -0.23629
      11 -> 14         0.64274

 Excited State   9:      Singlet-A      9.3639 eV  132.41 nm  f=0.0002  <S**2>=0.000
      11 -> 15         0.11543
      13 -> 18        -0.24463
      13 -> 19         0.58546
      13 -> 20         0.14869
      13 -> 21        -0.19616

 Excited State  10:      Singlet-A      9.6911 eV  127.94 nm  f=0.0045  <S**2>=0.000
      13 -> 18         0.31055
      13 -> 19         0.30417
      13 -> 20        -0.12249
      13 -> 21         0.51566

 Excited State  11:      Singlet-A      9.8801 eV  125.49 nm  f=0.0103  <S**2>=0.000
       8 -> 15         0.11297
       9 -> 16         0.10414
      10 -> 15        -0.22930
      10 -> 17         0.22962
      12 -> 16         0.36106
      12 -> 17        -0.14208
      12 -> 18         0.32465
      12 -> 21        -0.11977
      13 -> 20        -0.17220

 Excited State  12:      Singlet-A     10.0018 eV  123.96 nm  f=0.0970  <S**2>=0.000
      11 -> 16        -0.13632
      12 -> 16         0.11473
      13 -> 20         0.61905
      13 -> 21         0.20992

 Excited State  13:      Singlet-A     10.1413 eV  122.26 nm  f=0.0920  <S**2>=0.000
      10 -> 15        -0.11742
      10 -> 16         0.10885
      12 -> 15         0.59930
      12 -> 16        -0.19424
      12 -> 17        -0.11178
      12 -> 20        -0.10114

 Excited State  14:      Singlet-A     10.3993 eV  119.22 nm  f=0.1048  <S**2>=0.000
      10 -> 16         0.13104
      11 -> 15         0.43866
      11 -> 16         0.18846
      12 -> 15         0.17622
      12 -> 16         0.33957
      12 -> 18        -0.11379
      13 -> 16         0.11275

 Excited State  15:      Singlet-A     10.4969 eV  118.12 nm  f=0.0903  <S**2>=0.000
      10 -> 15        -0.35316
      10 -> 16        -0.15876
      10 -> 17         0.11667
      11 -> 15         0.39019
      12 -> 16        -0.30396
      13 -> 16         0.12256

 The electronic state is 1-A.
 Alpha  occ. eigenvalues --   -1.95322  -1.19013  -0.94693  -0.81749  -0.79385
 Alpha  occ. eigenvalues --   -0.70025  -0.66801  -0.57415  -0.54522  -0.45889
 Alpha  occ. eigenvalues --   -0.45475  -0.42839  -0.30716
 Alpha virt. eigenvalues --    0.10335   0.17996   0.18735   0.25018   0.26338
 Alpha virt. eigenvalues --    0.28837   0.29592   0.30594   0.33137   0.40685
 Alpha virt. eigenvalues --    0.46138

 Mulliken charges:
               1
     1  C   -0.145253
     2  C   -1.910167
     3  O    3.227563
     4  C   -1.904364
     5  C   -0.145109
     6  H    0.165672
     7  H    0.279174
     8  H    0.265707
     9  H    0.166776
 Sum of Mulliken charges =   0.00000

 Dipole moment (field-independent basis, Debye):
    X=              1.5807    Y=             -9.6326    Z=              0.7316  Tot=              9.7888
 N-N= 1.044638851255D+02 E-N=-1.696825941660D+02  KE=-1.536738985436D+01
 Orbital energies and kinetic energies (alpha):
                                 1                 2
   1         O                -1.953224         -1.387247
   2         O                -1.190132         -1.035456
   3         O                -0.946933         -0.874742
   4         O                -0.817487         -0.584285
   5         O                -0.793847         -0.694800
   6         O                -0.700248         -0.589964
   7         O                -0.668006         -0.529985

 Normal termination of Gaussian 09 at Tue Dec 15 17:08:43 2015.
