 Gaussian 09, Revision D.01,
 Gaussian 09:  ES64L-G09RevD.01 24-Apr-2013

 ------------------------------------------------------------
 #P AM1(Input,print) CIS(Singlets,NStates=15) pop(full) force
 ------------------------------------------------------------

 -----------------
 AM1-Reparam Input
 -----------------
 Symbolic Z-matrix:
 Charge =  0 Multiplicity = 1

                         Standard orientation:
 ---------------------------------------------------------------------
 Center     Atomic      Atomic             Coordinates (Angstroms)
 Number     Number       Type             X           Y           Z
 ---------------------------------------------------------------------
      1          6           0        0.406120    1.091959    0.018226
      2          6           0        1.107284   -0.035841   -0.014882
      3          8           0        0.368895   -1.105081    0.022608
      4          6           0       -1.010431   -0.604028   -0.009463
      5          6           0       -0.913724    0.696158   -0.028902
      6          1           0       -1.827221    1.383583    0.078202
      7          1           0       -1.730922   -1.319018   -0.010736
      8          1           0        2.231231   -0.249486   -0.051530
      9          1           0        0.840253    2.136077    0.013329
 ---------------------------------------------------------------------

 SCF Done:  E(RAM1) =   1.85647930010     A.U. after   14 cycles

 Excitation energies and oscillator strengths:

 Excited State   1:      Singlet-A      5.5402 eV  223.79 nm  f=0.3092  <S**2>=0.000
      13 -> 14         0.68605
 This state for optimization and/or second-order correction.
 Total Energy, E(CIS) =   2.06007938246
 Copying the excited state density for this state as the 1-particle RhoCI density.

 Excited State   2:      Singlet-A      5.9923 eV  206.91 nm  f=0.0088  <S**2>=0.000
      10 -> 15         0.10148
      13 -> 15         0.67906
      13 -> 17        -0.12565

 Excited State   3:      Singlet-A      7.2406 eV  171.23 nm  f=0.0049  <S**2>=0.000
      12 -> 14         0.11450
      13 -> 16         0.66770
      13 -> 19         0.10359

 Excited State   4:      Singlet-A      7.4483 eV  166.46 nm  f=0.0015  <S**2>=0.000
      12 -> 14         0.68796
      13 -> 16        -0.11308

 Excited State   5:      Singlet-A      8.1167 eV  152.75 nm  f=0.0047  <S**2>=0.000
      11 -> 14        -0.30566
      13 -> 17         0.42503
      13 -> 18        -0.39109
      13 -> 22         0.19963

 Excited State   6:      Singlet-A      8.2327 eV  150.60 nm  f=0.0025  <S**2>=0.000
      11 -> 14         0.61796
      13 -> 17         0.14957
      13 -> 18        -0.26046

 Excited State   7:      Singlet-A      8.5768 eV  144.56 nm  f=0.0059  <S**2>=0.000
      13 -> 17         0.48181
      13 -> 18         0.46165

 Excited State   8:      Singlet-A      9.1795 eV  135.07 nm  f=0.0581  <S**2>=0.000
      10 -> 14         0.53564
      11 -> 15        -0.12651
      11 -> 16        -0.15926
      12 -> 15        -0.15493
      12 -> 17         0.25795
      12 -> 18        -0.16094

 Excited State   9:      Singlet-A      9.4691 eV  130.94 nm  f=0.0072  <S**2>=0.000
       9 -> 15         0.15031
      10 -> 14         0.22098
      11 -> 15        -0.29749
      11 -> 16         0.12052
      11 -> 18        -0.15312
      12 -> 15         0.48030
      12 -> 17        -0.13430

 Excited State  10:      Singlet-A      9.5273 eV  130.14 nm  f=0.0020  <S**2>=0.000
      10 -> 16         0.11368
      13 -> 17        -0.16760
      13 -> 19         0.64550

 Excited State  11:      Singlet-A      9.7467 eV  127.21 nm  f=0.1893  <S**2>=0.000
       9 -> 15         0.13761
      10 -> 14         0.28541
      11 -> 15         0.54156
      11 -> 16         0.11210
      11 -> 17        -0.15140
      11 -> 18        -0.15476

 Excited State  12:      Singlet-A     10.0188 eV  123.75 nm  f=0.0026  <S**2>=0.000
       7 -> 15        -0.12636
      10 -> 15         0.65440
      12 -> 15         0.11729
      13 -> 15        -0.12226

 Excited State  13:      Singlet-A     10.1782 eV  121.81 nm  f=0.1934  <S**2>=0.000
       9 -> 15        -0.13600
      10 -> 14         0.12934
      11 -> 15        -0.15043
      11 -> 16         0.10068
      11 -> 19         0.11502
      12 -> 15        -0.19094
      12 -> 16         0.50414
      12 -> 17        -0.15147
      12 -> 18         0.17958
      12 -> 19         0.19352

 Excited State  14:      Singlet-A     10.2779 eV  120.63 nm  f=0.0348  <S**2>=0.000
      13 -> 18         0.18811
      13 -> 19        -0.16030
      13 -> 20        -0.42214
      13 -> 22         0.48712

 Excited State  15:      Singlet-A     10.4497 eV  118.65 nm  f=0.0752  <S**2>=0.000
       9 -> 15         0.11038
      10 -> 14        -0.16529
      11 -> 15         0.10200
      12 -> 15         0.22019
      12 -> 16         0.43799
      12 -> 17         0.24952
      12 -> 18        -0.27029
      12 -> 20        -0.15367

 The electronic state is 1-A.
 Alpha  occ. eigenvalues --   -2.00022  -1.29360  -1.00911  -0.88997  -0.85184
 Alpha  occ. eigenvalues --   -0.76195  -0.75412  -0.63482  -0.60838  -0.52090
 Alpha  occ. eigenvalues --   -0.50126  -0.47651  -0.35864
 Alpha virt. eigenvalues --    0.06182   0.08434   0.15087   0.19270   0.20825
 Alpha virt. eigenvalues --    0.23526   0.26865   0.28156   0.28540   0.36455
 Alpha virt. eigenvalues --    0.40912

 Mulliken charges:
               1
     1  C   -0.251904
     2  C   -1.899052
     3  O    3.168219
     4  C   -1.841335
     5  C   -0.053356
     6  H    0.154715
     7  H    0.248140
     8  H    0.305262
     9  H    0.169311
 Sum of Mulliken charges =   0.00000

 Dipole moment (field-independent basis, Debye):
    X=              4.3780    Y=            -10.3582    Z=              0.4257  Tot=             11.2535
 N-N= 1.059590838914D+02 E-N=-1.712075000189D+02  KE=-1.567514462274D+01
 Orbital energies and kinetic energies (alpha):
                                 1                 2
   1         O                -2.000217         -1.375639
   2         O                -1.293595         -1.065187
   3         O                -1.009108         -0.895599
   4         O                -0.889966         -0.569856
   5         O                -0.851837         -0.702942
   6         O                -0.761947         -0.591772
   7         O                -0.754116         -0.555463

 Normal termination of Gaussian 09 at Tue Dec 15 17:09:01 2015.
