 Gaussian 09, Revision D.01,
 Gaussian 09:  ES64L-G09RevD.01 24-Apr-2013

 ------------------------------------------------------------
 #P AM1(Input,print) CIS(Singlets,NStates=15) pop(full) force
 ------------------------------------------------------------

 -----------------
 AM1-Reparam Input
 -----------------
 Symbolic Z-matrix:
 Charge =  0 Multiplicity = 1

                         Standard orientation:
 ---------------------------------------------------------------------
 Center     Atomic      Atomic             Coordinates (Angstroms)
 Number     Number       Type             X           Y           Z
 ---------------------------------------------------------------------
      1          6           0        0.569653    1.043992    0.004934
      2          6           0        1.183941   -0.220889   -0.006324
      3          8           0        0.135734   -1.131821   -0.002770
      4          6           0       -1.038320   -0.454336    0.013365
      5          6           0       -0.867145    0.820923   -0.009065
      6          1           0       -1.586914    1.554453   -0.018553
      7          1           0       -1.864804   -1.070508   -0.002558
      8          1           0        2.119918   -0.536569    0.003201
      9          1           0        1.157157    1.969053    0.022617
 ---------------------------------------------------------------------

 SCF Done:  E(RAM1) =   1.84152114427     A.U. after   14 cycles

 Excitation energies and oscillator strengths:

 Excited State   1:      Singlet-A      5.3112 eV  233.44 nm  f=0.3512  <S**2>=0.000
      13 -> 14         0.69260
 This state for optimization and/or second-order correction.
 Total Energy, E(CIS) =   2.03670585023
 Copying the excited state density for this state as the 1-particle RhoCI density.

 Excited State   2:      Singlet-A      6.5212 eV  190.12 nm  f=0.0052  <S**2>=0.000
      13 -> 15         0.67763
      13 -> 17        -0.12019

 Excited State   3:      Singlet-A      6.9471 eV  178.47 nm  f=0.0046  <S**2>=0.000
      13 -> 16         0.67153
      13 -> 18        -0.11517
      13 -> 19        -0.12486

 Excited State   4:      Singlet-A      7.4446 eV  166.54 nm  f=0.0001  <S**2>=0.000
      12 -> 14         0.69685

 Excited State   5:      Singlet-A      8.0041 eV  154.90 nm  f=0.0013  <S**2>=0.000
      13 -> 16        -0.11233
      13 -> 17         0.57080
      13 -> 18        -0.32242
      13 -> 20         0.10122
      13 -> 21        -0.17556

 Excited State   6:      Singlet-A      8.2208 eV  150.82 nm  f=0.0060  <S**2>=0.000
      11 -> 14         0.69815

 Excited State   7:      Singlet-A      9.1018 eV  136.22 nm  f=0.0589  <S**2>=0.000
      10 -> 14         0.48684
      13 -> 17        -0.22415
      13 -> 18        -0.39783
      13 -> 19         0.11387

 Excited State   8:      Singlet-A      9.1044 eV  136.18 nm  f=0.0563  <S**2>=0.000
      10 -> 14         0.47093
      13 -> 17         0.23291
      13 -> 18         0.40641
      13 -> 19        -0.12623

 Excited State   9:      Singlet-A      9.6734 eV  128.17 nm  f=0.0014  <S**2>=0.000
      10 -> 16        -0.15875
      13 -> 17         0.13393
      13 -> 19         0.63388
      13 -> 20        -0.11447

 Excited State  10:      Singlet-A      9.8170 eV  126.29 nm  f=0.0158  <S**2>=0.000
       9 -> 15         0.11359
      11 -> 15         0.15240
      11 -> 16         0.26479
      11 -> 18        -0.20079
      12 -> 15        -0.32246
      12 -> 16         0.13643
      12 -> 17         0.35377
      12 -> 18        -0.16390

 Excited State  11:      Singlet-A     10.1877 eV  121.70 nm  f=0.1763  <S**2>=0.000
      11 -> 15         0.38994
      12 -> 15         0.51444
      12 -> 18        -0.12086

 Excited State  12:      Singlet-A     10.3674 eV  119.59 nm  f=0.0120  <S**2>=0.000
      10 -> 16        -0.11882
      13 -> 17        -0.13067
      13 -> 18         0.13323
      13 -> 19         0.11741
      13 -> 20         0.49194
      13 -> 21        -0.42912

 Excited State  13:      Singlet-A     10.4391 eV  118.77 nm  f=0.1327  <S**2>=0.000
      11 -> 16        -0.29072
      11 -> 19         0.10825
      12 -> 16         0.59159
      12 -> 19        -0.10695

 Excited State  14:      Singlet-A     10.5921 eV  117.05 nm  f=0.0784  <S**2>=0.000
      10 -> 16        -0.22846
      13 -> 20         0.42111
      13 -> 21         0.48664

 Excited State  15:      Singlet-A     10.7107 eV  115.76 nm  f=0.0081  <S**2>=0.000
       7 -> 15        -0.11246
      10 -> 15         0.59375
      10 -> 16         0.23507
      13 -> 19         0.10542
      13 -> 20         0.10803
      13 -> 21         0.14488

 The electronic state is 1-A.
 Alpha  occ. eigenvalues --   -2.00081  -1.27468  -1.03112  -0.90708  -0.85905
 Alpha  occ. eigenvalues --   -0.77621  -0.75073  -0.65387  -0.62280  -0.53057
 Alpha  occ. eigenvalues --   -0.52749  -0.50274  -0.36828
 Alpha virt. eigenvalues --    0.03457   0.10540   0.13098   0.19707   0.20371
 Alpha virt. eigenvalues --    0.22764   0.25202   0.26640   0.28008   0.35895
 Alpha virt. eigenvalues --    0.41475

 Mulliken charges:
               1
     1  C   -0.146407
     2  C   -1.891841
     3  O    3.181937
     4  C   -1.866380
     5  C   -0.124334
     6  H    0.149566
     7  H    0.275208
     8  H    0.261419
     9  H    0.160831
 Sum of Mulliken charges =   0.00000

 Dipole moment (field-independent basis, Debye):
    X=              0.5150    Y=            -10.4756    Z=             -0.0868  Tot=             10.4886
 N-N= 1.058618900166D+02 E-N=-1.707225629672D+02  KE=-1.570729538619D+01
 Orbital energies and kinetic energies (alpha):
                                 1                 2
   1         O                -2.000815         -1.373893
   2         O                -1.274680         -1.043352
   3         O                -1.031124         -0.895228
   4         O                -0.907081         -0.601578
   5         O                -0.859050         -0.714571
   6         O                -0.776207         -0.601436
   7         O                -0.750732         -0.542064

 Normal termination of Gaussian 09 at Tue Dec 15 17:08:59 2015.
