 Gaussian 09, Revision D.01,
 Gaussian 09:  ES64L-G09RevD.01 24-Apr-2013

 ------------------------------------------------------------
 #P AM1(Input,print) CIS(Singlets,NStates=15) pop(full) force
 ------------------------------------------------------------

 -----------------
 AM1-Reparam Input
 -----------------
 Symbolic Z-matrix:
 Charge =  0 Multiplicity = 1

                         Standard orientation:
 ---------------------------------------------------------------------
 Center     Atomic      Atomic             Coordinates (Angstroms)
 Number     Number       Type             X           Y           Z
 ---------------------------------------------------------------------
      1          6           0       -0.885270    0.787392    0.015701
      2          6           0       -1.065905   -0.472591   -0.015346
      3          8           0        0.213108   -1.146504    0.022311
      4          6           0        1.169657   -0.156108   -0.021829
      5          6           0        0.536669    1.068398   -0.009674
      6          1           0        1.077165    1.969415    0.057703
      7          1           0        2.133243   -0.528447   -0.004625
      8          1           0       -1.874166   -1.175156   -0.029939
      9          1           0       -1.572016    1.543671   -0.014736
 ---------------------------------------------------------------------

 SCF Done:  E(RAM1) =  -5.03885882315     A.U. after   14 cycles

 Excitation energies and oscillator strengths:

 Excited State   1:      Singlet-A      6.7415 eV  183.91 nm  f=0.2624  <S**2>=0.000
      12 -> 14         0.13618
      13 -> 14         0.66899
 This state for optimization and/or second-order correction.
 Total Energy, E(CIS) =  -4.79111497110
 Copying the excited state density for this state as the 1-particle RhoCI density.

 Excited State   2:      Singlet-A      6.8828 eV  180.14 nm  f=0.0107  <S**2>=0.000
      12 -> 14         0.67807
      13 -> 14        -0.12551
      13 -> 16        -0.11485

 Excited State   3:      Singlet-A      7.0915 eV  174.84 nm  f=0.0090  <S**2>=0.000
      13 -> 15         0.40642
      13 -> 16         0.51687
      13 -> 18         0.19265

 Excited State   4:      Singlet-A      7.1724 eV  172.86 nm  f=0.0027  <S**2>=0.000
      13 -> 15         0.54030
      13 -> 16        -0.42245

 Excited State   5:      Singlet-A      8.1415 eV  152.29 nm  f=0.0039  <S**2>=0.000
      11 -> 14         0.69406

 Excited State   6:      Singlet-A      8.2083 eV  151.05 nm  f=0.1289  <S**2>=0.000
      10 -> 14         0.18701
      13 -> 17         0.66799

 Excited State   7:      Singlet-A      8.5432 eV  145.13 nm  f=0.0128  <S**2>=0.000
      13 -> 15        -0.13697
      13 -> 16        -0.13086
      13 -> 18         0.66331

 Excited State   8:      Singlet-A      8.9545 eV  138.46 nm  f=0.1336  <S**2>=0.000
       9 -> 15        -0.15559
      10 -> 14        -0.10152
      12 -> 15         0.57189
      12 -> 16        -0.31023

 Excited State   9:      Singlet-A      9.2709 eV  133.74 nm  f=0.0068  <S**2>=0.000
      11 -> 16        -0.14731
      12 -> 15         0.31581
      12 -> 16         0.52789
      12 -> 18         0.20275
      12 -> 20         0.11387

 Excited State  10:      Singlet-A      9.4972 eV  130.55 nm  f=0.0057  <S**2>=0.000
      13 -> 19         0.58700
      13 -> 20         0.34089
      13 -> 21        -0.11791
      13 -> 22         0.11456

 Excited State  11:      Singlet-A      9.6483 eV  128.50 nm  f=0.0074  <S**2>=0.000
      13 -> 19        -0.31881
      13 -> 20         0.59021
      13 -> 21         0.13596
      13 -> 23         0.11478

 Excited State  12:      Singlet-A      9.9149 eV  125.05 nm  f=0.1234  <S**2>=0.000
       8 -> 15         0.11434
       9 -> 16        -0.20693
      10 -> 14         0.27073
      11 -> 15         0.17762
      11 -> 19         0.10100
      12 -> 16        -0.18657
      12 -> 17        -0.14461
      12 -> 18         0.43667
      12 -> 19         0.14181
      12 -> 20        -0.10718

 Excited State  13:      Singlet-A     10.0501 eV  123.37 nm  f=0.0105  <S**2>=0.000
       9 -> 14        -0.13931
      12 -> 17         0.65549

 Excited State  14:      Singlet-A     10.0753 eV  123.06 nm  f=0.0565  <S**2>=0.000
       8 -> 16        -0.12889
       9 -> 16         0.16113
      11 -> 15         0.27989
      11 -> 16         0.31258
      11 -> 18         0.34133
      12 -> 18        -0.15299
      12 -> 19         0.26725

 Excited State  15:      Singlet-A     10.2975 eV  120.40 nm  f=0.0033  <S**2>=0.000
      10 -> 15        -0.15626
      10 -> 16        -0.10475
      13 -> 19         0.19763
      13 -> 21         0.61477
      13 -> 22        -0.11411

 The electronic state is 1-A.
 Alpha  occ. eigenvalues --   -3.72746  -1.15116  -0.85878  -0.84322  -0.82948
 Alpha  occ. eigenvalues --   -0.75949  -0.64063  -0.46431  -0.44340  -0.41181
 Alpha  occ. eigenvalues --   -0.36269  -0.31920  -0.24841
 Alpha virt. eigenvalues --    0.21400   0.24460   0.24708   0.29823   0.31027
 Alpha virt. eigenvalues --    0.34201   0.34920   0.40574   0.44262   0.45403
 Alpha virt. eigenvalues --    0.48919

 Mulliken charges:
               1
     1  C   -0.138845
     2  C   -1.356459
     3  O    2.611367
     4  C   -1.417496
     5  C   -0.299763
     6  H    0.134601
     7  H    0.185864
     8  H    0.159754
     9  H    0.120978
 Sum of Mulliken charges =   0.00000

 Dipole moment (field-independent basis, Debye):
    X=              1.6598    Y=            -10.7184    Z=              0.5119  Tot=             10.8582
 N-N= 1.014370259988D+02 E-N=-1.679317771597D+02  KE=-2.289991484422D+01
 Orbital energies and kinetic energies (alpha):
                                 1                 2
   1         O                -3.727455         -3.106209
   2         O                -1.151160         -1.212270
   3         O                -0.858775         -0.965901
   4         O                -0.843225         -0.951865
   5         O                -0.829482         -0.880799
   6         O                -0.759494         -0.787382
   7         O                -0.640632         -0.725155

 Normal termination of Gaussian 09 at Fri Dec 11 13:41:18 2015.
