 Gaussian 09, Revision D.01,
 Gaussian 09:  ES64L-G09RevD.01 24-Apr-2013

 ------------------------------------------------------------
 #P AM1(Input,print) CIS(Singlets,NStates=15) pop(full) force
 ------------------------------------------------------------

 -----------------
 AM1-Reparam Input
 -----------------
 Symbolic Z-matrix:
 Charge =  0 Multiplicity = 1

                         Standard orientation:
 ---------------------------------------------------------------------
 Center     Atomic      Atomic             Coordinates (Angstroms)
 Number     Number       Type             X           Y           Z
 ---------------------------------------------------------------------
      1          6           0        0.760338    0.887249   -0.009021
      2          6           0        1.077972   -0.418550    0.017701
      3          8           0       -0.077139   -1.163490   -0.014097
      4          6           0       -1.145988   -0.238772    0.027431
      5          6           0       -0.613710    0.982587   -0.024102
      6          1           0       -1.233499    1.867463    0.041784
      7          1           0       -2.067250   -0.683119   -0.020846
      8          1           0        1.969513   -0.900513   -0.005957
      9          1           0        1.476681    1.749002    0.025739
 ---------------------------------------------------------------------

 SCF Done:  E(RAM1) =   1.12271742337     A.U. after   13 cycles

 Excitation energies and oscillator strengths:

 Excited State   1:      Singlet-A      5.6392 eV  219.86 nm  f=0.1632  <S**2>=0.000
      12 -> 15        -0.16376
      13 -> 14         0.67142
 This state for optimization and/or second-order correction.
 Total Energy, E(CIS) =   1.32995431239
 Copying the excited state density for this state as the 1-particle RhoCI density.

 Excited State   2:      Singlet-A      6.4900 eV  191.04 nm  f=0.0057  <S**2>=0.000
      13 -> 15        -0.20207
      13 -> 16         0.64780
      13 -> 20        -0.11732

 Excited State   3:      Singlet-A      6.7240 eV  184.39 nm  f=0.0316  <S**2>=0.000
      12 -> 14         0.30195
      13 -> 15         0.58761
      13 -> 16         0.20560

 Excited State   4:      Singlet-A      7.1556 eV  173.27 nm  f=0.0001  <S**2>=0.000
      13 -> 17         0.66396
      13 -> 18        -0.11124
      13 -> 21        -0.14185

 Excited State   5:      Singlet-A      7.4942 eV  165.44 nm  f=0.0003  <S**2>=0.000
       9 -> 14         0.15250
      11 -> 14         0.67989

 Excited State   6:      Singlet-A      7.7092 eV  160.83 nm  f=0.0032  <S**2>=0.000
      10 -> 14         0.64878
      11 -> 15        -0.20664

 Excited State   7:      Singlet-A      8.0400 eV  154.21 nm  f=0.2193  <S**2>=0.000
      11 -> 16        -0.11263
      12 -> 14         0.61238
      13 -> 15        -0.27381

 Excited State   8:      Singlet-A      8.2466 eV  150.35 nm  f=0.0165  <S**2>=0.000
       6 -> 15        -0.10343
       9 -> 15        -0.20786
      10 -> 14         0.23908
      11 -> 15         0.60709

 Excited State   9:      Singlet-A      8.2763 eV  149.81 nm  f=0.0029  <S**2>=0.000
      12 -> 16         0.24071
      13 -> 18         0.58671
      13 -> 19         0.18620
      13 -> 24        -0.13832

 Excited State  10:      Singlet-A      8.3092 eV  149.21 nm  f=0.0021  <S**2>=0.000
      13 -> 18        -0.16358
      13 -> 19         0.63355
      13 -> 24         0.10858

 Excited State  11:      Singlet-A      8.5207 eV  145.51 nm  f=0.2342  <S**2>=0.000
      12 -> 15         0.62368
      12 -> 16        -0.14680
      13 -> 14         0.14532
      13 -> 18         0.15678

 Excited State  12:      Singlet-A      8.6619 eV  143.14 nm  f=0.0267  <S**2>=0.000
      12 -> 15         0.19499
      12 -> 16         0.60355
      13 -> 17        -0.10156
      13 -> 18        -0.20378

 Excited State  13:      Singlet-A      9.1353 eV  135.72 nm  f=0.0034  <S**2>=0.000
      11 -> 16         0.11062
      12 -> 17         0.56692
      13 -> 19         0.10653
      13 -> 20         0.35344

 Excited State  14:      Singlet-A      9.3534 eV  132.56 nm  f=0.0760  <S**2>=0.000
       9 -> 17         0.18270
      10 -> 16         0.43286
      10 -> 17         0.14073
      10 -> 18        -0.10965
      10 -> 19        -0.18842
      10 -> 20        -0.14951
      11 -> 16        -0.10794
      11 -> 18        -0.29517
      11 -> 19         0.11072
      13 -> 14         0.10352

 Excited State  15:      Singlet-A      9.4040 eV  131.84 nm  f=0.0716  <S**2>=0.000
       9 -> 16        -0.22095
      10 -> 16         0.17048
      10 -> 17        -0.22340
      10 -> 21         0.10126
      11 -> 16         0.52393
      11 -> 17         0.10906
      11 -> 19         0.10875
      13 -> 15        -0.10309

 The electronic state is 1-A.
 Alpha  occ. eigenvalues --   -1.81115  -1.20827  -0.99957  -0.86866  -0.82409
 Alpha  occ. eigenvalues --   -0.74256  -0.71415  -0.61255  -0.56671  -0.50712
 Alpha  occ. eigenvalues --   -0.49550  -0.47126  -0.38473
 Alpha virt. eigenvalues --    0.04296   0.08185   0.10618   0.12458   0.18104
 Alpha virt. eigenvalues --    0.18828   0.19764   0.22360   0.25892   0.27076
 Alpha virt. eigenvalues --    0.28041

 Mulliken charges:
               1
     1  C   -0.157251
     2  C   -1.230767
     3  O    2.122947
     4  C   -1.215757
     5  C   -0.124628
     6  H    0.117362
     7  H    0.174187
     8  H    0.191121
     9  H    0.122785
 Sum of Mulliken charges =   0.00000

 Dipole moment (field-independent basis, Debye):
    X=             -0.3094    Y=             -7.2121    Z=             -0.3457  Tot=              7.2270
 N-N= 1.045903533032D+02 E-N=-1.715213097787D+02  KE=-1.500130106420D+01
 Orbital energies and kinetic energies (alpha):
                                 1                 2
   1         O                -1.811150         -1.227420
   2         O                -1.208268         -0.978887
   3         O                -0.999571         -0.843668
   4         O                -0.868665         -0.615548
   5         O                -0.824089         -0.685085
   6         O                -0.742557         -0.594344
   7         O                -0.714155         -0.519252

 Normal termination of Gaussian 09 at Tue Dec 15 17:05:36 2015.
