 Gaussian 09, Revision D.01,
 Gaussian 09:  ES64L-G09RevD.01 24-Apr-2013

 ------------------------------------------------------------
 #P AM1(Input,print) CIS(Singlets,NStates=15) pop(full) force
 ------------------------------------------------------------

 -----------------
 AM1-Reparam Input
 -----------------
 Symbolic Z-matrix:
 Charge =  0 Multiplicity = 1

                         Standard orientation:
 ---------------------------------------------------------------------
 Center     Atomic      Atomic             Coordinates (Angstroms)
 Number     Number       Type             X           Y           Z
 ---------------------------------------------------------------------
      1          6           0        0.700864    0.934248    0.006277
      2          6           0        1.108697   -0.337469   -0.004001
      3          8           0       -0.050307   -1.160973    0.005780
      4          6           0       -1.054767   -0.310436   -0.002874
      5          6           0       -0.677206    0.937314   -0.016136
      6          1           0       -1.415149    1.774369    0.062262
      7          1           0       -2.004087   -0.779762   -0.004379
      8          1           0        2.035659   -0.859894    0.004256
      9          1           0        1.320507    1.811136   -0.007975
 ---------------------------------------------------------------------

 SCF Done:  E(RAM1) =   1.10981862385     A.U. after   14 cycles

 Excitation energies and oscillator strengths:

 Excited State   1:      Singlet-A      5.6689 eV  218.71 nm  f=0.1758  <S**2>=0.000
      12 -> 15         0.14828
      13 -> 14         0.67455
 This state for optimization and/or second-order correction.
 Total Energy, E(CIS) =   1.31814503870
 Copying the excited state density for this state as the 1-particle RhoCI density.

 Excited State   2:      Singlet-A      6.3758 eV  194.46 nm  f=0.0025  <S**2>=0.000
      13 -> 16         0.67049
      13 -> 17         0.11127
      13 -> 19         0.13453

 Excited State   3:      Singlet-A      6.8986 eV  179.72 nm  f=0.0286  <S**2>=0.000
      12 -> 14        -0.34278
      13 -> 15         0.60203

 Excited State   4:      Singlet-A      7.1133 eV  174.30 nm  f=0.0010  <S**2>=0.000
      13 -> 16        -0.10313
      13 -> 17         0.66012
      13 -> 21         0.13061

 Excited State   5:      Singlet-A      7.5304 eV  164.65 nm  f=0.0003  <S**2>=0.000
       9 -> 14         0.14995
      10 -> 14        -0.15592
      11 -> 14         0.66731

 Excited State   6:      Singlet-A      7.8323 eV  158.30 nm  f=0.0037  <S**2>=0.000
      10 -> 14         0.65542
      11 -> 14         0.15525
      11 -> 15        -0.13746

 Excited State   7:      Singlet-A      8.1426 eV  152.27 nm  f=0.2259  <S**2>=0.000
      12 -> 14         0.58955
      13 -> 15         0.31553

 Excited State   8:      Singlet-A      8.2581 eV  150.14 nm  f=0.0001  <S**2>=0.000
      12 -> 16        -0.18490
      13 -> 18         0.62886
      13 -> 20         0.11841
      13 -> 24        -0.16493

 Excited State   9:      Singlet-A      8.5066 eV  145.75 nm  f=0.0001  <S**2>=0.000
      12 -> 16        -0.10376
      13 -> 17        -0.11796
      13 -> 18        -0.12026
      13 -> 20         0.64175
      13 -> 23         0.10852

 Excited State  10:      Singlet-A      8.5885 eV  144.36 nm  f=0.0172  <S**2>=0.000
       6 -> 15         0.10202
       9 -> 15        -0.24111
      10 -> 14         0.14747
      11 -> 15         0.61073
      12 -> 16        -0.12303

 Excited State  11:      Singlet-A      8.6136 eV  143.94 nm  f=0.0008  <S**2>=0.000
      11 -> 15         0.12536
      12 -> 16         0.61126
      13 -> 18         0.16978
      13 -> 19        -0.12564
      13 -> 20         0.10745

 Excited State  12:      Singlet-A      8.7800 eV  141.21 nm  f=0.2107  <S**2>=0.000
       9 -> 16         0.17216
      12 -> 15         0.62830
      13 -> 14        -0.14611

 Excited State  13:      Singlet-A      8.9954 eV  137.83 nm  f=0.0034  <S**2>=0.000
      12 -> 17         0.44875
      13 -> 19         0.50713

 Excited State  14:      Singlet-A      9.2129 eV  134.58 nm  f=0.0095  <S**2>=0.000
       9 -> 16        -0.22627
      10 -> 16         0.44265
      10 -> 19         0.16375
      11 -> 16         0.34316
      11 -> 17         0.11904
      11 -> 18        -0.11187
      12 -> 15         0.16665

 Excited State  15:      Singlet-A      9.4087 eV  131.78 nm  f=0.0008  <S**2>=0.000
      12 -> 16        -0.12102
      12 -> 17         0.40098
      13 -> 16         0.10958
      13 -> 19        -0.28138
      13 -> 21         0.42622

 The electronic state is 1-A.
 Alpha  occ. eigenvalues --   -1.83401  -1.22190  -1.00033  -0.87561  -0.81493
 Alpha  occ. eigenvalues --   -0.74187  -0.72773  -0.60122  -0.56046  -0.50657
 Alpha  occ. eigenvalues --   -0.49541  -0.47238  -0.38184
 Alpha virt. eigenvalues --    0.04711   0.09468   0.09516   0.12568   0.18437
 Alpha virt. eigenvalues --    0.18962   0.19972   0.22461   0.26727   0.27736
 Alpha virt. eigenvalues --    0.28607

 Mulliken charges:
               1
     1  C   -0.082979
     2  C   -1.235201
     3  O    2.117008
     4  C   -1.215949
     5  C   -0.200665
     6  H    0.124811
     7  H    0.200360
     8  H    0.183760
     9  H    0.108855
 Sum of Mulliken charges =   0.00000

 Dipole moment (field-independent basis, Debye):
    X=             -0.8795    Y=             -7.3820    Z=              0.1385  Tot=              7.4355
 N-N= 1.050811868834D+02 E-N=-1.724204503745D+02  KE=-1.505377688056D+01
 Orbital energies and kinetic energies (alpha):
                                 1                 2
   1         O                -1.834010         -1.255819
   2         O                -1.221898         -0.990672
   3         O                -1.000332         -0.840354
   4         O                -0.875613         -0.616859
   5         O                -0.814929         -0.674345
   6         O                -0.741866         -0.590404
   7         O                -0.727728         -0.526442

 Normal termination of Gaussian 09 at Tue Dec 15 17:05:45 2015.
