 Gaussian 09, Revision D.01,
 Gaussian 09:  ES64L-G09RevD.01 24-Apr-2013

 ------------------------------------------------------------
 #P AM1(Input,print) CIS(Singlets,NStates=15) pop(full) force
 ------------------------------------------------------------

 -----------------
 AM1-Reparam Input
 -----------------
 Symbolic Z-matrix:
 Charge =  0 Multiplicity = 1

                         Standard orientation:
 ---------------------------------------------------------------------
 Center     Atomic      Atomic             Coordinates (Angstroms)
 Number     Number       Type             X           Y           Z
 ---------------------------------------------------------------------
      1          6           0       -0.641123    1.005779   -0.031384
      2          6           0       -1.129898   -0.283423    0.038843
      3          8           0       -0.049575   -1.188788   -0.025569
      4          6           0        1.067270   -0.347998    0.002481
      5          6           0        0.740796    0.891495    0.010900
      6          1           0        1.483228    1.728144    0.013694
      7          1           0        2.054875   -0.910209    0.044960
      8          1           0       -2.029750   -0.737221    0.024056
      9          1           0       -1.334025    1.834473   -0.003191
 ---------------------------------------------------------------------

 SCF Done:  E(RAM1) =   1.13469952765     A.U. after   14 cycles

 Excitation energies and oscillator strengths:

 Excited State   1:      Singlet-A      5.5991 eV  221.44 nm  f=0.1605  <S**2>=0.000
      12 -> 15         0.16663
      13 -> 14         0.66935
 This state for optimization and/or second-order correction.
 Total Energy, E(CIS) =   1.34046137907
 Copying the excited state density for this state as the 1-particle RhoCI density.

 Excited State   2:      Singlet-A      6.4090 eV  193.45 nm  f=0.0148  <S**2>=0.000
      12 -> 14         0.11639
      13 -> 15        -0.36532
      13 -> 16         0.49874
      13 -> 17         0.25839
      13 -> 19         0.14912

 Excited State   3:      Singlet-A      6.6089 eV  187.60 nm  f=0.0371  <S**2>=0.000
      12 -> 14        -0.26974
      13 -> 15         0.50993
      13 -> 16         0.35246
      13 -> 17         0.12895

 Excited State   4:      Singlet-A      6.8824 eV  180.15 nm  f=0.0003  <S**2>=0.000
      13 -> 16        -0.28048
      13 -> 17         0.61228
      13 -> 21        -0.13246

 Excited State   5:      Singlet-A      7.5420 eV  164.39 nm  f=0.0035  <S**2>=0.000
      11 -> 14         0.67295
      11 -> 15        -0.11942

 Excited State   6:      Singlet-A      7.7937 eV  159.08 nm  f=0.0047  <S**2>=0.000
       9 -> 15        -0.10330
      10 -> 14         0.64433
      11 -> 15         0.16449
      12 -> 14         0.11080

 Excited State   7:      Singlet-A      8.0046 eV  154.89 nm  f=0.2215  <S**2>=0.000
      10 -> 14        -0.10943
      11 -> 14        -0.10557
      12 -> 14         0.60604
      13 -> 15         0.25924

 Excited State   8:      Singlet-A      8.1772 eV  151.62 nm  f=0.0050  <S**2>=0.000
      12 -> 15         0.13645
      12 -> 16        -0.17825
      13 -> 18         0.44690
      13 -> 19         0.33096
      13 -> 20         0.29547
      13 -> 24         0.11730

 Excited State   9:      Singlet-A      8.3221 eV  148.98 nm  f=0.1500  <S**2>=0.000
      11 -> 15         0.11329
      12 -> 15         0.54641
      12 -> 17        -0.13577
      13 -> 14        -0.12783
      13 -> 19        -0.13829
      13 -> 20        -0.27458

 Excited State  10:      Singlet-A      8.3600 eV  148.31 nm  f=0.0199  <S**2>=0.000
       9 -> 15        -0.11637
      10 -> 14        -0.13342
      10 -> 15         0.14936
      11 -> 15         0.30158
      12 -> 15         0.18712
      13 -> 18        -0.33519
      13 -> 20         0.37513
      13 -> 24        -0.11777

 Excited State  11:      Singlet-A      8.3964 eV  147.66 nm  f=0.0516  <S**2>=0.000
       9 -> 15        -0.15838
      10 -> 14        -0.16469
      10 -> 15         0.22398
      11 -> 15         0.44584
      12 -> 15        -0.25582
      13 -> 18         0.21486
      13 -> 20        -0.20212

 Excited State  12:      Singlet-A      8.6608 eV  143.16 nm  f=0.0204  <S**2>=0.000
      12 -> 15         0.10581
      12 -> 16         0.52962
      12 -> 17         0.32731
      12 -> 19         0.10782
      13 -> 18         0.19544
      13 -> 22         0.13355

 Excited State  13:      Singlet-A      8.8500 eV  140.10 nm  f=0.0036  <S**2>=0.000
      12 -> 16        -0.26439
      12 -> 17         0.47200
      13 -> 18        -0.14915
      13 -> 19         0.30450
      13 -> 20        -0.25341

 Excited State  14:      Singlet-A      9.2945 eV  133.39 nm  f=0.0009  <S**2>=0.000
      12 -> 17        -0.21241
      13 -> 18        -0.15667
      13 -> 19         0.20168
      13 -> 21         0.54202
      13 -> 22         0.20618

 Excited State  15:      Singlet-A      9.3672 eV  132.36 nm  f=0.0912  <S**2>=0.000
       9 -> 16         0.16892
       9 -> 17        -0.11987
      10 -> 15        -0.10772
      10 -> 16         0.31062
      10 -> 17         0.21096
      10 -> 19         0.10739
      10 -> 20        -0.21635
      11 -> 16        -0.10053
      11 -> 17        -0.23780
      11 -> 18         0.30825

 The electronic state is 1-A.
 Alpha  occ. eigenvalues --   -1.79565  -1.20840  -0.98295  -0.86602  -0.80958
 Alpha  occ. eigenvalues --   -0.73483  -0.70834  -0.59435  -0.56259  -0.50314
 Alpha  occ. eigenvalues --   -0.49195  -0.46437  -0.37577
 Alpha virt. eigenvalues --    0.04945   0.08142   0.10379   0.12200   0.18796
 Alpha virt. eigenvalues --    0.19251   0.19905   0.22489   0.25426   0.27728
 Alpha virt. eigenvalues --    0.28784

 Mulliken charges:
               1
     1  C   -0.138650
     2  C   -1.202826
     3  O    2.091470
     4  C   -1.208609
     5  C   -0.136982
     6  H    0.118291
     7  H    0.201306
     8  H    0.165254
     9  H    0.110744
 Sum of Mulliken charges =   0.00000

 Dipole moment (field-independent basis, Debye):
    X=              0.2794    Y=             -7.7277    Z=             -0.3402  Tot=              7.7403
 N-N= 1.042564902178D+02 E-N=-1.711043536396D+02  KE=-1.494331812520D+01
 Orbital energies and kinetic energies (alpha):
                                 1                 2
   1         O                -1.795648         -1.214443
   2         O                -1.208404         -0.986251
   3         O                -0.982953         -0.844256
   4         O                -0.866021         -0.610214
   5         O                -0.809581         -0.668320
   6         O                -0.734829         -0.590618
   7         O                -0.708344         -0.518531

 Normal termination of Gaussian 09 at Tue Dec 15 17:05:45 2015.
