 Gaussian 09, Revision D.01,
 Gaussian 09:  ES64L-G09RevD.01 24-Apr-2013

 ------------------------------------------------------------
 #P AM1(Input,print) CIS(Singlets,NStates=15) pop(full) force
 ------------------------------------------------------------

 -----------------
 AM1-Reparam Input
 -----------------
 Symbolic Z-matrix:
 Charge =  0 Multiplicity = 1

                         Standard orientation:
 ---------------------------------------------------------------------
 Center     Atomic      Atomic             Coordinates (Angstroms)
 Number     Number       Type             X           Y           Z
 ---------------------------------------------------------------------
      1          6           0        0.742803    0.936896   -0.010631
      2          6           0        1.121547   -0.390514   -0.001570
      3          8           0       -0.036720   -1.126727   -0.003046
      4          6           0       -1.137069   -0.293390   -0.004775
      5          6           0       -0.695913    0.939560    0.009100
      6          1           0       -1.292563    1.819857   -0.003905
      7          1           0       -2.080019   -0.819037    0.021126
      8          1           0        2.038956   -0.905150    0.038451
      9          1           0        1.439177    1.762834    0.015956
 ---------------------------------------------------------------------

 SCF Done:  E(RAM1) =   2.82962528897     A.U. after   13 cycles

 Excitation energies and oscillator strengths:

 Excited State   1:      Singlet-A      5.1914 eV  238.83 nm  f=0.3442  <S**2>=0.000
      13 -> 14         0.69543
 This state for optimization and/or second-order correction.
 Total Energy, E(CIS) =   3.02040592514
 Copying the excited state density for this state as the 1-particle RhoCI density.

 Excited State   2:      Singlet-A      6.5085 eV  190.50 nm  f=0.0044  <S**2>=0.000
      10 -> 15         0.10365
      13 -> 15         0.62836
      13 -> 16         0.15928
      13 -> 17         0.20657
      13 -> 18         0.11119

 Excited State   3:      Singlet-A      6.5987 eV  187.89 nm  f=0.0027  <S**2>=0.000
      12 -> 14        -0.12768
      13 -> 15        -0.14420
      13 -> 16         0.60021
      13 -> 17         0.15973
      13 -> 18        -0.22622

 Excited State   4:      Singlet-A      6.6838 eV  185.50 nm  f=0.0004  <S**2>=0.000
       9 -> 14        -0.11584
      12 -> 14         0.67891
      13 -> 16         0.10531

 Excited State   5:      Singlet-A      7.6288 eV  162.52 nm  f=0.0000  <S**2>=0.000
      11 -> 14        -0.13429
      13 -> 16         0.15917
      13 -> 18         0.42103
      13 -> 19        -0.34934
      13 -> 20        -0.23616
      13 -> 21         0.27062

 Excited State   6:      Singlet-A      7.6990 eV  161.04 nm  f=0.0092  <S**2>=0.000
      10 -> 14         0.10299
      11 -> 14         0.65164
      13 -> 17         0.15562
      13 -> 18         0.12417

 Excited State   7:      Singlet-A      7.9597 eV  155.76 nm  f=0.0121  <S**2>=0.000
      10 -> 16         0.10662
      11 -> 14        -0.19126
      13 -> 15        -0.15780
      13 -> 16        -0.14161
      13 -> 17         0.61915

 Excited State   8:      Singlet-A      8.5280 eV  145.39 nm  f=0.0001  <S**2>=0.000
      13 -> 16         0.16025
      13 -> 18         0.34375
      13 -> 19         0.56402

 Excited State   9:      Singlet-A      8.6489 eV  143.35 nm  f=0.0887  <S**2>=0.000
      10 -> 14         0.66700
      11 -> 14        -0.10495
      12 -> 15        -0.12797

 Excited State  10:      Singlet-A      9.0653 eV  136.77 nm  f=0.0021  <S**2>=0.000
      13 -> 18         0.32204
      13 -> 19        -0.19389
      13 -> 20         0.46492
      13 -> 21        -0.36487

 Excited State  11:      Singlet-A      9.3568 eV  132.51 nm  f=0.0567  <S**2>=0.000
       9 -> 18        -0.11931
      10 -> 14         0.11630
      11 -> 17        -0.20437
      12 -> 15         0.33229
      12 -> 16        -0.26765
      12 -> 18         0.27489
      12 -> 19        -0.15579
      13 -> 20        -0.18336
      13 -> 21        -0.21042

 Excited State  12:      Singlet-A      9.4008 eV  131.89 nm  f=0.0869  <S**2>=0.000
      12 -> 15         0.17317
      12 -> 16        -0.11609
      12 -> 18         0.11666
      13 -> 20         0.42053
      13 -> 21         0.47078

 Excited State  13:      Singlet-A      9.5956 eV  129.21 nm  f=0.0828  <S**2>=0.000
       9 -> 15         0.13202
      11 -> 15         0.23202
      11 -> 17         0.18087
      12 -> 15         0.51047
      12 -> 16         0.15025
      12 -> 17         0.15765
      12 -> 19         0.16984

 Excited State  14:      Singlet-A      9.8817 eV  125.47 nm  f=0.1266  <S**2>=0.000
       9 -> 14         0.10997
       9 -> 16         0.10220
      11 -> 16        -0.35910
      11 -> 17        -0.16863
      12 -> 16         0.48062
      12 -> 17         0.12378
      12 -> 19        -0.17948

 Excited State  15:      Singlet-A      9.9220 eV  124.96 nm  f=0.0040  <S**2>=0.000
       9 -> 14         0.67462
      12 -> 14         0.11544

 The electronic state is 1-A.
 Alpha  occ. eigenvalues --   -1.71790  -1.11584  -0.93413  -0.79610  -0.75610
 Alpha  occ. eigenvalues --   -0.66411  -0.63695  -0.55531  -0.50387  -0.43799
 Alpha  occ. eigenvalues --   -0.43668  -0.40163  -0.28511
 Alpha virt. eigenvalues --    0.10917   0.18234   0.19457   0.24410   0.27065
 Alpha virt. eigenvalues --    0.27828   0.29386   0.29960   0.36078   0.44589
 Alpha virt. eigenvalues --    0.49527

 Mulliken charges:
               1
     1  C   -0.171250
     2  C   -1.968148
     3  O    3.228842
     4  C   -1.924452
     5  C   -0.136232
     6  H    0.185290
     7  H    0.294710
     8  H    0.303605
     9  H    0.187635
 Sum of Mulliken charges =   0.00000

 Dipole moment (field-independent basis, Debye):
    X=             -0.5739    Y=            -10.2461    Z=              0.1440  Tot=             10.2632
 N-N= 1.039355269879D+02 E-N=-1.689559852403D+02  KE=-1.477241150852D+01
 Orbital energies and kinetic energies (alpha):
                                 1                 2
   1         O                -1.717904         -1.206700
   2         O                -1.115838         -0.973546
   3         O                -0.934128         -0.849508
   4         O                -0.796102         -0.602841
   5         O                -0.756097         -0.682815
   6         O                -0.664107         -0.567979
   7         O                -0.636949         -0.521170

 Normal termination of Gaussian 09 at Tue Dec 15 17:05:57 2015.
