 Gaussian 09, Revision D.01,
 Gaussian 09:  ES64L-G09RevD.01 24-Apr-2013

 ------------------------------------------------------------
 #P AM1(Input,print) CIS(Singlets,NStates=15) pop(full) force
 ------------------------------------------------------------

 -----------------
 AM1-Reparam Input
 -----------------
 Symbolic Z-matrix:
 Charge =  0 Multiplicity = 1

                         Standard orientation:
 ---------------------------------------------------------------------
 Center     Atomic      Atomic             Coordinates (Angstroms)
 Number     Number       Type             X           Y           Z
 ---------------------------------------------------------------------
      1          6           0        0.997475    0.685063   -0.014824
      2          6           0        0.940449   -0.633211   -0.000099
      3          8           0       -0.343307   -1.080257   -0.024714
      4          6           0       -1.184418   -0.037306    0.038479
      5          6           0       -0.389944    1.104132    0.005761
      6          1           0       -0.719698    2.168621   -0.062461
      7          1           0       -2.209550   -0.159561   -0.029901
      8          1           0        1.684739   -1.406406    0.074416
      9          1           0        1.809589    1.327340    0.039754
 ---------------------------------------------------------------------

 SCF Done:  E(RAM1) =   2.11483424984     A.U. after   13 cycles

 Excitation energies and oscillator strengths:

 Excited State   1:      Singlet-A      5.3897 eV  230.04 nm  f=0.3566  <S**2>=0.000
      13 -> 14         0.69561
 This state for optimization and/or second-order correction.
 Total Energy, E(CIS) =   2.31290085322
 Copying the excited state density for this state as the 1-particle RhoCI density.

 Excited State   2:      Singlet-A      6.5119 eV  190.40 nm  f=0.0047  <S**2>=0.000
      11 -> 15         0.10982
      13 -> 15         0.67089
      13 -> 17        -0.13485

 Excited State   3:      Singlet-A      6.8141 eV  181.95 nm  f=0.0035  <S**2>=0.000
      11 -> 16        -0.10008
      13 -> 16         0.66153
      13 -> 18        -0.14971
      13 -> 19        -0.11849

 Excited State   4:      Singlet-A      7.0019 eV  177.07 nm  f=0.0002  <S**2>=0.000
      12 -> 14         0.69915

 Excited State   5:      Singlet-A      7.9377 eV  156.20 nm  f=0.0024  <S**2>=0.000
      13 -> 15        -0.10901
      13 -> 17        -0.41778
      13 -> 18         0.42278
      13 -> 19         0.13379
      13 -> 20        -0.14893
      13 -> 21         0.26958

 Excited State   6:      Singlet-A      8.1753 eV  151.66 nm  f=0.0070  <S**2>=0.000
      10 -> 14         0.66580
      11 -> 14        -0.14147
      13 -> 18         0.12872

 Excited State   7:      Singlet-A      8.5978 eV  144.21 nm  f=0.0039  <S**2>=0.000
      10 -> 14        -0.15491
      11 -> 16        -0.12075
      13 -> 16         0.12099
      13 -> 17         0.52589
      13 -> 18         0.36140
      13 -> 20        -0.10498
      13 -> 21         0.12175

 Excited State   8:      Singlet-A      8.9702 eV  138.22 nm  f=0.0948  <S**2>=0.000
      10 -> 14         0.13460
      11 -> 14         0.65282
      12 -> 15         0.13125
      13 -> 22         0.11911

 Excited State   9:      Singlet-A      9.1763 eV  135.11 nm  f=0.0066  <S**2>=0.000
      13 -> 18        -0.22503
      13 -> 19         0.63960

 Excited State  10:      Singlet-A      9.5445 eV  129.90 nm  f=0.0132  <S**2>=0.000
      13 -> 18         0.28560
      13 -> 19         0.13297
      13 -> 20         0.48289
      13 -> 21        -0.37358

 Excited State  11:      Singlet-A      9.6784 eV  128.10 nm  f=0.0567  <S**2>=0.000
       8 -> 15        -0.12845
      10 -> 16        -0.11613
      10 -> 17         0.13872
      10 -> 18         0.11128
      11 -> 14        -0.10932
      12 -> 15         0.46864
      12 -> 16        -0.24125
      12 -> 17        -0.17860
      12 -> 18         0.23128

 Excited State  12:      Singlet-A      9.9075 eV  125.14 nm  f=0.0873  <S**2>=0.000
      11 -> 16        -0.11834
      13 -> 19        -0.11914
      13 -> 20         0.44683
      13 -> 21         0.49523

 Excited State  13:      Singlet-A     10.1089 eV  122.65 nm  f=0.0510  <S**2>=0.000
      10 -> 15         0.19505
      10 -> 17        -0.13214
      11 -> 14        -0.11359
      12 -> 15         0.38966
      12 -> 16         0.41438
      12 -> 18        -0.24413

 Excited State  14:      Singlet-A     10.2304 eV  121.19 nm  f=0.2069  <S**2>=0.000
       9 -> 16        -0.11771
      10 -> 15        -0.16420
      10 -> 16        -0.24325
      10 -> 17         0.16340
      11 -> 15         0.10105
      12 -> 15        -0.12234
      12 -> 16         0.41413
      12 -> 17        -0.28643
      12 -> 18         0.14828
      12 -> 20        -0.10329

 Excited State  15:      Singlet-A     10.4340 eV  118.83 nm  f=0.0056  <S**2>=0.000
      10 -> 15         0.19445
      11 -> 15         0.51573
      11 -> 16         0.33310
      13 -> 15        -0.10560
      13 -> 16         0.10453

 The electronic state is 1-A.
 Alpha  occ. eigenvalues --   -1.94728  -1.19112  -0.94264  -0.81380  -0.79024
 Alpha  occ. eigenvalues --   -0.69683  -0.66672  -0.56629  -0.54225  -0.45770
 Alpha  occ. eigenvalues --   -0.45303  -0.41859  -0.29535
 Alpha virt. eigenvalues --    0.10721   0.17428   0.19041   0.25537   0.26923
 Alpha virt. eigenvalues --    0.29427   0.29952   0.31575   0.32627   0.40445
 Alpha virt. eigenvalues --    0.45434

 Mulliken charges:
               1
     1  C   -0.114197
     2  C   -1.876539
     3  O    3.221380
     4  C   -1.911044
     5  C   -0.189504
     6  H    0.166229
     7  H    0.277333
     8  H    0.267942
     9  H    0.158401
 Sum of Mulliken charges =   0.00000

 Dipole moment (field-independent basis, Debye):
    X=             -2.6562    Y=             -9.8438    Z=             -0.6043  Tot=             10.2137
 N-N= 1.043505629392D+02 E-N=-1.695546777741D+02  KE=-1.535309263701D+01
 Orbital energies and kinetic energies (alpha):
                                 1                 2
   1         O                -1.947282         -1.377265
   2         O                -1.191116         -1.041917
   3         O                -0.942639         -0.878828
   4         O                -0.813801         -0.577158
   5         O                -0.790244         -0.693107
   6         O                -0.696829         -0.588154
   7         O                -0.666723         -0.528607

 Normal termination of Gaussian 09 at Tue Dec 15 17:08:48 2015.
