 Gaussian 09, Revision D.01,
 Gaussian 09:  ES64L-G09RevD.01 24-Apr-2013

 ------------------------------------------------------------
 #P AM1(Input,print) CIS(Singlets,NStates=15) pop(full) force
 ------------------------------------------------------------

 -----------------
 AM1-Reparam Input
 -----------------
 Symbolic Z-matrix:
 Charge =  0 Multiplicity = 1

                         Standard orientation:
 ---------------------------------------------------------------------
 Center     Atomic      Atomic             Coordinates (Angstroms)
 Number     Number       Type             X           Y           Z
 ---------------------------------------------------------------------
      1          6           0       -0.539353    1.061019   -0.012649
      2          6           0       -1.170045   -0.182549    0.028961
      3          8           0       -0.201308   -1.090727   -0.017120
      4          6           0        1.014732   -0.522020   -0.001889
      5          6           0        0.911592    0.780923   -0.009582
      6          1           0        1.622497    1.557458    0.076031
      7          1           0        1.845513   -1.197540    0.044122
      8          1           0       -2.155868   -0.461706    0.015911
      9          1           0       -1.003236    2.003364   -0.028147
 ---------------------------------------------------------------------

 SCF Done:  E(RAM1) =  -5.24414796620     A.U. after   14 cycles

 Excitation energies and oscillator strengths:

 Excited State   1:      Singlet-A      6.2747 eV  197.60 nm  f=0.0334  <S**2>=0.000
      13 -> 14        -0.26320
      13 -> 15         0.64070
 This state for optimization and/or second-order correction.
 Total Energy, E(CIS) =  -5.01355871232
 Copying the excited state density for this state as the 1-particle RhoCI density.

 Excited State   2:      Singlet-A      6.5986 eV  187.89 nm  f=0.2662  <S**2>=0.000
      13 -> 14         0.62932
      13 -> 15         0.26754

 Excited State   3:      Singlet-A      6.8701 eV  180.47 nm  f=0.0022  <S**2>=0.000
      13 -> 16         0.67172
      13 -> 22        -0.10540

 Excited State   4:      Singlet-A      7.3795 eV  168.01 nm  f=0.0020  <S**2>=0.000
       9 -> 14        -0.10612
      12 -> 14         0.68354

 Excited State   5:      Singlet-A      8.1736 eV  151.69 nm  f=0.0065  <S**2>=0.000
      11 -> 14         0.69860

 Excited State   6:      Singlet-A      8.6700 eV  143.00 nm  f=0.0014  <S**2>=0.000
      10 -> 15         0.10709
      13 -> 16        -0.10741
      13 -> 17         0.47499
      13 -> 18        -0.39596
      13 -> 19         0.12293
      13 -> 21         0.23493

 Excited State   7:      Singlet-A      9.0597 eV  136.85 nm  f=0.0123  <S**2>=0.000
      10 -> 14         0.10728
      11 -> 16         0.19281
      12 -> 15         0.59549
      13 -> 17        -0.10532
      13 -> 19         0.22755

 Excited State   8:      Singlet-A      9.1825 eV  135.02 nm  f=0.0031  <S**2>=0.000
      10 -> 14         0.49459
      10 -> 15        -0.10428
      12 -> 15        -0.21855
      13 -> 19         0.39755

 Excited State   9:      Singlet-A      9.4863 eV  130.70 nm  f=0.0439  <S**2>=0.000
      11 -> 15         0.33654
      12 -> 16         0.55020
      12 -> 22        -0.11770
      13 -> 18        -0.11269

 Excited State  10:      Singlet-A      9.5708 eV  129.54 nm  f=0.0116  <S**2>=0.000
      10 -> 15         0.36062
      10 -> 16         0.28947
      11 -> 15        -0.11669
      13 -> 17        -0.35325
      13 -> 18        -0.29739
      13 -> 20         0.14000

 Excited State  11:      Singlet-A      9.6708 eV  128.20 nm  f=0.0166  <S**2>=0.000
      10 -> 15         0.48137
      10 -> 16        -0.10960
      12 -> 16         0.10522
      13 -> 17         0.11780
      13 -> 18         0.23684
      13 -> 19         0.19803
      13 -> 20        -0.29664

 Excited State  12:      Singlet-A      9.7923 eV  126.61 nm  f=0.0015  <S**2>=0.000
      10 -> 15         0.13960
      13 -> 17         0.16783
      13 -> 18         0.31421
      13 -> 20         0.56621
      13 -> 23         0.12165

 Excited State  13:      Singlet-A      9.8218 eV  126.23 nm  f=0.0140  <S**2>=0.000
       9 -> 14         0.58972
      10 -> 14         0.21372
      10 -> 15         0.11340
      12 -> 14         0.11427
      13 -> 19        -0.22840

 Excited State  14:      Singlet-A      9.9056 eV  125.17 nm  f=0.0029  <S**2>=0.000
       9 -> 14        -0.13841
       9 -> 16         0.10632
      10 -> 15         0.12404
      11 -> 15         0.51852
      12 -> 16        -0.26804
      12 -> 18         0.12954
      12 -> 21        -0.17168

 Excited State  15:      Singlet-A     10.2018 eV  121.53 nm  f=0.0874  <S**2>=0.000
       9 -> 14         0.30025
       9 -> 15         0.21292
      10 -> 14        -0.30038
      11 -> 15         0.13479
      11 -> 16        -0.21271
      12 -> 17        -0.13538
      13 -> 19         0.35887

 The electronic state is 1-A.
 Alpha  occ. eigenvalues --   -3.88844  -1.37035  -1.02694  -1.00745  -0.99162
 Alpha  occ. eigenvalues --   -0.92250  -0.83478  -0.67772  -0.60588  -0.58676
 Alpha  occ. eigenvalues --   -0.57309  -0.54583  -0.45293
 Alpha virt. eigenvalues --   -0.01542   0.01807   0.03577   0.12417   0.12660
 Alpha virt. eigenvalues --    0.12986   0.14588   0.17440   0.18476   0.22780
 Alpha virt. eigenvalues --    0.27314

 Mulliken charges:
               1
     1  C   -0.478914
     2  C   -1.312629
     3  O    2.722421
     4  C   -1.279140
     5  C   -0.433552
     6  H    0.232978
     7  H    0.160851
     8  H    0.156050
     9  H    0.231936
 Sum of Mulliken charges =   0.00000

 Dipole moment (field-independent basis, Debye):
    X=             -1.3203    Y=             -9.3316    Z=             -0.1951  Tot=              9.4266
 N-N= 1.027235887936D+02 E-N=-1.660963770554D+02  KE=-2.287050495191D+01
 Orbital energies and kinetic energies (alpha):
                                 1                 2
   1         O                -3.888438         -3.075957
   2         O                -1.370350         -1.191322
   3         O                -1.026941         -0.903061
   4         O                -1.007450         -0.891486
   5         O                -0.991623         -0.904591
   6         O                -0.922498         -0.830295
   7         O                -0.834779         -0.668667

 Normal termination of Gaussian 09 at Fri Dec 11 13:41:34 2015.
