 Gaussian 09, Revision D.01,
 Gaussian 09:  ES64L-G09RevD.01 24-Apr-2013

 ------------------------------------------------------------
 #P AM1(Input,print) CIS(Singlets,NStates=15) pop(full) force
 ------------------------------------------------------------

 -----------------
 AM1-Reparam Input
 -----------------
 Symbolic Z-matrix:
 Charge =  0 Multiplicity = 1

                         Standard orientation:
 ---------------------------------------------------------------------
 Center     Atomic      Atomic             Coordinates (Angstroms)
 Number     Number       Type             X           Y           Z
 ---------------------------------------------------------------------
      1          6           0       -0.409688    1.107866    0.020502
      2          6           0       -1.136864   -0.016702   -0.004374
      3          8           0       -0.361389   -1.094562    0.000825
      4          6           0        0.901189   -0.638383    0.008814
      5          6           0        1.003535    0.698559   -0.022100
      6          1           0        1.949464    1.271398    0.049859
      7          1           0        1.671334   -1.509186   -0.021189
      8          1           0       -2.193206   -0.109073   -0.007104
      9          1           0       -0.685512    2.195320   -0.045213
 ---------------------------------------------------------------------

 SCF Done:  E(RAM1) =   2.04581735191     A.U. after   13 cycles

 Excitation energies and oscillator strengths:

 Excited State   1:      Singlet-A      5.2230 eV  237.38 nm  f=0.3572  <S**2>=0.000
      13 -> 14         0.69645
 This state for optimization and/or second-order correction.
 Total Energy, E(CIS) =   2.23775903210
 Copying the excited state density for this state as the 1-particle RhoCI density.

 Excited State   2:      Singlet-A      6.3767 eV  194.43 nm  f=0.0018  <S**2>=0.000
      13 -> 15         0.64196
      13 -> 17         0.23381
      13 -> 18        -0.11106

 Excited State   3:      Singlet-A      6.5154 eV  190.29 nm  f=0.0006  <S**2>=0.000
      12 -> 14         0.70048

 Excited State   4:      Singlet-A      6.7328 eV  184.15 nm  f=0.0084  <S**2>=0.000
      13 -> 16         0.64578
      13 -> 18         0.24163

 Excited State   5:      Singlet-A      7.6151 eV  162.81 nm  f=0.0045  <S**2>=0.000
      11 -> 14        -0.12335
      13 -> 15        -0.19770
      13 -> 16         0.12239
      13 -> 17         0.42990
      13 -> 18        -0.29312
      13 -> 19        -0.20928
      13 -> 20        -0.31436

 Excited State   6:      Singlet-A      7.8173 eV  158.60 nm  f=0.0053  <S**2>=0.000
      10 -> 14        -0.22408
      11 -> 14         0.65007

 Excited State   7:      Singlet-A      8.3772 eV  148.00 nm  f=0.0162  <S**2>=0.000
      13 -> 15        -0.12243
      13 -> 16        -0.10434
      13 -> 17         0.48863
      13 -> 18         0.25182
      13 -> 19         0.28168
      13 -> 20         0.26628

 Excited State   8:      Singlet-A      8.7369 eV  141.91 nm  f=0.1104  <S**2>=0.000
      10 -> 14         0.64771
      11 -> 14         0.22218

 Excited State   9:      Singlet-A      8.8403 eV  140.25 nm  f=0.0007  <S**2>=0.000
      13 -> 16         0.17452
      13 -> 18        -0.41711
      13 -> 19         0.51333

 Excited State  10:      Singlet-A      9.2416 eV  134.16 nm  f=0.0076  <S**2>=0.000
      13 -> 18        -0.28799
      13 -> 19        -0.31826
      13 -> 20         0.54169

 Excited State  11:      Singlet-A      9.2764 eV  133.66 nm  f=0.0849  <S**2>=0.000
       8 -> 15        -0.13875
      11 -> 16        -0.11370
      11 -> 17        -0.13412
      12 -> 15         0.43882
      12 -> 16        -0.20298
      12 -> 17         0.23689
      12 -> 18        -0.24068
      12 -> 19        -0.10073
      12 -> 20        -0.12254

 Excited State  12:      Singlet-A      9.5948 eV  129.22 nm  f=0.0766  <S**2>=0.000
      13 -> 21         0.68075

 Excited State  13:      Singlet-A      9.8482 eV  125.90 nm  f=0.0426  <S**2>=0.000
      11 -> 15         0.12079
      12 -> 15         0.31618
      12 -> 16         0.52033
      12 -> 18         0.23377

 Excited State  14:      Singlet-A      9.9623 eV  124.45 nm  f=0.1996  <S**2>=0.000
       8 -> 15        -0.12979
       9 -> 16         0.10495
      11 -> 15         0.20682
      11 -> 16         0.20232
      11 -> 17         0.13698
      11 -> 18         0.10485
      12 -> 15         0.28125
      12 -> 16        -0.27623
      12 -> 17        -0.22833
      12 -> 19         0.28973
      12 -> 20         0.13567

 Excited State  15:      Singlet-A     10.1026 eV  122.73 nm  f=0.0021  <S**2>=0.000
       7 -> 15        -0.12140
      10 -> 15         0.54738
      10 -> 16         0.15493
      11 -> 15         0.30640
      13 -> 15        -0.13217

 The electronic state is 1-A.
 Alpha  occ. eigenvalues --   -1.94944  -1.19117  -0.95449  -0.82267  -0.77415
 Alpha  occ. eigenvalues --   -0.68277  -0.65574  -0.53955  -0.53132  -0.44195
 Alpha  occ. eigenvalues --   -0.44015  -0.40084  -0.28429
 Alpha virt. eigenvalues --    0.10996   0.17376   0.19887   0.25791   0.27370
 Alpha virt. eigenvalues --    0.29114   0.30309   0.30346   0.37538   0.46474
 Alpha virt. eigenvalues --    0.50694

 Mulliken charges:
               1
     1  C   -0.229980
     2  C   -2.007455
     3  O    3.171673
     4  C   -1.992478
     5  C   -0.200378
     6  H    0.253282
     7  H    0.366944
     8  H    0.381997
     9  H    0.256397
 Sum of Mulliken charges =   0.00000

 Dipole moment (field-independent basis, Debye):
    X=             -2.8451    Y=             -9.7337    Z=             -0.0902  Tot=             10.1414
 N-N= 1.044763598478D+02 E-N=-1.700511471542D+02  KE=-1.547285681623D+01
 Orbital energies and kinetic energies (alpha):
                                 1                 2
   1         O                -1.949440         -1.411448
   2         O                -1.191172         -1.060259
   3         O                -0.954494         -0.864775
   4         O                -0.822672         -0.598245
   5         O                -0.774147         -0.673199
   6         O                -0.682770         -0.554136
   7         O                -0.655743         -0.524317

 Normal termination of Gaussian 09 at Tue Dec 15 17:07:26 2015.
