 Gaussian 09, Revision D.01,
 Gaussian 09:  ES64L-G09RevD.01 24-Apr-2013

 ------------------------------------------------------------
 #P AM1(Input,print) CIS(Singlets,NStates=15) pop(full) force
 ------------------------------------------------------------

 -----------------
 AM1-Reparam Input
 -----------------
 Symbolic Z-matrix:
 Charge =  0 Multiplicity = 1

                         Standard orientation:
 ---------------------------------------------------------------------
 Center     Atomic      Atomic             Coordinates (Angstroms)
 Number     Number       Type             X           Y           Z
 ---------------------------------------------------------------------
      1          6           0       -0.975310    0.715668   -0.009273
      2          6           0       -0.928919   -0.602198   -0.018064
      3          8           0        0.318882   -1.148367    0.018147
      4          6           0        1.166129   -0.012823   -0.013168
      5          6           0        0.405930    1.103118    0.015270
      6          1           0        0.802026    2.164230   -0.016746
      7          1           0        2.195371   -0.198491   -0.022500
      8          1           0       -1.727105   -1.367089   -0.003242
      9          1           0       -1.828327    1.365698    0.048715
 ---------------------------------------------------------------------

 SCF Done:  E(RAM1) =  -6.23692850620     A.U. after   14 cycles

 Excitation energies and oscillator strengths:

 Excited State   1:      Singlet-A      6.3307 eV  195.85 nm  f=0.0059  <S**2>=0.000
      13 -> 14         0.10132
      13 -> 15        -0.34739
      13 -> 16         0.52895
      13 -> 17        -0.15424
      13 -> 19        -0.17896
      13 -> 21        -0.12468
 This state for optimization and/or second-order correction.
 Total Energy, E(CIS) =  -6.00427858837
 Copying the excited state density for this state as the 1-particle RhoCI density.

 Excited State   2:      Singlet-A      6.5379 eV  189.64 nm  f=0.3410  <S**2>=0.000
      13 -> 14         0.62086
      13 -> 15        -0.12015
      13 -> 16        -0.23751
      13 -> 17        -0.16653

 Excited State   3:      Singlet-A      6.6713 eV  185.85 nm  f=0.1545  <S**2>=0.000
      13 -> 14         0.29325
      13 -> 15         0.40000
      13 -> 16         0.31874
      13 -> 17         0.37749

 Excited State   4:      Singlet-A      7.2756 eV  170.41 nm  f=0.0000  <S**2>=0.000
      13 -> 15        -0.42497
      13 -> 16        -0.10822
      13 -> 17         0.52922
      13 -> 18         0.10563

 Excited State   5:      Singlet-A      7.9347 eV  156.26 nm  f=0.0008  <S**2>=0.000
      13 -> 15        -0.10955
      13 -> 18        -0.35977
      13 -> 19         0.58079

 Excited State   6:      Singlet-A      8.3589 eV  148.33 nm  f=0.0012  <S**2>=0.000
      12 -> 14         0.67443
      13 -> 18         0.15950

 Excited State   7:      Singlet-A      8.6870 eV  142.72 nm  f=0.0003  <S**2>=0.000
      12 -> 14        -0.15901
      13 -> 16         0.15640
      13 -> 18         0.54057
      13 -> 19         0.34310

 Excited State   8:      Singlet-A      9.4157 eV  131.68 nm  f=0.0068  <S**2>=0.000
      10 -> 14         0.11156
      11 -> 14         0.67128
      13 -> 20         0.13304

 Excited State   9:      Singlet-A      9.5323 eV  130.07 nm  f=0.0883  <S**2>=0.000
      11 -> 15         0.10146
      11 -> 17         0.10915
      12 -> 15        -0.28405
      12 -> 16         0.51813
      12 -> 17        -0.21453
      12 -> 18        -0.15771
      12 -> 19        -0.15580
      12 -> 21        -0.11797

 Excited State  10:      Singlet-A      9.9311 eV  124.84 nm  f=0.0244  <S**2>=0.000
      11 -> 14        -0.12050
      13 -> 20         0.68139

 Excited State  11:      Singlet-A     10.1510 eV  122.14 nm  f=0.0710  <S**2>=0.000
       9 -> 15         0.10752
      11 -> 19         0.10668
      12 -> 15         0.38750
      12 -> 16         0.38899
      12 -> 17         0.37244

 Excited State  12:      Singlet-A     10.5180 eV  117.88 nm  f=0.0012  <S**2>=0.000
      13 -> 21         0.68074

 Excited State  13:      Singlet-A     10.6181 eV  116.77 nm  f=0.1005  <S**2>=0.000
      10 -> 14         0.41542
      11 -> 15         0.28418
      11 -> 16        -0.30657
      11 -> 17         0.18275
      11 -> 18         0.10376
      12 -> 17         0.11238
      13 -> 22        -0.18072

 Excited State  14:      Singlet-A     10.8100 eV  114.69 nm  f=0.0209  <S**2>=0.000
      10 -> 14         0.42194
      11 -> 15        -0.13098
      11 -> 16         0.39235
      11 -> 18        -0.15204
      13 -> 22        -0.20775

 Excited State  15:      Singlet-A     10.8755 eV  114.00 nm  f=0.1905  <S**2>=0.000
       9 -> 16         0.12113
       9 -> 17         0.13457
      10 -> 14        -0.11249
      11 -> 15         0.30059
      11 -> 16         0.32853
      11 -> 17         0.42529
      13 -> 22         0.12739

 The electronic state is 1-A.
 Alpha  occ. eigenvalues --   -4.04026  -1.37672  -1.08982  -1.07510  -0.98614
 Alpha  occ. eigenvalues --   -0.96024  -0.89281  -0.72201  -0.67483  -0.59744
 Alpha  occ. eigenvalues --   -0.58350  -0.55352  -0.40995
 Alpha virt. eigenvalues --    0.02813   0.06213   0.07485   0.09025   0.13388
 Alpha virt. eigenvalues --    0.15409   0.18275   0.22108   0.24952   0.31277
 Alpha virt. eigenvalues --    0.36443

 Mulliken charges:
               1
     1  C   -0.407780
     2  C   -1.992920
     3  O    3.372777
     4  C   -1.988318
     5  C   -0.398810
     6  H    0.349020
     7  H    0.361766
     8  H    0.359518
     9  H    0.344747
 Sum of Mulliken charges =   0.00000

 Dipole moment (field-independent basis, Debye):
    X=              2.8639    Y=            -11.9320    Z=              0.5231  Tot=             12.2820
 N-N= 1.047664096143D+02 E-N=-1.688049343123D+02  KE=-2.527706783423D+01
 Orbital energies and kinetic energies (alpha):
                                 1                 2
   1         O                -4.040261         -2.982759
   2         O                -1.376719         -1.292475
   3         O                -1.089819         -1.033872
   4         O                -1.075103         -1.059208
   5         O                -0.986142         -0.840416
   6         O                -0.960236         -0.976675
   7         O                -0.892812         -0.850824

 Normal termination of Gaussian 09 at Fri Dec 11 13:41:35 2015.
