 Gaussian 09, Revision D.01,
 Gaussian 09:  ES64L-G09RevD.01 24-Apr-2013

 -------------------------------------------------------
 #P B3LYP/3-21G CIS(Singlets,NStates=15) pop(full) force
 -------------------------------------------------------

 --------
 FuranDFT
 --------
 Symbolic Z-matrix:
 Charge =  0 Multiplicity = 1

                         Standard orientation:
 ---------------------------------------------------------------------
 Center     Atomic      Atomic             Coordinates (Angstroms)
 Number     Number       Type             X           Y           Z
 ---------------------------------------------------------------------
      1          6           0       -1.019760    0.708164   -0.025687
      2          6           0       -0.988633   -0.636175    0.046698
      3          8           0        0.370198   -1.136602   -0.036632
      4          6           0        1.185691    0.017817    0.028300
      5          6           0        0.420975    1.089536   -0.014464
      6          1           0        0.751393    2.181483    0.045415
      7          1           0        2.241335   -0.147917    0.023371
      8          1           0       -1.664749   -1.364004    0.025908
      9          1           0       -1.879206    1.347208   -0.010723
 ---------------------------------------------------------------------

 SCF Done:  E(RB3LYP) =  -228.737843666     A.U. after   14 cycles

 Excitation energies and oscillator strengths:

 Excited State   1:      Singlet-A      7.0309 eV  176.34 nm  f=0.0727  <S**2>=0.000
      17 -> 19         0.40967
      18 -> 19         0.46195
      18 -> 20         0.30893
 This state for optimization and/or second-order correction.
 Total Energy, E(CIS) =  -228.479463568
 Copying the excited state density for this state as the 1-particle RhoCI density.

 Excited State   2:      Singlet-A      7.3238 eV  169.29 nm  f=0.1144  <S**2>=0.000
      17 -> 19        -0.37018
      18 -> 19         0.50146
      18 -> 20        -0.28972

 Excited State   3:      Singlet-A      8.3454 eV  148.57 nm  f=0.0024  <S**2>=0.000
      18 -> 21         0.69382

 Excited State   4:      Singlet-A      8.4735 eV  146.32 nm  f=0.0040  <S**2>=0.000
      16 -> 19         0.69402

 Excited State   5:      Singlet-A      9.0128 eV  137.56 nm  f=0.0749  <S**2>=0.000
      17 -> 20         0.61000
      17 -> 21         0.29934

 Excited State   6:      Singlet-A      9.1507 eV  135.49 nm  f=0.0138  <S**2>=0.000
      17 -> 20        -0.19365
      17 -> 21         0.31660
      18 -> 22         0.56280
      18 -> 23        -0.14921

 Excited State   7:      Singlet-A      9.2630 eV  133.85 nm  f=0.0233  <S**2>=0.000
      15 -> 19        -0.24151
      17 -> 20        -0.20578
      17 -> 21         0.52172
      18 -> 22        -0.32247

 Excited State   8:      Singlet-A      9.5108 eV  130.36 nm  f=0.1192  <S**2>=0.000
      15 -> 19         0.50365
      17 -> 19         0.19918
      17 -> 20        -0.10170
      17 -> 21         0.12758
      18 -> 20        -0.28727
      18 -> 22        -0.21385

 Excited State   9:      Singlet-A      9.6361 eV  128.67 nm  f=0.2492  <S**2>=0.000
      14 -> 19        -0.13399
      15 -> 19         0.41236
      16 -> 21         0.12548
      17 -> 19        -0.28828
      18 -> 20         0.38747

 Excited State  10:      Singlet-A      9.9408 eV  124.72 nm  f=0.0128  <S**2>=0.000
      18 -> 22         0.11639
      18 -> 23         0.63667
      18 -> 24        -0.21315

 Excited State  11:      Singlet-A      9.9778 eV  124.26 nm  f=0.0089  <S**2>=0.000
      17 -> 22         0.65155
      17 -> 23        -0.18443

 Excited State  12:      Singlet-A     10.2550 eV  120.90 nm  f=0.0016  <S**2>=0.000
      13 -> 19        -0.25872
      16 -> 20         0.51694
      18 -> 23         0.13043
      18 -> 24         0.36970

 Excited State  13:      Singlet-A     10.3177 eV  120.17 nm  f=0.0039  <S**2>=0.000
      13 -> 19         0.13503
      16 -> 20        -0.36823
      18 -> 23         0.18022
      18 -> 24         0.54287

 Excited State  14:      Singlet-A     10.5695 eV  117.30 nm  f=0.0022  <S**2>=0.000
      17 -> 22         0.18914
      17 -> 23         0.62141
      17 -> 24        -0.11730
      18 -> 25        -0.19498

 Excited State  15:      Singlet-A     10.6790 eV  116.10 nm  f=0.0019  <S**2>=0.000
      13 -> 19         0.56862
      14 -> 19        -0.10676
      15 -> 20         0.19959
      16 -> 20         0.27003
      17 -> 24        -0.12373
      18 -> 25         0.13551

 The electronic state is 1-A.
 Alpha  occ. eigenvalues --  -19.09722 -10.17403 -10.17217 -10.13406 -10.13230
 Alpha  occ. eigenvalues --   -1.07849  -0.79974  -0.74777  -0.59410  -0.57819
 Alpha  occ. eigenvalues --   -0.53263  -0.44536  -0.42869  -0.42297  -0.38928
 Alpha  occ. eigenvalues --   -0.35444  -0.27135  -0.24150
 Alpha virt. eigenvalues --    0.01492   0.07698   0.11553   0.14310   0.17182
 Alpha virt. eigenvalues --    0.17602   0.19826   0.21904   0.36062   0.40297
 Alpha virt. eigenvalues --    0.46003   0.67035   0.68076   0.70018   0.75654

 Mulliken charges:
               1
     1  C   -0.237380
     2  C    0.044089
     3  O   -0.459751
     4  C    0.083651
     5  C   -0.248638
     6  H    0.180209
     7  H    0.221972
     8  H    0.220097
     9  H    0.195751
 Sum of Mulliken charges =   0.00000

 Dipole moment (field-independent basis, Debye):
    X=             -0.3373    Y=              0.9151    Z=              0.1156  Tot=              0.9821
 Quadrupole moment (field-independent basis, Debye-Ang):
   XX=            -23.3790   YY=            -27.9535   ZZ=            -31.8391
   XY=              1.1044   XZ=              0.0686   YZ=              0.0424

 Normal termination of Gaussian 09 at Tue Dec 15 16:23:07 2015.
