 Gaussian 09, Revision D.01,
 Gaussian 09:  ES64L-G09RevD.01 24-Apr-2013

 ------------------------------------------------------------
 #P AM1(Input,print) CIS(Singlets,NStates=15) pop(full) force
 ------------------------------------------------------------

 -----------------
 AM1-Reparam Input
 -----------------
 Symbolic Z-matrix:
 Charge =  0 Multiplicity = 1

                         Standard orientation:
 ---------------------------------------------------------------------
 Center     Atomic      Atomic             Coordinates (Angstroms)
 Number     Number       Type             X           Y           Z
 ---------------------------------------------------------------------
      1          6           0       -0.589631    1.054575   -0.016792
      2          6           0       -1.111765   -0.243624    0.022295
      3          8           0       -0.166484   -1.104616   -0.019738
      4          6           0        1.022811   -0.500155    0.018573
      5          6           0        0.862725    0.830863    0.001271
      6          1           0        1.536019    1.614345    0.031805
      7          1           0        1.917824   -1.073725   -0.032990
      8          1           0       -2.131600   -0.546810    0.034210
      9          1           0       -1.095214    1.993169   -0.027213
 ---------------------------------------------------------------------

 SCF Done:  E(RAM1) =  0.350353896369E-01 A.U. after   13 cycles

 Excitation energies and oscillator strengths:

 Excited State   1:      Singlet-A      4.5501 eV  272.48 nm  f=0.0682  <S**2>=0.000
      12 -> 15         0.25156
      13 -> 14         0.65009
 This state for optimization and/or second-order correction.
 Total Energy, E(CIS) =  0.202250172082
 Copying the excited state density for this state as the 1-particle RhoCI density.

 Excited State   2:      Singlet-A      4.7618 eV  260.37 nm  f=0.0012  <S**2>=0.000
      13 -> 16         0.68437
      13 -> 22        -0.10974

 Excited State   3:      Singlet-A      4.9817 eV  248.88 nm  f=0.0164  <S**2>=0.000
      12 -> 14        -0.37950
      13 -> 15         0.59116

 Excited State   4:      Singlet-A      5.7433 eV  215.87 nm  f=0.0002  <S**2>=0.000
      12 -> 18         0.18363
      13 -> 18         0.53373
      13 -> 19         0.16119
      13 -> 20        -0.16338
      13 -> 21        -0.16167
      13 -> 22         0.15347
      13 -> 23        -0.18284

 Excited State   5:      Singlet-A      5.8716 eV  211.16 nm  f=0.0045  <S**2>=0.000
       7 -> 16        -0.14146
      12 -> 16         0.65367
      12 -> 22        -0.13797

 Excited State   6:      Singlet-A      6.1456 eV  201.74 nm  f=0.2260  <S**2>=0.000
      12 -> 14         0.43070
      12 -> 15         0.42673
      13 -> 14        -0.15451
      13 -> 15         0.25109

 Excited State   7:      Singlet-A      6.2446 eV  198.55 nm  f=0.1544  <S**2>=0.000
      12 -> 14        -0.26535
      12 -> 15         0.32963
      12 -> 18         0.15490
      12 -> 19        -0.18462
      12 -> 20         0.11267
      12 -> 23        -0.12782
      13 -> 14        -0.12248
      13 -> 15        -0.18567
      13 -> 18        -0.12155
      13 -> 19         0.28131
      13 -> 20        -0.13114
      13 -> 21        -0.11796
      13 -> 23         0.12109

 Excited State   8:      Singlet-A      6.2579 eV  198.13 nm  f=0.1473  <S**2>=0.000
      12 -> 14        -0.23616
      12 -> 15         0.35001
      12 -> 18        -0.15177
      12 -> 19         0.18141
      12 -> 20        -0.11805
      12 -> 23         0.11329
      13 -> 14        -0.12893
      13 -> 15        -0.17145
      13 -> 17         0.10177
      13 -> 18         0.13676
      13 -> 19        -0.25634
      13 -> 20         0.10753
      13 -> 21         0.12736
      13 -> 23        -0.14755

 Excited State   9:      Singlet-A      6.4450 eV  192.37 nm  f=0.0067  <S**2>=0.000
      12 -> 17         0.13100
      12 -> 21         0.13901
      13 -> 17         0.58882
      13 -> 18        -0.15593
      13 -> 19         0.15144
      13 -> 20        -0.10483
      13 -> 21         0.12622
      13 -> 23        -0.11023

 Excited State  10:      Singlet-A      6.8820 eV  180.16 nm  f=0.0005  <S**2>=0.000
       9 -> 15        -0.11456
      10 -> 14         0.19977
      11 -> 14         0.36866
      11 -> 15         0.16772
      12 -> 17         0.39603
      12 -> 18        -0.14426
      12 -> 20        -0.18333
      12 -> 21         0.11070
      12 -> 23        -0.10456
      13 -> 17        -0.10691

 Excited State  11:      Singlet-A      6.9582 eV  178.18 nm  f=0.0071  <S**2>=0.000
      10 -> 14        -0.27883
      11 -> 14        -0.34125
      11 -> 15        -0.20025
      12 -> 17         0.34695
      12 -> 18        -0.15387
      12 -> 20        -0.11223
      12 -> 21         0.10020
      13 -> 17        -0.19497

 Excited State  12:      Singlet-A      7.2651 eV  170.66 nm  f=0.0037  <S**2>=0.000
       9 -> 14        -0.18769
      10 -> 15        -0.21214
      11 -> 14        -0.14464
      11 -> 15         0.43120
      12 -> 18         0.16162
      12 -> 19        -0.18116
      12 -> 21         0.10964
      13 -> 19        -0.26892
      13 -> 20        -0.17696

 Excited State  13:      Singlet-A      7.4023 eV  167.49 nm  f=0.0019  <S**2>=0.000
       9 -> 14        -0.21847
      11 -> 14        -0.12266
      11 -> 15         0.32941
      12 -> 18        -0.13379
      12 -> 19         0.18998
      13 -> 19         0.37940
      13 -> 20         0.26607

 Excited State  14:      Singlet-A      7.5216 eV  164.84 nm  f=0.0050  <S**2>=0.000
      12 -> 18        -0.15498
      12 -> 19         0.17793
      12 -> 22         0.15621
      13 -> 17        -0.14956
      13 -> 18        -0.24151
      13 -> 20        -0.17514
      13 -> 22         0.47384
      13 -> 23        -0.20282

 Excited State  15:      Singlet-A      7.7453 eV  160.08 nm  f=0.0039  <S**2>=0.000
      10 -> 14         0.27953
      11 -> 14        -0.15586
      12 -> 18        -0.10973
      12 -> 19        -0.20257
      12 -> 20         0.24114
      12 -> 21        -0.13628
      13 -> 19         0.10877
      13 -> 20        -0.19324
      13 -> 21         0.33407
      13 -> 22        -0.10463
      13 -> 23        -0.20096
      13 -> 24         0.11357

 The electronic state is 1-A.
 Alpha  occ. eigenvalues --   -1.61426  -1.23596  -1.11365  -0.84250  -0.81174
 Alpha  occ. eigenvalues --   -0.69888  -0.62964  -0.58313  -0.51486  -0.50250
 Alpha  occ. eigenvalues --   -0.48273  -0.38738  -0.34549
 Alpha virt. eigenvalues --    0.03813   0.05937   0.09066   0.14287   0.15035
 Alpha virt. eigenvalues --    0.16301   0.18076   0.18594   0.19443   0.20809
 Alpha virt. eigenvalues --    0.23503

 Mulliken charges:
               1
     1  C   -0.250012
     2  C   -0.097825
     3  O   -0.033206
     4  C   -0.116805
     5  C   -0.200617
     6  H    0.156289
     7  H    0.189480
     8  H    0.190501
     9  H    0.162195
 Sum of Mulliken charges =   0.00000

 Dipole moment (field-independent basis, Debye):
    X=             -0.0459    Y=              0.0941    Z=             -0.0110  Tot=              0.1053
 N-N= 1.041810427200D+02 E-N=-1.720990482465D+02  KE=-1.666749101418D+01
 Orbital energies and kinetic energies (alpha):
                                 1                 2
   1         O                -1.614265         -1.337263
   2         O                -1.235958         -1.057980
   3         O                -1.113651         -0.965726
   4         O                -0.842504         -0.711856
   5         O                -0.811740         -0.726765
   6         O                -0.698878         -0.608106
   7         O                -0.629638         -0.502014

 Normal termination of Gaussian 09 at Tue Dec 15 16:25:42 2015.
