 Gaussian 09, Revision D.01,
 Gaussian 09:  ES64L-G09RevD.01 24-Apr-2013

 ------------------------------------------------------------
 #P AM1(Input,print) CIS(Singlets,NStates=15) pop(full) force
 ------------------------------------------------------------

 -----------------
 AM1-Reparam Input
 -----------------
 Symbolic Z-matrix:
 Charge =  0 Multiplicity = 1

                         Standard orientation:
 ---------------------------------------------------------------------
 Center     Atomic      Atomic             Coordinates (Angstroms)
 Number     Number       Type             X           Y           Z
 ---------------------------------------------------------------------
      1          6           0       -0.942754    0.721818   -0.008713
      2          6           0       -1.013396   -0.617276   -0.014587
      3          8           0        0.338747   -1.090956    0.005008
      4          6           0        1.173161   -0.066625    0.004058
      5          6           0        0.431732    1.096270   -0.017886
      6          1           0        0.818183    2.137040    0.053337
      7          1           0        2.240727   -0.294566    0.014654
      8          1           0       -1.820827   -1.306558    0.045322
      9          1           0       -1.840517    1.386614    0.069402
 ---------------------------------------------------------------------

 SCF Done:  E(RAM1) =   1.10692289852     A.U. after   13 cycles

 Excitation energies and oscillator strengths:

 Excited State   1:      Singlet-A      5.4674 eV  226.77 nm  f=0.1970  <S**2>=0.000
      12 -> 15        -0.12537
      13 -> 14         0.67959
 This state for optimization and/or second-order correction.
 Total Energy, E(CIS) =   1.30784543530
 Copying the excited state density for this state as the 1-particle RhoCI density.

 Excited State   2:      Singlet-A      6.2312 eV  198.97 nm  f=0.0031  <S**2>=0.000
      13 -> 15        -0.37304
      13 -> 16         0.55528
      13 -> 17         0.12820
      13 -> 20         0.14915

 Excited State   3:      Singlet-A      6.7859 eV  182.71 nm  f=0.0204  <S**2>=0.000
      12 -> 14         0.32536
      13 -> 15         0.50123
      13 -> 16         0.34664

 Excited State   4:      Singlet-A      7.0588 eV  175.64 nm  f=0.0006  <S**2>=0.000
      13 -> 17         0.64583
      13 -> 18         0.16102
      13 -> 21         0.15574

 Excited State   5:      Singlet-A      7.2912 eV  170.05 nm  f=0.0018  <S**2>=0.000
       9 -> 14        -0.17398
      11 -> 14         0.67171
      12 -> 14        -0.10224

 Excited State   6:      Singlet-A      7.6708 eV  161.63 nm  f=0.0193  <S**2>=0.000
      10 -> 14         0.60999
      11 -> 15         0.19218
      12 -> 14        -0.23107

 Excited State   7:      Singlet-A      8.0196 eV  154.60 nm  f=0.1920  <S**2>=0.000
      10 -> 14         0.24795
      11 -> 14         0.10313
      11 -> 16         0.12360
      12 -> 14         0.54665
      13 -> 15        -0.22760
      13 -> 16        -0.14674

 Excited State   8:      Singlet-A      8.0881 eV  153.29 nm  f=0.0004  <S**2>=0.000
      12 -> 15         0.10726
      12 -> 16        -0.15703
      13 -> 17        -0.10184
      13 -> 18         0.55695
      13 -> 19        -0.28496
      13 -> 22        -0.12095
      13 -> 23         0.10274

 Excited State   9:      Singlet-A      8.2400 eV  150.47 nm  f=0.0210  <S**2>=0.000
       9 -> 15         0.17747
       9 -> 16         0.10483
      10 -> 14        -0.22276
      11 -> 15         0.52449
      11 -> 16         0.31790

 Excited State  10:      Singlet-A      8.3104 eV  149.19 nm  f=0.0006  <S**2>=0.000
      13 -> 18         0.18985
      13 -> 19         0.55782
      13 -> 20         0.29015
      13 -> 21         0.10608
      13 -> 23         0.13508

 Excited State  11:      Singlet-A      8.5213 eV  145.50 nm  f=0.0052  <S**2>=0.000
      12 -> 15        -0.34928
      12 -> 16         0.51909
      12 -> 20         0.10341
      13 -> 17        -0.10822
      13 -> 18         0.15992
      13 -> 20         0.11282

 Excited State  12:      Singlet-A      8.8475 eV  140.13 nm  f=0.2209  <S**2>=0.000
       9 -> 15         0.10032
       9 -> 16        -0.14327
      11 -> 15         0.16454
      12 -> 15         0.49107
      12 -> 16         0.34822
      13 -> 14         0.12263

 Excited State  13:      Singlet-A      8.9469 eV  138.58 nm  f=0.0871  <S**2>=0.000
       9 -> 16         0.15436
      10 -> 16        -0.13327
      10 -> 17         0.10088
      11 -> 15        -0.24875
      11 -> 16         0.46445
      11 -> 20         0.13688
      12 -> 15         0.18898
      12 -> 17        -0.10495

 Excited State  14:      Singlet-A      9.0920 eV  136.37 nm  f=0.0052  <S**2>=0.000
      12 -> 17        -0.41065
      13 -> 18        -0.19507
      13 -> 19        -0.20485
      13 -> 20         0.44290

 Excited State  15:      Singlet-A      9.3866 eV  132.09 nm  f=0.0009  <S**2>=0.000
       9 -> 14         0.60859
      11 -> 14         0.14920
      12 -> 17        -0.15080
      13 -> 21         0.20357

 The electronic state is 1-A.
 Alpha  occ. eigenvalues --   -1.82022  -1.18275  -0.98624  -0.86779  -0.80587
 Alpha  occ. eigenvalues --   -0.73331  -0.71048  -0.61824  -0.55986  -0.51330
 Alpha  occ. eigenvalues --   -0.49227  -0.47587  -0.38153
 Alpha virt. eigenvalues --    0.03426   0.09069   0.09188   0.12324   0.17707
 Alpha virt. eigenvalues --    0.18523   0.18984   0.21904   0.26372   0.26912
 Alpha virt. eigenvalues --    0.27229

 Mulliken charges:
               1
     1  C   -0.076136
     2  C   -1.262984
     3  O    2.149266
     4  C   -1.244166
     5  C   -0.212993
     6  H    0.124480
     7  H    0.210760
     8  H    0.195407
     9  H    0.116365
 Sum of Mulliken charges =   0.00000

 Dipole moment (field-independent basis, Debye):
    X=              2.2470    Y=             -6.5968    Z=              0.2800  Tot=              6.9746
 N-N= 1.039651806271D+02 E-N=-1.705021686706D+02  KE=-1.491890341004D+01
 Orbital energies and kinetic energies (alpha):
                                 1                 2
   1         O                -1.820217         -1.231086
   2         O                -1.182747         -0.956658
   3         O                -0.986242         -0.809786
   4         O                -0.867793         -0.623570
   5         O                -0.805866         -0.675639
   6         O                -0.733307         -0.585364
   7         O                -0.710476         -0.510025

 Normal termination of Gaussian 09 at Tue Dec 15 17:05:35 2015.
