 Gaussian 09, Revision D.01,
 Gaussian 09:  ES64L-G09RevD.01 24-Apr-2013

 ------------------------------------------------------------
 #P AM1(Input,print) CIS(Singlets,NStates=15) pop(full) force
 ------------------------------------------------------------

 -----------------
 AM1-Reparam Input
 -----------------
 Symbolic Z-matrix:
 Charge =  0 Multiplicity = 1

                         Standard orientation:
 ---------------------------------------------------------------------
 Center     Atomic      Atomic             Coordinates (Angstroms)
 Number     Number       Type             X           Y           Z
 ---------------------------------------------------------------------
      1          6           0       -0.539353    1.061019   -0.012649
      2          6           0       -1.170045   -0.182549    0.028961
      3          8           0       -0.201308   -1.090727   -0.017120
      4          6           0        1.014732   -0.522020   -0.001889
      5          6           0        0.911592    0.780923   -0.009582
      6          1           0        1.622497    1.557458    0.076031
      7          1           0        1.845513   -1.197540    0.044122
      8          1           0       -2.155868   -0.461706    0.015911
      9          1           0       -1.003236    2.003364   -0.028147
 ---------------------------------------------------------------------

 SCF Done:  E(RAM1) =  -9.23356904660     A.U. after   14 cycles

 Excitation energies and oscillator strengths:

 Excited State   1:      Singlet-A      5.6599 eV  219.06 nm  f=0.0050  <S**2>=0.000
      10 -> 14         0.26431
      12 -> 14         0.63228
      13 -> 14        -0.16972
 This state for optimization and/or second-order correction.
 Total Energy, E(CIS) =  -9.02557001748
 Copying the excited state density for this state as the 1-particle RhoCI density.

 Excited State   2:      Singlet-A      6.3875 eV  194.10 nm  f=0.1756  <S**2>=0.000
      11 -> 14         0.46021
      12 -> 14         0.12560
      13 -> 14         0.50909

 Excited State   3:      Singlet-A      6.6918 eV  185.28 nm  f=0.1842  <S**2>=0.000
      11 -> 14         0.53257
      12 -> 14        -0.10701
      13 -> 14        -0.43849

 Excited State   4:      Singlet-A      7.7718 eV  159.53 nm  f=0.0004  <S**2>=0.000
      10 -> 14         0.64943
      12 -> 14        -0.26740

 Excited State   5:      Singlet-A     10.3214 eV  120.12 nm  f=0.0023  <S**2>=0.000
       8 -> 14        -0.12887
       9 -> 14         0.66602
      13 -> 15         0.12160
      13 -> 16        -0.12184

 Excited State   6:      Singlet-A     10.5238 eV  117.81 nm  f=0.0060  <S**2>=0.000
       9 -> 14         0.11171
      13 -> 16         0.58679
      13 -> 17        -0.33181
      13 -> 19        -0.11994

 Excited State   7:      Singlet-A     10.8229 eV  114.56 nm  f=0.0145  <S**2>=0.000
       8 -> 14         0.35348
      13 -> 15         0.58318
      13 -> 17        -0.11061

 Excited State   8:      Singlet-A     10.8904 eV  113.85 nm  f=0.0089  <S**2>=0.000
       8 -> 14         0.17916
      13 -> 16         0.32707
      13 -> 17         0.56807
      13 -> 18        -0.11627

 Excited State   9:      Singlet-A     11.2774 eV  109.94 nm  f=0.0014  <S**2>=0.000
       8 -> 14        -0.19160
      10 -> 17        -0.17282
      12 -> 16         0.43453
      12 -> 17        -0.31138
      12 -> 18         0.13733
      12 -> 19        -0.15359
      12 -> 20        -0.12254
      13 -> 15         0.18000

 Excited State  10:      Singlet-A     11.4895 eV  107.91 nm  f=0.0309  <S**2>=0.000
       8 -> 14         0.41794
       9 -> 14         0.10960
      10 -> 16         0.11017
      12 -> 15         0.12435
      12 -> 17        -0.36094
      12 -> 19        -0.11610
      13 -> 15        -0.27871

 Excited State  11:      Singlet-A     11.9357 eV  103.88 nm  f=0.1547  <S**2>=0.000
       8 -> 14         0.24013
      10 -> 17         0.10653
      11 -> 16         0.34840
      11 -> 17        -0.20508
      12 -> 15        -0.21881
      12 -> 16         0.34882
      12 -> 17         0.16468
      13 -> 15        -0.13807

 Excited State  12:      Singlet-A     11.9978 eV  103.34 nm  f=0.0060  <S**2>=0.000
      11 -> 16         0.10281
      12 -> 15         0.63859
      12 -> 16         0.20371
      12 -> 17         0.11109

 Excited State  13:      Singlet-A     12.2995 eV  100.80 nm  f=0.0542  <S**2>=0.000
      10 -> 16         0.17166
      10 -> 17        -0.16080
      11 -> 15         0.11570
      11 -> 16        -0.30520
      11 -> 17        -0.29818
      11 -> 21         0.15362
      12 -> 17         0.35517
      12 -> 20        -0.21076

 Excited State  14:      Singlet-A     12.8776 eV   96.28 nm  f=0.1096  <S**2>=0.000
      10 -> 15        -0.15555
      10 -> 16         0.26541
      10 -> 17         0.23384
      11 -> 16        -0.22284
      11 -> 17         0.34105
      11 -> 20        -0.13722
      12 -> 16         0.25088
      12 -> 17         0.10612
      12 -> 18        -0.15011

 Excited State  15:      Singlet-A     13.0542 eV   94.98 nm  f=0.0417  <S**2>=0.000
      13 -> 17         0.15611
      13 -> 18         0.64135
      13 -> 19        -0.11752

 The electronic state is 1-A.
 Alpha  occ. eigenvalues --   -3.82027  -1.36561  -1.09672  -1.05245  -1.03515
 Alpha  occ. eigenvalues --   -0.90066  -0.88282  -0.71818  -0.69893  -0.59749
 Alpha  occ. eigenvalues --   -0.58376  -0.54249  -0.51077
 Alpha virt. eigenvalues --   -0.05690   0.12987   0.13710   0.14496   0.21256
 Alpha virt. eigenvalues --    0.22994   0.26345   0.28985   0.33330   0.38063
 Alpha virt. eigenvalues --    0.40833

 Mulliken charges:
               1
     1  C   -0.547206
     2  C   -1.969352
     3  O    3.155736
     4  C   -1.929704
     5  C   -0.461768
     6  H    0.416048
     7  H    0.459482
     8  H    0.456758
     9  H    0.420006
 Sum of Mulliken charges =   0.00000

 Dipole moment (field-independent basis, Debye):
    X=             -1.2498    Y=             -9.8623    Z=             -0.2006  Tot=              9.9432
 N-N= 1.050144308809D+02 E-N=-1.738753828811D+02  KE=-2.701000799802D+01
 Orbital energies and kinetic energies (alpha):
                                 1                 2
   1         O                -3.820273         -3.175311
   2         O                -1.365608         -1.346596
   3         O                -1.096720         -1.100163
   4         O                -1.052448         -1.031539
   5         O                -1.035153         -1.023209
   6         O                -0.900662         -0.925529
   7         O                -0.882815         -0.921003

 Normal termination of Gaussian 09 at Fri Dec 11 13:41:16 2015.
