 Gaussian 09, Revision D.01,
 Gaussian 09:  ES64L-G09RevD.01 24-Apr-2013

 ------------------------------------------------------------
 #P AM1(Input,print) CIS(Singlets,NStates=15) pop(full) force
 ------------------------------------------------------------

 -----------------
 AM1-Reparam Input
 -----------------
 Symbolic Z-matrix:
 Charge =  0 Multiplicity = 1

                         Standard orientation:
 ---------------------------------------------------------------------
 Center     Atomic      Atomic             Coordinates (Angstroms)
 Number     Number       Type             X           Y           Z
 ---------------------------------------------------------------------
      1          6           0        0.700864    0.934248    0.006277
      2          6           0        1.108697   -0.337469   -0.004001
      3          8           0       -0.050307   -1.160973    0.005780
      4          6           0       -1.054767   -0.310436   -0.002874
      5          6           0       -0.677206    0.937314   -0.016136
      6          1           0       -1.415149    1.774369    0.062262
      7          1           0       -2.004087   -0.779762   -0.004379
      8          1           0        2.035659   -0.859894    0.004256
      9          1           0        1.320507    1.811136   -0.007975
 ---------------------------------------------------------------------

 SCF Done:  E(RAM1) =   2.17101759887     A.U. after   13 cycles

 Excitation energies and oscillator strengths:

 Excited State   1:      Singlet-A      5.6350 eV  220.03 nm  f=0.3208  <S**2>=0.000
      13 -> 14         0.69188
 This state for optimization and/or second-order correction.
 Total Energy, E(CIS) =   2.37809999005
 Copying the excited state density for this state as the 1-particle RhoCI density.

 Excited State   2:      Singlet-A      6.0973 eV  203.34 nm  f=0.0017  <S**2>=0.000
      10 -> 15         0.11821
      13 -> 15         0.67836
      13 -> 17        -0.11077

 Excited State   3:      Singlet-A      6.9458 eV  178.50 nm  f=0.0013  <S**2>=0.000
      10 -> 16        -0.13118
      13 -> 16         0.66628
      13 -> 17        -0.11863

 Excited State   4:      Singlet-A      7.4125 eV  167.26 nm  f=0.0004  <S**2>=0.000
      12 -> 14         0.69870

 Excited State   5:      Singlet-A      8.0200 eV  154.59 nm  f=0.0096  <S**2>=0.000
      11 -> 14         0.64119
      13 -> 17        -0.26546

 Excited State   6:      Singlet-A      8.2660 eV  149.99 nm  f=0.0044  <S**2>=0.000
      11 -> 14         0.28202
      13 -> 17         0.61347

 Excited State   7:      Singlet-A      8.2865 eV  149.62 nm  f=0.0000  <S**2>=0.000
      13 -> 17        -0.10203
      13 -> 18         0.58871
      13 -> 19         0.10729
      13 -> 22         0.32719

 Excited State   8:      Singlet-A      9.1531 eV  135.46 nm  f=0.0359  <S**2>=0.000
      10 -> 14         0.61801
      11 -> 15        -0.10110
      12 -> 15        -0.14179
      13 -> 20        -0.20316

 Excited State   9:      Singlet-A      9.2449 eV  134.11 nm  f=0.0006  <S**2>=0.000
      10 -> 16         0.10152
      13 -> 18        -0.24065
      13 -> 19         0.60786
      13 -> 21        -0.15922
      13 -> 22         0.12125

 Excited State  10:      Singlet-A      9.4614 eV  131.04 nm  f=0.0326  <S**2>=0.000
       8 -> 15         0.10070
       9 -> 15         0.13755
      11 -> 17         0.17059
      12 -> 15         0.56406
      12 -> 16        -0.14577
      12 -> 18        -0.17990

 Excited State  11:      Singlet-A      9.6867 eV  127.99 nm  f=0.0765  <S**2>=0.000
       9 -> 15        -0.14638
      11 -> 15         0.46464
      11 -> 17        -0.22425
      12 -> 15         0.13098
      12 -> 18         0.14271
      13 -> 18         0.10691
      13 -> 19         0.10906
      13 -> 20        -0.13212
      13 -> 21         0.16157
      13 -> 22        -0.21476

 Excited State  12:      Singlet-A      9.7396 eV  127.30 nm  f=0.0259  <S**2>=0.000
      11 -> 15         0.22565
      11 -> 17        -0.12211
      13 -> 18        -0.24525
      13 -> 19        -0.25021
      13 -> 21        -0.21978
      13 -> 22         0.46889

 Excited State  13:      Singlet-A      9.9649 eV  124.42 nm  f=0.0471  <S**2>=0.000
       7 -> 15        -0.10156
      10 -> 15         0.51920
      13 -> 21         0.37863
      13 -> 22         0.16299

 Excited State  14:      Singlet-A     10.1050 eV  122.70 nm  f=0.0435  <S**2>=0.000
      10 -> 15        -0.39003
      10 -> 16        -0.11238
      13 -> 21         0.46108
      13 -> 22         0.27287

 Excited State  15:      Singlet-A     10.2154 eV  121.37 nm  f=0.0967  <S**2>=0.000
      10 -> 14         0.23306
      12 -> 17        -0.10185
      13 -> 20         0.62591

 The electronic state is 1-A.
 Alpha  occ. eigenvalues --   -1.94805  -1.22126  -0.94725  -0.80948  -0.78949
 Alpha  occ. eigenvalues --   -0.69601  -0.67384  -0.54798  -0.53325  -0.44268
 Alpha  occ. eigenvalues --   -0.42817  -0.41031  -0.28670
 Alpha virt. eigenvalues --    0.13351   0.16576   0.20353   0.25880   0.27989
 Alpha virt. eigenvalues --    0.30887   0.31543   0.32109   0.33987   0.40158
 Alpha virt. eigenvalues --    0.43682

 Mulliken charges:
               1
     1  C   -0.093931
     2  C   -1.860499
     3  O    3.201488
     4  C   -1.869549
     5  C   -0.205850
     6  H    0.161619
     7  H    0.264801
     8  H    0.250865
     9  H    0.151055
 Sum of Mulliken charges =   0.00000

 Dipole moment (field-independent basis, Debye):
    X=             -1.1265    Y=            -11.1838    Z=              0.1927  Tot=             11.2421
 N-N= 1.048822238679D+02 E-N=-1.705415131520D+02  KE=-1.541195927032D+01
 Orbital energies and kinetic energies (alpha):
                                 1                 2
   1         O                -1.948051         -1.373133
   2         O                -1.221258         -1.073677
   3         O                -0.947249         -0.896912
   4         O                -0.809483         -0.573267
   5         O                -0.789489         -0.680389
   6         O                -0.696014         -0.587264
   7         O                -0.673837         -0.541749

 Normal termination of Gaussian 09 at Tue Dec 15 17:09:27 2015.
