 Gaussian 09, Revision D.01,
 Gaussian 09:  ES64L-G09RevD.01 24-Apr-2013

 ------------------------------------------------------------
 #P AM1(Input,print) CIS(Singlets,NStates=15) pop(full) force
 ------------------------------------------------------------

 -----------------
 AM1-Reparam Input
 -----------------
 Symbolic Z-matrix:
 Charge =  0 Multiplicity = 1

                         Standard orientation:
 ---------------------------------------------------------------------
 Center     Atomic      Atomic             Coordinates (Angstroms)
 Number     Number       Type             X           Y           Z
 ---------------------------------------------------------------------
      1          6           0       -0.257164    1.151475   -0.027852
      2          6           0        0.996723    0.546250   -0.011402
      3          8           0        0.909943   -0.750057    0.005757
      4          6           0       -0.485246   -1.033249   -0.014089
      5          6           0       -1.214787    0.121354    0.032600
      6          1           0       -2.271530    0.189291   -0.054279
      7          1           0       -0.693412   -2.123085    0.015739
      8          1           0        1.950343    0.986965    0.051470
      9          1           0       -0.502104    2.232304    0.065469
 ---------------------------------------------------------------------

 SCF Done:  E(RAM1) =   1.72471946639     A.U. after   13 cycles

 Excitation energies and oscillator strengths:

 Excited State   1:      Singlet-A      5.6099 eV  221.01 nm  f=0.3520  <S**2>=0.000
      13 -> 14         0.69281
 This state for optimization and/or second-order correction.
 Total Energy, E(CIS) =   1.93087773377
 Copying the excited state density for this state as the 1-particle RhoCI density.

 Excited State   2:      Singlet-A      7.1199 eV  174.14 nm  f=0.0006  <S**2>=0.000
      12 -> 14         0.69589

 Excited State   3:      Singlet-A      7.1405 eV  173.64 nm  f=0.0046  <S**2>=0.000
      10 -> 15         0.10610
      13 -> 15         0.66555
      13 -> 17        -0.12973
      13 -> 18         0.10326

 Excited State   4:      Singlet-A      7.5110 eV  165.07 nm  f=0.0015  <S**2>=0.000
      10 -> 16        -0.13112
      13 -> 16         0.66428
      13 -> 17        -0.10678

 Excited State   5:      Singlet-A      7.9670 eV  155.62 nm  f=0.0072  <S**2>=0.000
      11 -> 14         0.69875

 Excited State   6:      Singlet-A      9.0025 eV  137.72 nm  f=0.0011  <S**2>=0.000
      10 -> 16        -0.10614
      13 -> 16         0.11625
      13 -> 17         0.31926
      13 -> 18         0.55338
      13 -> 22        -0.22631

 Excited State   7:      Singlet-A      9.2789 eV  133.62 nm  f=0.0111  <S**2>=0.000
      10 -> 14        -0.13232
      10 -> 15         0.12223
      13 -> 15         0.14392
      13 -> 17         0.57684
      13 -> 18        -0.28594
      13 -> 22         0.10206

 Excited State   8:      Singlet-A      9.3564 eV  132.51 nm  f=0.0866  <S**2>=0.000
      10 -> 14         0.64159
      12 -> 16        -0.13773
      13 -> 17         0.13346

 Excited State   9:      Singlet-A      9.9217 eV  124.96 nm  f=0.0080  <S**2>=0.000
      10 -> 14         0.12125
      11 -> 17        -0.14016
      12 -> 15        -0.31549
      12 -> 16         0.21615
      12 -> 18        -0.22876
      13 -> 19         0.43210

 Excited State  10:      Singlet-A      9.9420 eV  124.71 nm  f=0.0091  <S**2>=0.000
      11 -> 17         0.12444
      12 -> 15         0.26420
      12 -> 16        -0.18306
      12 -> 18         0.19784
      13 -> 19         0.52019

 Excited State  11:      Singlet-A     10.1962 eV  121.60 nm  f=0.0917  <S**2>=0.000
       9 -> 15         0.10051
      10 -> 14         0.11616
      11 -> 15         0.31568
      11 -> 17        -0.15776
      12 -> 15         0.48482
      12 -> 16         0.14787
      12 -> 17        -0.21209

 Excited State  12:      Singlet-A     10.5593 eV  117.42 nm  f=0.0737  <S**2>=0.000
       9 -> 14        -0.10071
      12 -> 16        -0.18612
      13 -> 18        -0.20423
      13 -> 20         0.51374
      13 -> 22        -0.33009

 Excited State  13:      Singlet-A     10.6289 eV  116.65 nm  f=0.1986  <S**2>=0.000
       8 -> 16         0.10689
       9 -> 16         0.12790
      11 -> 15        -0.14367
      11 -> 16        -0.22578
      11 -> 17         0.14581
      12 -> 16         0.48790
      12 -> 18         0.16980
      13 -> 20         0.16757
      13 -> 22        -0.10812

 Excited State  14:      Singlet-A     10.8858 eV  113.90 nm  f=0.0141  <S**2>=0.000
       7 -> 15        -0.12414
      10 -> 15         0.56602
      13 -> 15        -0.11952
      13 -> 18         0.13596
      13 -> 20         0.16148
      13 -> 22         0.26354

 Excited State  15:      Singlet-A     10.9933 eV  112.78 nm  f=0.0503  <S**2>=0.000
       8 -> 16         0.11753
       9 -> 15        -0.14491
      10 -> 15        -0.14150
      11 -> 15        -0.14839
      11 -> 16         0.32736
      11 -> 19        -0.22265
      12 -> 15         0.10027
      12 -> 17         0.15036
      13 -> 20         0.23719
      13 -> 22         0.33478

 The electronic state is 1-A.
 Alpha  occ. eigenvalues --   -1.90781  -1.17346  -0.91216  -0.81659  -0.78113
 Alpha  occ. eigenvalues --   -0.69859  -0.67353  -0.56377  -0.54481  -0.46323
 Alpha  occ. eigenvalues --   -0.44270  -0.41624  -0.30624
 Alpha virt. eigenvalues --    0.11368   0.18304   0.19996   0.27252   0.28488
 Alpha virt. eigenvalues --    0.30677   0.32688   0.34315   0.36195   0.43037
 Alpha virt. eigenvalues --    0.46467

 Mulliken charges:
               1
     1  C   -0.227180
     2  C   -2.047707
     3  O    3.289534
     4  C   -1.998884
     5  C   -0.081144
     6  H    0.198541
     7  H    0.312945
     8  H    0.344073
     9  H    0.209822
 Sum of Mulliken charges =   0.00000

 Dipole moment (field-independent basis, Debye):
    X=              8.4923    Y=             -6.7568    Z=              0.4983  Tot=             10.8637
 N-N= 1.036612657411D+02 E-N=-1.689910501991D+02  KE=-1.548151541437D+01
 Orbital energies and kinetic energies (alpha):
                                 1                 2
   1         O                -1.907811         -1.367833
   2         O                -1.173457         -1.059352
   3         O                -0.912162         -0.870966
   4         O                -0.816593         -0.577329
   5         O                -0.781127         -0.690137
   6         O                -0.698586         -0.585994
   7         O                -0.673525         -0.535777

 Normal termination of Gaussian 09 at Tue Dec 15 17:09:45 2015.
