 Gaussian 09, Revision D.01,
 Gaussian 09:  ES64L-G09RevD.01 24-Apr-2013

 ------------------------------------------------------------
 #P AM1(Input,print) CIS(Singlets,NStates=15) pop(full) force
 ------------------------------------------------------------

 -----------------
 AM1-Reparam Input
 -----------------
 Symbolic Z-matrix:
 Charge =  0 Multiplicity = 1

                         Standard orientation:
 ---------------------------------------------------------------------
 Center     Atomic      Atomic             Coordinates (Angstroms)
 Number     Number       Type             X           Y           Z
 ---------------------------------------------------------------------
      1          6           0        0.891225    0.800723    0.015921
      2          6           0        1.016608   -0.509661    0.031629
      3          8           0       -0.214954   -1.150807   -0.014098
      4          6           0       -1.141199   -0.136255   -0.007561
      5          6           0       -0.532356    1.050949   -0.024795
      6          1           0       -1.111574    2.035757    0.060398
      7          1           0       -2.156911   -0.506916    0.075583
      8          1           0        1.919511   -1.151118   -0.050373
      9          1           0        1.662937    1.594196   -0.063994
 ---------------------------------------------------------------------

 SCF Done:  E(RAM1) =   1.75437878876     A.U. after   14 cycles

 Excitation energies and oscillator strengths:

 Excited State   1:      Singlet-A      5.2853 eV  234.58 nm  f=0.3558  <S**2>=0.000
      13 -> 14         0.69441
 This state for optimization and/or second-order correction.
 Total Energy, E(CIS) =   1.94860978540
 Copying the excited state density for this state as the 1-particle RhoCI density.

 Excited State   2:      Singlet-A      6.7902 eV  182.59 nm  f=0.0002  <S**2>=0.000
      13 -> 15         0.67359
      13 -> 19        -0.14067

 Excited State   3:      Singlet-A      6.9058 eV  179.54 nm  f=0.0034  <S**2>=0.000
      12 -> 14         0.15412
      13 -> 16         0.65942
      13 -> 17        -0.13777

 Excited State   4:      Singlet-A      6.9627 eV  178.07 nm  f=0.0009  <S**2>=0.000
      12 -> 14         0.68423
      13 -> 16        -0.14855

 Excited State   5:      Singlet-A      7.8785 eV  157.37 nm  f=0.0093  <S**2>=0.000
      11 -> 14         0.69712

 Excited State   6:      Singlet-A      8.5576 eV  144.88 nm  f=0.0004  <S**2>=0.000
      13 -> 15         0.10877
      13 -> 17        -0.10288
      13 -> 18         0.60717
      13 -> 19         0.20346
      13 -> 22         0.23970

 Excited State   7:      Singlet-A      8.7511 eV  141.68 nm  f=0.0078  <S**2>=0.000
      13 -> 16         0.11874
      13 -> 17         0.67334

 Excited State   8:      Singlet-A      9.4107 eV  131.75 nm  f=0.0233  <S**2>=0.000
      10 -> 14         0.44519
      12 -> 16         0.11373
      13 -> 18        -0.18785
      13 -> 19         0.46341
      13 -> 20         0.11175

 Excited State   9:      Singlet-A      9.4261 eV  131.53 nm  f=0.0272  <S**2>=0.000
      10 -> 14         0.45159
      12 -> 16         0.12947
      13 -> 18         0.17156
      13 -> 19        -0.44759
      13 -> 20         0.12873

 Excited State  10:      Singlet-A      9.6876 eV  127.98 nm  f=0.0446  <S**2>=0.000
       8 -> 16         0.12432
      11 -> 17         0.19663
      12 -> 15         0.53380
      12 -> 18        -0.26479
      12 -> 19        -0.11408

 Excited State  11:      Singlet-A     10.1952 eV  121.61 nm  f=0.1114  <S**2>=0.000
      10 -> 14        -0.11576
      11 -> 15         0.27490
      11 -> 16         0.17815
      11 -> 17        -0.15768
      12 -> 15         0.31468
      12 -> 16         0.41761
      12 -> 17        -0.14994
      12 -> 18         0.13464

 Excited State  12:      Singlet-A     10.3088 eV  120.27 nm  f=0.1923  <S**2>=0.000
      10 -> 14        -0.12067
      11 -> 16        -0.29128
      11 -> 17         0.20122
      12 -> 15        -0.16741
      12 -> 16         0.40751
      12 -> 18        -0.23117
      13 -> 21        -0.23521

 Excited State  13:      Singlet-A     10.3711 eV  119.55 nm  f=0.1130  <S**2>=0.000
      11 -> 16        -0.12263
      11 -> 17         0.10006
      12 -> 16         0.12940
      12 -> 18        -0.10461
      13 -> 20         0.23795
      13 -> 21         0.55888
      13 -> 22        -0.19657

 Excited State  14:      Singlet-A     10.5191 eV  117.87 nm  f=0.0191  <S**2>=0.000
      13 -> 18        -0.19315
      13 -> 20         0.22469
      13 -> 21         0.14404
      13 -> 22         0.60146

 Excited State  15:      Singlet-A     10.5515 eV  117.50 nm  f=0.0713  <S**2>=0.000
      10 -> 14        -0.15632
      11 -> 15        -0.10144
      13 -> 20         0.57413
      13 -> 21        -0.28746
      13 -> 22        -0.15623

 The electronic state is 1-A.
 Alpha  occ. eigenvalues --   -1.90252  -1.17081  -0.91935  -0.81094  -0.77734
 Alpha  occ. eigenvalues --   -0.69155  -0.67294  -0.55543  -0.54445  -0.46542
 Alpha  occ. eigenvalues --   -0.43224  -0.40383  -0.28481
 Alpha virt. eigenvalues --    0.11762   0.18873   0.19272   0.27591   0.28872
 Alpha virt. eigenvalues --    0.31191   0.32792   0.33502   0.36603   0.41931
 Alpha virt. eigenvalues --    0.44900

 Mulliken charges:
               1
     1  C   -0.161991
     2  C   -1.999440
     3  O    3.288959
     4  C   -1.989208
     5  C   -0.199569
     6  H    0.206675
     7  H    0.317881
     8  H    0.334899
     9  H    0.201795
 Sum of Mulliken charges =   0.00000

 Dipole moment (field-independent basis, Debye):
    X=             -1.9247    Y=            -11.2426    Z=             -0.3537  Tot=             11.4117
 N-N= 1.035725056312D+02 E-N=-1.689202864187D+02  KE=-1.545268408817D+01
 Orbital energies and kinetic energies (alpha):
                                 1                 2
   1         O                -1.902521         -1.355566
   2         O                -1.170810         -1.050562
   3         O                -0.919346         -0.891560
   4         O                -0.810941         -0.564298
   5         O                -0.777344         -0.689789
   6         O                -0.691550         -0.572329
   7         O                -0.672942         -0.541375

 Normal termination of Gaussian 09 at Tue Dec 15 17:09:48 2015.
