 Gaussian 09, Revision D.01,
 Gaussian 09:  ES64L-G09RevD.01 24-Apr-2013

 ------------------------------------------------------------
 #P AM1(Input,print) CIS(Singlets,NStates=15) pop(full) force
 ------------------------------------------------------------

 -----------------
 AM1-Reparam Input
 -----------------
 Symbolic Z-matrix:
 Charge =  0 Multiplicity = 1

                         Standard orientation:
 ---------------------------------------------------------------------
 Center     Atomic      Atomic             Coordinates (Angstroms)
 Number     Number       Type             X           Y           Z
 ---------------------------------------------------------------------
      1          6           0        0.867254    0.750367   -0.006659
      2          6           0        1.031277   -0.573175    0.003733
      3          8           0       -0.267478   -1.103384   -0.017968
      4          6           0       -1.161435   -0.142458    0.039961
      5          6           0       -0.452088    1.109645   -0.021723
      6          1           0       -0.915346    2.034524    0.000670
      7          1           0       -2.163544   -0.350638   -0.026643
      8          1           0        1.785176   -1.221629    0.023659
      9          1           0        1.723492    1.498536    0.054184
 ---------------------------------------------------------------------

 SCF Done:  E(RAM1) =   1.38540053488     A.U. after   13 cycles

 Excitation energies and oscillator strengths:

 Excited State   1:      Singlet-A      6.2586 eV  198.10 nm  f=0.2886  <S**2>=0.000
      13 -> 14         0.68437
 This state for optimization and/or second-order correction.
 Total Energy, E(CIS) =   1.61540008253
 Copying the excited state density for this state as the 1-particle RhoCI density.

 Excited State   2:      Singlet-A      6.6036 eV  187.75 nm  f=0.0147  <S**2>=0.000
      13 -> 15         0.62523
      13 -> 17        -0.23431

 Excited State   3:      Singlet-A      7.3822 eV  167.95 nm  f=0.0000  <S**2>=0.000
      11 -> 14        -0.11024
      12 -> 15         0.14978
      12 -> 16         0.12320
      13 -> 16         0.61903
      13 -> 20        -0.12152
      13 -> 22        -0.15369

 Excited State   4:      Singlet-A      7.5701 eV  163.78 nm  f=0.0040  <S**2>=0.000
      11 -> 14         0.65392
      12 -> 14         0.16751
      13 -> 16         0.11632

 Excited State   5:      Singlet-A      7.9157 eV  156.63 nm  f=0.0058  <S**2>=0.000
      10 -> 14        -0.11810
      12 -> 15        -0.13960
      13 -> 15         0.19905
      13 -> 17         0.61710
      13 -> 22        -0.13437

 Excited State   6:      Singlet-A      8.3296 eV  148.85 nm  f=0.0020  <S**2>=0.000
      10 -> 14         0.44373
      12 -> 14        -0.11374
      13 -> 17         0.16977
      13 -> 18        -0.26893
      13 -> 19        -0.11218
      13 -> 21        -0.18752
      13 -> 22         0.32208

 Excited State   7:      Singlet-A      8.3792 eV  147.97 nm  f=0.0047  <S**2>=0.000
      10 -> 14         0.49473
      13 -> 18         0.34914
      13 -> 19         0.11512
      13 -> 21         0.17140
      13 -> 22        -0.25298

 Excited State   8:      Singlet-A      8.6038 eV  144.10 nm  f=0.0349  <S**2>=0.000
      10 -> 14         0.10267
      11 -> 14        -0.16429
      12 -> 14         0.59262
      13 -> 18        -0.12345
      13 -> 19         0.25575

 Excited State   9:      Singlet-A      8.8814 eV  139.60 nm  f=0.0108  <S**2>=0.000
      12 -> 14         0.10096
      12 -> 15         0.40626
      13 -> 18         0.28620
      13 -> 20         0.35469
      13 -> 22         0.28160

 Excited State  10:      Singlet-A      9.0815 eV  136.52 nm  f=0.0014  <S**2>=0.000
      10 -> 14         0.11745
      13 -> 16         0.11855
      13 -> 18        -0.30540
      13 -> 19        -0.26094
      13 -> 20         0.45009
      13 -> 21         0.20953
      13 -> 22        -0.20587

 Excited State  11:      Singlet-A      9.2818 eV  133.58 nm  f=0.0031  <S**2>=0.000
      12 -> 15         0.44960
      12 -> 17        -0.10757
      13 -> 15         0.17183
      13 -> 16        -0.18141
      13 -> 18        -0.23324
      13 -> 19         0.13732
      13 -> 22        -0.32400

 Excited State  12:      Singlet-A      9.4486 eV  131.22 nm  f=0.0318  <S**2>=0.000
      10 -> 15        -0.11815
      10 -> 17         0.10088
      11 -> 15         0.24401
      11 -> 17        -0.23787
      12 -> 14        -0.15248
      13 -> 18        -0.14663
      13 -> 19         0.43197
      13 -> 20         0.12884
      13 -> 21         0.19088
      13 -> 22         0.13367

 Excited State  13:      Singlet-A      9.5956 eV  129.21 nm  f=0.0814  <S**2>=0.000
      11 -> 15        -0.14076
      11 -> 17         0.16586
      12 -> 16         0.18971
      13 -> 20        -0.23013
      13 -> 21         0.53101
      13 -> 22         0.12685

 Excited State  14:      Singlet-A      9.7781 eV  126.80 nm  f=0.3955  <S**2>=0.000
      10 -> 15         0.13473
      10 -> 16         0.14188
      10 -> 17        -0.15561
      11 -> 17         0.32772
      11 -> 18         0.22362
      11 -> 20         0.11005
      12 -> 14        -0.22384
      13 -> 19         0.28690
      13 -> 20         0.18133
      13 -> 21        -0.14528

 Excited State  15:      Singlet-A     10.1339 eV  122.35 nm  f=0.0078  <S**2>=0.000
       8 -> 15         0.11631
      10 -> 18        -0.12468
      11 -> 15         0.44077
      11 -> 16         0.21899
      11 -> 17         0.16643
      11 -> 18         0.23851
      11 -> 20         0.11341
      12 -> 16         0.15952
      13 -> 19        -0.16466

 The electronic state is 1-A.
 Alpha  occ. eigenvalues --   -1.90072  -1.19783  -0.97186  -0.79598  -0.78172
 Alpha  occ. eigenvalues --   -0.68180  -0.62516  -0.52289  -0.48129  -0.40956
 Alpha  occ. eigenvalues --   -0.38308  -0.37538  -0.26691
 Alpha virt. eigenvalues --    0.17315   0.21724   0.24775   0.26670   0.30235
 Alpha virt. eigenvalues --    0.30434   0.31597   0.33820   0.35166   0.40338
 Alpha virt. eigenvalues --    0.46539

 Mulliken charges:
               1
     1  C    0.006516
     2  C   -1.565423
     3  O    2.819308
     4  C   -1.629563
     5  C   -0.110984
     6  H    0.076608
     7  H    0.184144
     8  H    0.157302
     9  H    0.062092
 Sum of Mulliken charges =   0.00000

 Dipole moment (field-independent basis, Debye):
    X=             -2.1506    Y=             -8.6561    Z=             -0.5004  Tot=              8.9333
 N-N= 1.039743667929D+02 E-N=-1.704598060252D+02  KE=-1.592977740634D+01
 Orbital energies and kinetic energies (alpha):
                                 1                 2
   1         O                -1.900724         -1.394803
   2         O                -1.197825         -1.074478
   3         O                -0.971855         -0.882029
   4         O                -0.795981         -0.672779
   5         O                -0.781719         -0.678095
   6         O                -0.681798         -0.628596
   7         O                -0.625156         -0.545721

 Normal termination of Gaussian 09 at Tue Dec 15 17:08:10 2015.
