 Gaussian 09, Revision D.01,
 Gaussian 09:  ES64L-G09RevD.01 24-Apr-2013

 ------------------------------------------------------------
 #P AM1(Input,print) CIS(Singlets,NStates=15) pop(full) force
 ------------------------------------------------------------

 -----------------
 AM1-Reparam Input
 -----------------
 Symbolic Z-matrix:
 Charge =  0 Multiplicity = 1

                         Standard orientation:
 ---------------------------------------------------------------------
 Center     Atomic      Atomic             Coordinates (Angstroms)
 Number     Number       Type             X           Y           Z
 ---------------------------------------------------------------------
      1          6           0       -0.635852    0.987878    0.013521
      2          6           0       -1.130008   -0.288040    0.007647
      3          8           0       -0.073227   -1.147976    0.000258
      4          6           0        1.100177   -0.403273   -0.007055
      5          6           0        0.726460    0.910716   -0.029787
      6          1           0        1.488692    1.726728    0.064265
      7          1           0        2.010116   -0.945801    0.059112
      8          1           0       -2.049912   -0.717208   -0.032770
      9          1           0       -1.227742    1.876404    0.001369
 ---------------------------------------------------------------------

 SCF Done:  E(RAM1) =   1.84054292647     A.U. after   14 cycles

 Excitation energies and oscillator strengths:

 Excited State   1:      Singlet-A      5.8716 eV  211.16 nm  f=0.2829  <S**2>=0.000
      11 -> 17         0.12156
      13 -> 14         0.68062
 This state for optimization and/or second-order correction.
 Total Energy, E(CIS) =   2.05631886229
 Copying the excited state density for this state as the 1-particle RhoCI density.

 Excited State   2:      Singlet-A      6.8782 eV  180.26 nm  f=0.0083  <S**2>=0.000
      10 -> 16        -0.10950
      13 -> 15         0.65068
      13 -> 17        -0.20296

 Excited State   3:      Singlet-A      7.0206 eV  176.60 nm  f=0.0022  <S**2>=0.000
      12 -> 14         0.68916

 Excited State   4:      Singlet-A      7.0998 eV  174.63 nm  f=0.0001  <S**2>=0.000
      10 -> 15        -0.14178
      13 -> 16         0.65495
      13 -> 19        -0.16551

 Excited State   5:      Singlet-A      7.5740 eV  163.70 nm  f=0.0050  <S**2>=0.000
      11 -> 14         0.69302

 Excited State   6:      Singlet-A      8.4277 eV  147.11 nm  f=0.0082  <S**2>=0.000
      10 -> 16        -0.12885
      13 -> 15         0.14563
      13 -> 17         0.60769
      13 -> 18        -0.24087
      13 -> 21        -0.13985

 Excited State   7:      Singlet-A      8.5004 eV  145.86 nm  f=0.0032  <S**2>=0.000
      10 -> 16        -0.10634
      13 -> 17         0.25307
      13 -> 18         0.57540
      13 -> 21         0.25766

 Excited State   8:      Singlet-A      9.0616 eV  136.82 nm  f=0.0602  <S**2>=0.000
      10 -> 14         0.39298
      11 -> 15        -0.27813
      11 -> 17         0.23622
      12 -> 16        -0.20043
      12 -> 17        -0.15742
      12 -> 18         0.24437
      12 -> 21         0.10401
      13 -> 14        -0.11769

 Excited State   9:      Singlet-A      9.1249 eV  135.87 nm  f=0.0691  <S**2>=0.000
      10 -> 14         0.52651
      11 -> 15         0.16910
      11 -> 17        -0.16804
      11 -> 18        -0.13230
      12 -> 15        -0.19466
      12 -> 16         0.11223
      12 -> 18        -0.17303

 Excited State  10:      Singlet-A      9.2763 eV  133.66 nm  f=0.0016  <S**2>=0.000
      10 -> 15        -0.14802
      13 -> 16         0.11977
      13 -> 19         0.65432

 Excited State  11:      Singlet-A      9.6095 eV  129.02 nm  f=0.0506  <S**2>=0.000
      11 -> 16        -0.29154
      11 -> 19         0.12323
      12 -> 15         0.37001
      12 -> 16         0.41759
      12 -> 17        -0.18792

 Excited State  12:      Singlet-A      9.6682 eV  128.24 nm  f=0.1656  <S**2>=0.000
      11 -> 15         0.39759
      11 -> 16        -0.14649
      11 -> 17        -0.11064
      12 -> 15         0.30387
      12 -> 16        -0.38304
      12 -> 19         0.13523

 Excited State  13:      Singlet-A      9.9034 eV  125.19 nm  f=0.0083  <S**2>=0.000
      10 -> 15        -0.17042
      13 -> 18        -0.28645
      13 -> 19        -0.11015
      13 -> 20        -0.22638
      13 -> 21         0.54202

 Excited State  14:      Singlet-A     10.0366 eV  123.53 nm  f=0.0965  <S**2>=0.000
       8 -> 16        -0.17459
       9 -> 15         0.18252
      10 -> 14         0.19475
      11 -> 16         0.23091
      11 -> 18         0.22673
      11 -> 19        -0.23433
      12 -> 15         0.31341
      12 -> 17         0.22001
      12 -> 20        -0.14848

 Excited State  15:      Singlet-A     10.0671 eV  123.16 nm  f=0.0878  <S**2>=0.000
      10 -> 16        -0.17788
      13 -> 20         0.63156
      13 -> 21         0.19850

 The electronic state is 1-A.
 Alpha  occ. eigenvalues --   -1.94268  -1.22773  -0.98646  -0.81985  -0.80618
 Alpha  occ. eigenvalues --   -0.69136  -0.66966  -0.53094  -0.50127  -0.42356
 Alpha  occ. eigenvalues --   -0.40156  -0.38626  -0.28958
 Alpha virt. eigenvalues --    0.14366   0.20153   0.20490   0.25818   0.28061
 Alpha virt. eigenvalues --    0.30438   0.32094   0.35121   0.35215   0.43988
 Alpha virt. eigenvalues --    0.48898

 Mulliken charges:
               1
     1  C   -0.104885
     2  C   -1.942713
     3  O    3.142552
     4  C   -1.938550
     5  C   -0.075423
     6  H    0.155037
     7  H    0.302026
     8  H    0.303110
     9  H    0.158846
 Sum of Mulliken charges =   0.00000

 Dipole moment (field-independent basis, Debye):
    X=             -0.5965    Y=            -10.1035    Z=              0.0928  Tot=             10.1216
 N-N= 1.043466623723D+02 E-N=-1.699651523712D+02  KE=-1.569292054375D+01
 Orbital energies and kinetic energies (alpha):
                                 1                 2
   1         O                -1.942681         -1.410441
   2         O                -1.227727         -1.087512
   3         O                -0.986456         -0.911664
   4         O                -0.819853         -0.684484
   5         O                -0.806184         -0.639345
   6         O                -0.691360         -0.577797
   7         O                -0.669659         -0.587061

 Normal termination of Gaussian 09 at Tue Dec 15 17:10:00 2015.
