 Gaussian 09, Revision D.01,
 Gaussian 09:  ES64L-G09RevD.01 24-Apr-2013

 ------------------------------------------------------------
 #P AM1(Input,print) CIS(Singlets,NStates=15) pop(full) force
 ------------------------------------------------------------

 -----------------
 AM1-Reparam Input
 -----------------
 Symbolic Z-matrix:
 Charge =  0 Multiplicity = 1

                         Standard orientation:
 ---------------------------------------------------------------------
 Center     Atomic      Atomic             Coordinates (Angstroms)
 Number     Number       Type             X           Y           Z
 ---------------------------------------------------------------------
      1          6           0       -0.600845    1.011082   -0.011114
      2          6           0       -1.134477   -0.269980   -0.037861
      3          8           0       -0.093479   -1.155839    0.034801
      4          6           0        1.096304   -0.450574   -0.034439
      5          6           0        0.759577    0.910126    0.013513
      6          1           0        1.468851    1.740545    0.047492
      7          1           0        1.958711   -0.939815   -0.005863
      8          1           0       -2.157857   -0.646201    0.045303
      9          1           0       -1.245235    1.888258    0.054067
 ---------------------------------------------------------------------

 SCF Done:  E(RAM1) =   2.80061775602     A.U. after   13 cycles

 Excitation energies and oscillator strengths:

 Excited State   1:      Singlet-A      5.6225 eV  220.51 nm  f=0.3102  <S**2>=0.000
      13 -> 14         0.69062
 This state for optimization and/or second-order correction.
 Total Energy, E(CIS) =   3.00724239517
 Copying the excited state density for this state as the 1-particle RhoCI density.

 Excited State   2:      Singlet-A      6.8352 eV  181.39 nm  f=0.0093  <S**2>=0.000
      13 -> 15         0.61473
      13 -> 16         0.21950
      13 -> 17         0.21482

 Excited State   3:      Singlet-A      7.1272 eV  173.96 nm  f=0.0008  <S**2>=0.000
       9 -> 14         0.14549
      12 -> 14         0.67990

 Excited State   4:      Singlet-A      7.2532 eV  170.94 nm  f=0.0030  <S**2>=0.000
      11 -> 15        -0.10696
      13 -> 15        -0.18422
      13 -> 16         0.60698
      13 -> 18        -0.17583
      13 -> 19         0.13984

 Excited State   5:      Singlet-A      7.6047 eV  163.04 nm  f=0.0043  <S**2>=0.000
      10 -> 14         0.58928
      11 -> 14         0.37305

 Excited State   6:      Singlet-A      8.2620 eV  150.07 nm  f=0.0027  <S**2>=0.000
      11 -> 15         0.13677
      13 -> 15         0.13469
      13 -> 17        -0.31918
      13 -> 18        -0.33574
      13 -> 19        -0.15123
      13 -> 21         0.44922

 Excited State   7:      Singlet-A      8.4415 eV  146.87 nm  f=0.0084  <S**2>=0.000
      11 -> 16         0.14457
      13 -> 15        -0.13801
      13 -> 17         0.54870
      13 -> 18        -0.15588
      13 -> 19        -0.21122
      13 -> 21         0.25903

 Excited State   8:      Singlet-A      8.5846 eV  144.43 nm  f=0.1037  <S**2>=0.000
      10 -> 14        -0.37200
      11 -> 14         0.58608

 Excited State   9:      Singlet-A      9.0847 eV  136.48 nm  f=0.0001  <S**2>=0.000
      11 -> 15         0.11454
      11 -> 16         0.11876
      13 -> 16        -0.13158
      13 -> 17         0.11759
      13 -> 18        -0.21892
      13 -> 19         0.60058

 Excited State  10:      Singlet-A      9.3404 eV  132.74 nm  f=0.0001  <S**2>=0.000
      13 -> 18         0.51013
      13 -> 19         0.17486
      13 -> 21         0.43920

 Excited State  11:      Singlet-A      9.4271 eV  131.52 nm  f=0.0910  <S**2>=0.000
       8 -> 15        -0.10241
       9 -> 16         0.12269
       9 -> 18        -0.10520
      10 -> 15         0.31611
      10 -> 16         0.21425
      10 -> 17         0.26365
      11 -> 15         0.19290
      11 -> 16         0.11950
      11 -> 17         0.16289
      12 -> 16         0.13490
      12 -> 18        -0.20939
      12 -> 19        -0.14608
      12 -> 21         0.14614
      13 -> 14         0.11530

 Excited State  12:      Singlet-A      9.7138 eV  127.64 nm  f=0.0954  <S**2>=0.000
      11 -> 16         0.12590
      13 -> 20         0.68014

 Excited State  13:      Singlet-A      9.8082 eV  126.41 nm  f=0.0360  <S**2>=0.000
      10 -> 15         0.14078
      10 -> 16        -0.14539
      11 -> 15         0.22598
      12 -> 15         0.55191
      12 -> 17         0.17607

 Excited State  14:      Singlet-A      9.9482 eV  124.63 nm  f=0.0054  <S**2>=0.000
       9 -> 14        -0.11234
      10 -> 15        -0.22962
      11 -> 15         0.48324
      11 -> 16         0.18948
      11 -> 20         0.10709
      12 -> 15        -0.11472
      12 -> 16        -0.20138
      13 -> 15        -0.13275
      13 -> 16         0.14681
      13 -> 21        -0.11345

 Excited State  15:      Singlet-A     10.0941 eV  122.83 nm  f=0.1119  <S**2>=0.000
      10 -> 15        -0.20488
      10 -> 16        -0.26424
      10 -> 20        -0.10399
      12 -> 15        -0.10764
      12 -> 16         0.51747
      12 -> 18        -0.15353

 The electronic state is 1-A.
 Alpha  occ. eigenvalues --   -1.70605  -1.12194  -0.91881  -0.78560  -0.75918
 Alpha  occ. eigenvalues --   -0.66984  -0.62829  -0.54775  -0.50109  -0.43038
 Alpha  occ. eigenvalues --   -0.42404  -0.41303  -0.30354
 Alpha virt. eigenvalues --    0.11645   0.18563   0.20747   0.24142   0.26842
 Alpha virt. eigenvalues --    0.27759   0.29005   0.30275   0.36604   0.45308
 Alpha virt. eigenvalues --    0.49867

 Mulliken charges:
               1
     1  C   -0.123938
     2  C   -1.984948
     3  O    3.228781
     4  C   -1.982355
     5  C   -0.111288
     6  H    0.181886
     7  H    0.298636
     8  H    0.310040
     9  H    0.183185
 Sum of Mulliken charges =   0.00000

 Dipole moment (field-independent basis, Debye):
    X=             -1.2066    Y=             -9.7906    Z=              1.2708  Tot=              9.9462
 N-N= 1.037264902960D+02 E-N=-1.686670902232D+02  KE=-1.476556981994D+01
 Orbital energies and kinetic energies (alpha):
                                 1                 2
   1         O                -1.706053         -1.197061
   2         O                -1.121939         -0.987579
   3         O                -0.918810         -0.844660
   4         O                -0.785601         -0.598466
   5         O                -0.759177         -0.675749
   6         O                -0.669841         -0.581947
   7         O                -0.628292         -0.521280

 Normal termination of Gaussian 09 at Tue Dec 15 17:05:56 2015.
