 Gaussian 09, Revision D.01,
 Gaussian 09:  ES64L-G09RevD.01 24-Apr-2013

 ------------------------------------------------------------
 #P AM1(Input,print) CIS(Singlets,NStates=15) pop(full) force
 ------------------------------------------------------------

 -----------------
 AM1-Reparam Input
 -----------------
 Symbolic Z-matrix:
 Charge =  0 Multiplicity = 1

                         Standard orientation:
 ---------------------------------------------------------------------
 Center     Atomic      Atomic             Coordinates (Angstroms)
 Number     Number       Type             X           Y           Z
 ---------------------------------------------------------------------
      1          6           0       -0.649209    0.952741   -0.010527
      2          6           0       -1.125689   -0.286260   -0.018166
      3          8           0       -0.016815   -1.185070    0.020537
      4          6           0        1.071734   -0.378041   -0.018015
      5          6           0        0.715134    0.952553    0.003449
      6          1           0        1.405952    1.806359    0.024339
      7          1           0        1.996069   -0.867944    0.000200
      8          1           0       -2.049384   -0.749091    0.004314
      9          1           0       -1.289940    1.845278    0.066410
 ---------------------------------------------------------------------

 SCF Done:  E(RAM1) =   2.07468022835     A.U. after   13 cycles

 Excitation energies and oscillator strengths:

 Excited State   1:      Singlet-A      5.6190 eV  220.65 nm  f=0.3188  <S**2>=0.000
      13 -> 14         0.69104
 This state for optimization and/or second-order correction.
 Total Energy, E(CIS) =   2.28117603074
 Copying the excited state density for this state as the 1-particle RhoCI density.

 Excited State   2:      Singlet-A      6.8696 eV  180.48 nm  f=0.0096  <S**2>=0.000
      13 -> 15         0.64927
      13 -> 17         0.22190

 Excited State   3:      Singlet-A      6.9849 eV  177.50 nm  f=0.0015  <S**2>=0.000
      12 -> 14         0.68892

 Excited State   4:      Singlet-A      7.3332 eV  169.07 nm  f=0.0038  <S**2>=0.000
      10 -> 16         0.10235
      13 -> 16         0.64031
      13 -> 18         0.23049

 Excited State   5:      Singlet-A      7.7081 eV  160.85 nm  f=0.0052  <S**2>=0.000
      10 -> 14         0.13303
      11 -> 14         0.67737

 Excited State   6:      Singlet-A      8.3251 eV  148.93 nm  f=0.0003  <S**2>=0.000
      10 -> 15        -0.10575
      13 -> 15         0.11777
      13 -> 16        -0.12817
      13 -> 17        -0.22351
      13 -> 18         0.28923
      13 -> 19         0.38861
      13 -> 21         0.39079

 Excited State   7:      Singlet-A      8.8100 eV  140.73 nm  f=0.0177  <S**2>=0.000
      10 -> 15         0.11469
      10 -> 16        -0.12563
      13 -> 15        -0.15772
      13 -> 17         0.60295
      13 -> 18         0.12232
      13 -> 19         0.18993
      13 -> 21         0.12253

 Excited State   8:      Singlet-A      8.9041 eV  139.24 nm  f=0.0820  <S**2>=0.000
      10 -> 14         0.66248
      11 -> 14        -0.12387

 Excited State   9:      Singlet-A      9.2488 eV  134.05 nm  f=0.0006  <S**2>=0.000
      10 -> 16        -0.11435
      13 -> 16        -0.15772
      13 -> 18         0.48284
      13 -> 19        -0.44617

 Excited State  10:      Singlet-A      9.5134 eV  130.33 nm  f=0.0542  <S**2>=0.000
       9 -> 15         0.15388
      10 -> 14        -0.12931
      11 -> 15         0.14320
      11 -> 16         0.22967
      11 -> 17         0.15798
      11 -> 18         0.17340
      12 -> 15         0.37633
      12 -> 17         0.22645
      12 -> 18        -0.14669
      12 -> 19        -0.17773

 Excited State  11:      Singlet-A      9.7442 eV  127.24 nm  f=0.0031  <S**2>=0.000
      13 -> 18        -0.29130
      13 -> 19        -0.30092
      13 -> 20         0.25762
      13 -> 21         0.49471

 Excited State  12:      Singlet-A     10.0486 eV  123.38 nm  f=0.0755  <S**2>=0.000
      13 -> 19         0.11145
      13 -> 20         0.62020
      13 -> 21        -0.23716

 Excited State  13:      Singlet-A     10.0966 eV  122.80 nm  f=0.0266  <S**2>=0.000
      11 -> 15        -0.28654
      11 -> 17        -0.14363
      12 -> 15         0.21136
      12 -> 16         0.49025
      12 -> 17         0.11556
      12 -> 18         0.18985
      12 -> 20         0.10511
      13 -> 20        -0.10654

 Excited State  14:      Singlet-A     10.1444 eV  122.22 nm  f=0.2465  <S**2>=0.000
      11 -> 15         0.46829
      11 -> 17         0.16822
      12 -> 15        -0.21381
      12 -> 16         0.36307
      12 -> 18         0.13983
      12 -> 19        -0.12218

 Excited State  15:      Singlet-A     10.3174 eV  120.17 nm  f=0.0125  <S**2>=0.000
       9 -> 15         0.16607
      10 -> 15         0.46035
      11 -> 16        -0.12103
      11 -> 19         0.11418
      12 -> 15         0.15112
      12 -> 17        -0.11431
      12 -> 19         0.26367
      12 -> 20         0.12679

 The electronic state is 1-A.
 Alpha  occ. eigenvalues --   -1.93283  -1.21581  -0.95418  -0.81423  -0.80010
 Alpha  occ. eigenvalues --   -0.68583  -0.64579  -0.54949  -0.53365  -0.43489
 Alpha  occ. eigenvalues --   -0.42553  -0.40483  -0.29543
 Alpha virt. eigenvalues --    0.12582   0.19630   0.21775   0.26099   0.28362
 Alpha virt. eigenvalues --    0.29385   0.31113   0.31729   0.33905   0.43234
 Alpha virt. eigenvalues --    0.46894

 Mulliken charges:
               1
     1  C   -0.165944
     2  C   -1.977560
     3  O    3.182623
     4  C   -2.016856
     5  C   -0.240314
     6  H    0.257115
     7  H    0.361850
     8  H    0.346016
     9  H    0.253069
 Sum of Mulliken charges =   0.00000

 Dipole moment (field-independent basis, Debye):
    X=              0.0606    Y=            -10.6581    Z=              0.7115  Tot=             10.6820
 N-N= 1.044621051228D+02 E-N=-1.698699766563D+02  KE=-1.551969596885D+01
 Orbital energies and kinetic energies (alpha):
                                 1                 2
   1         O                -1.932832         -1.367826
   2         O                -1.215810         -1.087047
   3         O                -0.954183         -0.880104
   4         O                -0.814229         -0.607587
   5         O                -0.800098         -0.673545
   6         O                -0.685829         -0.577317
   7         O                -0.645789         -0.526418

 Normal termination of Gaussian 09 at Tue Dec 15 17:07:23 2015.
