 Gaussian 09, Revision D.01,
 Gaussian 09:  ES64L-G09RevD.01 24-Apr-2013

 ------------------------------------------------------------
 #P AM1(Input,print) CIS(Singlets,NStates=15) pop(full) force
 ------------------------------------------------------------

 -----------------
 AM1-Reparam Input
 -----------------
 Symbolic Z-matrix:
 Charge =  0 Multiplicity = 1

                         Standard orientation:
 ---------------------------------------------------------------------
 Center     Atomic      Atomic             Coordinates (Angstroms)
 Number     Number       Type             X           Y           Z
 ---------------------------------------------------------------------
      1          6           0        0.906798    0.776835   -0.013504
      2          6           0        1.034385   -0.574751    0.020855
      3          8           0       -0.305036   -1.109669   -0.002194
      4          6           0       -1.147473   -0.105361   -0.002074
      5          6           0       -0.458687    1.060529   -0.015200
      6          1           0       -0.909003    2.133576    0.071905
      7          1           0       -2.221451   -0.316488    0.014679
      8          1           0        1.834847   -1.276483   -0.028184
      9          1           0        1.725766    1.393239    0.018693
 ---------------------------------------------------------------------

 SCF Done:  E(RAM1) =  -4.40553291863     A.U. after   14 cycles

 Excitation energies and oscillator strengths:

 Excited State   1:      Singlet-A      6.8663 eV  180.57 nm  f=0.3257  <S**2>=0.000
      13 -> 14         0.68965
 This state for optimization and/or second-order correction.
 Total Energy, E(CIS) =  -4.15320199091
 Copying the excited state density for this state as the 1-particle RhoCI density.

 Excited State   2:      Singlet-A      8.1584 eV  151.97 nm  f=0.0062  <S**2>=0.000
      12 -> 14         0.45135
      13 -> 15         0.50273
      13 -> 18        -0.10599

 Excited State   3:      Singlet-A      8.2132 eV  150.96 nm  f=0.0057  <S**2>=0.000
      11 -> 14         0.10996
      12 -> 14         0.51310
      13 -> 15        -0.43776

 Excited State   4:      Singlet-A      8.7561 eV  141.60 nm  f=0.0050  <S**2>=0.000
      11 -> 14         0.68030
      12 -> 14        -0.13188

 Excited State   5:      Singlet-A      9.2212 eV  134.46 nm  f=0.0037  <S**2>=0.000
      13 -> 15         0.11380
      13 -> 16        -0.43575
      13 -> 17         0.47453
      13 -> 18         0.10524
      13 -> 21         0.17686

 Excited State   6:      Singlet-A      9.4478 eV  131.23 nm  f=0.0400  <S**2>=0.000
      10 -> 14        -0.29066
      13 -> 16         0.46672
      13 -> 17         0.43264

 Excited State   7:      Singlet-A     10.1562 eV  122.08 nm  f=0.0034  <S**2>=0.000
      13 -> 18         0.66772
      13 -> 19         0.12899

 Excited State   8:      Singlet-A     10.5749 eV  117.24 nm  f=0.0513  <S**2>=0.000
      10 -> 14        -0.13313
      10 -> 17        -0.10048
      13 -> 15        -0.11585
      13 -> 19         0.64449

 Excited State   9:      Singlet-A     10.6722 eV  116.18 nm  f=0.2318  <S**2>=0.000
      10 -> 14         0.59242
      13 -> 16         0.23804
      13 -> 17         0.14935
      13 -> 19         0.12532

 Excited State  10:      Singlet-A     10.7738 eV  115.08 nm  f=0.0061  <S**2>=0.000
      10 -> 15        -0.16585
      13 -> 17        -0.10660
      13 -> 20         0.39050
      13 -> 21         0.34663
      13 -> 22         0.38344

 Excited State  11:      Singlet-A     11.2404 eV  110.30 nm  f=0.0977  <S**2>=0.000
      10 -> 14         0.10059
      12 -> 15         0.58082
      12 -> 18         0.14932
      12 -> 19         0.28627

 Excited State  12:      Singlet-A     11.4559 eV  108.23 nm  f=0.1035  <S**2>=0.000
       8 -> 15         0.14784
       9 -> 15        -0.13779
      10 -> 15        -0.17197
      11 -> 15         0.36487
      11 -> 18        -0.18356
      12 -> 15        -0.16113
      12 -> 17         0.12780
      12 -> 18         0.37078
      12 -> 19         0.12992

 Excited State  13:      Singlet-A     11.5655 eV  107.20 nm  f=0.0031  <S**2>=0.000
      10 -> 15        -0.13083
      13 -> 20         0.50648
      13 -> 21        -0.34810
      13 -> 22        -0.21473
      13 -> 23         0.15190

 Excited State  14:      Singlet-A     11.6912 eV  106.05 nm  f=0.0164  <S**2>=0.000
      10 -> 15         0.52911
      10 -> 17        -0.10284
      10 -> 18        -0.12044
      10 -> 19         0.10862
      12 -> 15        -0.14001
      12 -> 18         0.15522
      13 -> 20         0.22498
      13 -> 21         0.12810
      13 -> 22        -0.13334

 Excited State  15:      Singlet-A     11.8262 eV  104.84 nm  f=0.2779  <S**2>=0.000
       8 -> 15        -0.12706
      10 -> 16        -0.10496
      11 -> 15        -0.24675
      11 -> 19        -0.10781
      12 -> 15        -0.21304
      12 -> 16         0.21293
      12 -> 17        -0.25020
      12 -> 18         0.31717
      12 -> 19         0.20403
      12 -> 21        -0.15570

 The electronic state is 1-A.
 Alpha  occ. eigenvalues --   -2.97803  -1.14440  -0.88894  -0.84600  -0.81170
 Alpha  occ. eigenvalues --   -0.79515  -0.70506  -0.59616  -0.57338  -0.49346
 Alpha  occ. eigenvalues --   -0.47748  -0.45809  -0.34538
 Alpha virt. eigenvalues --    0.12871   0.18984   0.23381   0.23678   0.27396
 Alpha virt. eigenvalues --    0.28206   0.31958   0.34976   0.36309   0.37702
 Alpha virt. eigenvalues --    0.41732

 Mulliken charges:
               1
     1  C   -0.118822
     2  C   -1.473792
     3  O    2.712491
     4  C   -1.494767
     5  C   -0.200079
     6  H    0.109613
     7  H    0.186848
     8  H    0.158407
     9  H    0.120101
 Sum of Mulliken charges =   0.00000

 Dipole moment (field-independent basis, Debye):
    X=             -2.9905    Y=             -9.1378    Z=             -0.0989  Tot=              9.6152
 N-N= 1.021406534312D+02 E-N=-1.693710601976D+02  KE=-2.149484868225D+01
 Orbital energies and kinetic energies (alpha):
                                 1                 2
   1         O                -2.978031         -2.380501
   2         O                -1.144400         -1.110282
   3         O                -0.888944         -0.774151
   4         O                -0.845997         -0.908761
   5         O                -0.811699         -0.803543
   6         O                -0.795154         -0.881374
   7         O                -0.705060         -0.723302

 Normal termination of Gaussian 09 at Fri Dec 11 13:41:42 2015.
