 Gaussian 09, Revision D.01,
 Gaussian 09:  ES64L-G09RevD.01 24-Apr-2013

 ------------------------------------------------------------
 #P AM1(Input,print) CIS(Singlets,NStates=15) pop(full) force
 ------------------------------------------------------------

 -----------------
 AM1-Reparam Input
 -----------------
 Symbolic Z-matrix:
 Charge =  0 Multiplicity = 1

                         Standard orientation:
 ---------------------------------------------------------------------
 Center     Atomic      Atomic             Coordinates (Angstroms)
 Number     Number       Type             X           Y           Z
 ---------------------------------------------------------------------
      1          6           0       -0.876845    0.810863    0.003037
      2          6           0       -1.038661   -0.488756    0.018427
      3          8           0        0.198093   -1.086035   -0.031322
      4          6           0        1.112108   -0.203469    0.036920
      5          6           0        0.596026    1.014068   -0.009220
      6          1           0        1.077561    1.972741   -0.017671
      7          1           0        2.108694   -0.511949   -0.013008
      8          1           0       -1.906568   -1.134547    0.030369
      9          1           0       -1.620199    1.565802   -0.044097
 ---------------------------------------------------------------------

 SCF Done:  E(RAM1) =   1.40651257350     A.U. after   13 cycles

 Excitation energies and oscillator strengths:

 Excited State   1:      Singlet-A      5.6066 eV  221.14 nm  f=0.3229  <S**2>=0.000
      13 -> 14         0.69347
 This state for optimization and/or second-order correction.
 Total Energy, E(CIS) =   1.61255048079
 Copying the excited state density for this state as the 1-particle RhoCI density.

 Excited State   2:      Singlet-A      5.8038 eV  213.62 nm  f=0.0009  <S**2>=0.000
      13 -> 15         0.67418
      13 -> 17         0.13577

 Excited State   3:      Singlet-A      6.3294 eV  195.88 nm  f=0.0009  <S**2>=0.000
      11 -> 16        -0.10068
      13 -> 16         0.65216
      13 -> 17         0.10793
      13 -> 18        -0.10968
      13 -> 21        -0.17267

 Excited State   4:      Singlet-A      7.0503 eV  175.86 nm  f=0.0000  <S**2>=0.000
      12 -> 14         0.68847

 Excited State   5:      Singlet-A      7.4386 eV  166.68 nm  f=0.0033  <S**2>=0.000
      13 -> 16        -0.17492
      13 -> 17         0.42743
      13 -> 18        -0.35962
      13 -> 21        -0.26994
      13 -> 22         0.24451

 Excited State   6:      Singlet-A      7.5606 eV  163.99 nm  f=0.0043  <S**2>=0.000
      13 -> 15        -0.14548
      13 -> 17         0.51514
      13 -> 18         0.24269
      13 -> 21         0.29883
      13 -> 22        -0.19869

 Excited State   7:      Singlet-A      8.3848 eV  147.87 nm  f=0.0043  <S**2>=0.000
      10 -> 14         0.47629
      11 -> 14         0.28596
      13 -> 19        -0.30381
      13 -> 20         0.23225
      13 -> 22         0.13622

 Excited State   8:      Singlet-A      8.4457 eV  146.80 nm  f=0.0025  <S**2>=0.000
      10 -> 14         0.22256
      11 -> 14         0.11447
      13 -> 17         0.10785
      13 -> 18         0.42844
      13 -> 20        -0.24105
      13 -> 21        -0.40126

 Excited State   9:      Singlet-A      8.5762 eV  144.57 nm  f=0.0156  <S**2>=0.000
      10 -> 14         0.44529
      11 -> 14        -0.21801
      13 -> 18        -0.22960
      13 -> 19         0.32863
      13 -> 20        -0.12085
      13 -> 22        -0.22673

 Excited State  10:      Singlet-A      8.5897 eV  144.34 nm  f=0.0174  <S**2>=0.000
      11 -> 14         0.43280
      13 -> 18        -0.21440
      13 -> 20        -0.40276
      13 -> 21         0.11693
      13 -> 22        -0.22886

 Excited State  11:      Singlet-A      9.0092 eV  137.62 nm  f=0.0648  <S**2>=0.000
      11 -> 14         0.10671
      11 -> 15         0.15399
      11 -> 16        -0.10166
      13 -> 19         0.29687
      13 -> 20        -0.17125
      13 -> 21         0.26951
      13 -> 22         0.48415

 Excited State  12:      Singlet-A      9.2822 eV  133.57 nm  f=0.0089  <S**2>=0.000
       7 -> 15        -0.10932
      11 -> 15         0.62583
      13 -> 19        -0.14434
      13 -> 22        -0.10995

 Excited State  13:      Singlet-A      9.4175 eV  131.65 nm  f=0.1318  <S**2>=0.000
       8 -> 15         0.15763
      11 -> 14        -0.11192
      12 -> 15         0.55126
      12 -> 16        -0.28186
      12 -> 18         0.14752

 Excited State  14:      Singlet-A      9.4970 eV  130.55 nm  f=0.1572  <S**2>=0.000
      11 -> 14         0.31689
      11 -> 15         0.10151
      13 -> 19         0.39465
      13 -> 20         0.38792
      13 -> 21        -0.12218
      13 -> 22        -0.13782

 Excited State  15:      Singlet-A      9.7073 eV  127.72 nm  f=0.1222  <S**2>=0.000
       8 -> 16        -0.14138
      10 -> 15         0.10085
      10 -> 17         0.11966
      11 -> 14        -0.15504
      11 -> 16        -0.16497
      12 -> 15         0.29449
      12 -> 16         0.48983
      12 -> 18        -0.10333
      12 -> 21        -0.10850

 The electronic state is 1-A.
 Alpha  occ. eigenvalues --   -1.92650  -1.19288  -0.99024  -0.80342  -0.76962
 Alpha  occ. eigenvalues --   -0.68598  -0.64123  -0.51585  -0.47629  -0.41805
 Alpha  occ. eigenvalues --   -0.38807  -0.37304  -0.24044
 Alpha virt. eigenvalues --    0.16418   0.20217   0.22433   0.28916   0.30802
 Alpha virt. eigenvalues --    0.32059   0.32947   0.33553   0.34285   0.41901
 Alpha virt. eigenvalues --    0.48143

 Mulliken charges:
               1
     1  C   -0.026404
     2  C   -1.540672
     3  O    2.803268
     4  C   -1.566912
     5  C   -0.153668
     6  H    0.073543
     7  H    0.184929
     8  H    0.161085
     9  H    0.064832
 Sum of Mulliken charges =   0.00000

 Dipole moment (field-independent basis, Debye):
    X=              1.7528    Y=             -8.9386    Z=             -0.7353  Tot=              9.1385
 N-N= 1.045654181627D+02 E-N=-1.715045680851D+02  KE=-1.597001284585D+01
 Orbital energies and kinetic energies (alpha):
                                 1                 2
   1         O                -1.926497         -1.432170
   2         O                -1.192876         -1.064770
   3         O                -0.990243         -0.892581
   4         O                -0.803420         -0.637086
   5         O                -0.769616         -0.714214
   6         O                -0.685985         -0.606534
   7         O                -0.641228         -0.549986

 Normal termination of Gaussian 09 at Tue Dec 15 17:08:04 2015.
