 Gaussian 09, Revision D.01,
 Gaussian 09:  ES64L-G09RevD.01 24-Apr-2013

 ------------------------------------------------------------
 #P AM1(Input,print) CIS(Singlets,NStates=15) pop(full) force
 ------------------------------------------------------------

 -----------------
 AM1-Reparam Input
 -----------------
 Symbolic Z-matrix:
 Charge =  0 Multiplicity = 1

                         Standard orientation:
 ---------------------------------------------------------------------
 Center     Atomic      Atomic             Coordinates (Angstroms)
 Number     Number       Type             X           Y           Z
 ---------------------------------------------------------------------
      1          6           0       -0.937434    0.729833   -0.021719
      2          6           0       -0.962978   -0.593631    0.027571
      3          8           0        0.283689   -1.138888   -0.009341
      4          6           0        1.131678   -0.042859    0.014813
      5          6           0        0.467148    1.095240   -0.003600
      6          1           0        0.883264    2.063284    0.038627
      7          1           0        2.221465   -0.377353   -0.046116
      8          1           0       -1.789787   -1.219029   -0.025289
      9          1           0       -1.774941    1.512701    0.005117
 ---------------------------------------------------------------------

 SCF Done:  E(RAM1) =   2.86434226503     A.U. after   13 cycles

 Excitation energies and oscillator strengths:

 Excited State   1:      Singlet-A      5.1407 eV  241.18 nm  f=0.3437  <S**2>=0.000
      13 -> 14         0.69666
 This state for optimization and/or second-order correction.
 Total Energy, E(CIS) =   3.05326059042
 Copying the excited state density for this state as the 1-particle RhoCI density.

 Excited State   2:      Singlet-A      5.9983 eV  206.70 nm  f=0.0001  <S**2>=0.000
      13 -> 15         0.66316
      13 -> 17        -0.11897
      13 -> 19        -0.11440

 Excited State   3:      Singlet-A      6.3343 eV  195.73 nm  f=0.0029  <S**2>=0.000
      13 -> 16         0.65207
      13 -> 17        -0.11385
      13 -> 18         0.17397

 Excited State   4:      Singlet-A      6.5856 eV  188.27 nm  f=0.0002  <S**2>=0.000
      12 -> 14         0.69733

 Excited State   5:      Singlet-A      7.4399 eV  166.65 nm  f=0.0045  <S**2>=0.000
      13 -> 15         0.14338
      13 -> 17         0.48060
      13 -> 18         0.32884
      13 -> 19         0.12674
      13 -> 20        -0.16433
      13 -> 21        -0.27396

 Excited State   6:      Singlet-A      7.7256 eV  160.49 nm  f=0.0122  <S**2>=0.000
      10 -> 14        -0.28271
      11 -> 14        -0.22234
      13 -> 16         0.16028
      13 -> 17         0.37251
      13 -> 18        -0.35180
      13 -> 20         0.15667
      13 -> 21         0.20977

 Excited State   7:      Singlet-A      7.8964 eV  157.01 nm  f=0.0004  <S**2>=0.000
      10 -> 14         0.45682
      11 -> 14         0.38059
      13 -> 17         0.29296
      13 -> 18        -0.18733
      13 -> 21         0.10054

 Excited State   8:      Singlet-A      8.3667 eV  148.19 nm  f=0.0039  <S**2>=0.000
      13 -> 19         0.66101
      13 -> 20         0.14710
      13 -> 21         0.12434

 Excited State   9:      Singlet-A      8.6385 eV  143.53 nm  f=0.0643  <S**2>=0.000
       8 -> 15         0.10044
      10 -> 14        -0.40562
      11 -> 14         0.49503
      12 -> 15         0.22258

 Excited State  10:      Singlet-A      8.7243 eV  142.11 nm  f=0.0213  <S**2>=0.000
      13 -> 18         0.43005
      13 -> 19        -0.12132
      13 -> 20         0.31302
      13 -> 21         0.42031

 Excited State  11:      Singlet-A      9.0217 eV  137.43 nm  f=0.1280  <S**2>=0.000
       8 -> 15         0.13559
      10 -> 14         0.11022
      10 -> 17         0.11893
      11 -> 14        -0.14211
      12 -> 15         0.47527
      12 -> 16        -0.28764
      12 -> 17        -0.11089
      12 -> 18        -0.21570

 Excited State  12:      Singlet-A      9.2419 eV  134.15 nm  f=0.0706  <S**2>=0.000
      13 -> 20         0.56260
      13 -> 21        -0.40618

 Excited State  13:      Singlet-A      9.4931 eV  130.60 nm  f=0.1010  <S**2>=0.000
       9 -> 15         0.10480
      10 -> 14         0.11062
      10 -> 15         0.11393
      10 -> 17        -0.14834
      11 -> 14        -0.12689
      11 -> 15         0.21421
      11 -> 17        -0.13531
      12 -> 15         0.35981
      12 -> 16         0.35889
      12 -> 18         0.24166

 Excited State  14:      Singlet-A      9.7955 eV  126.57 nm  f=0.0503  <S**2>=0.000
      10 -> 15        -0.22463
      11 -> 15         0.38792
      11 -> 16         0.17479
      11 -> 17        -0.13004
      12 -> 16        -0.35475
      12 -> 17         0.13432
      12 -> 18         0.10270
      12 -> 20        -0.13651

 Excited State  15:      Singlet-A      9.8266 eV  126.17 nm  f=0.0805  <S**2>=0.000
      10 -> 15         0.34312
      10 -> 16         0.14977
      10 -> 17        -0.16251
      11 -> 15        -0.33005
      12 -> 16        -0.27015
      12 -> 17         0.17980
      12 -> 18         0.14055
      12 -> 20        -0.12150
      13 -> 15        -0.10294

 The electronic state is 1-A.
 Alpha  occ. eigenvalues --   -1.71311  -1.11847  -0.92173  -0.78659  -0.74813
 Alpha  occ. eigenvalues --   -0.65887  -0.63334  -0.52356  -0.49333  -0.42825
 Alpha  occ. eigenvalues --   -0.42564  -0.38631  -0.26712
 Alpha virt. eigenvalues --    0.12439   0.17373   0.19675   0.25927   0.27779
 Alpha virt. eigenvalues --    0.29085   0.30735   0.31801   0.36433   0.45940
 Alpha virt. eigenvalues --    0.49090

 Mulliken charges:
               1
     1  C   -0.158979
     2  C   -1.939424
     3  O    3.198701
     4  C   -1.899002
     5  C   -0.132817
     6  H    0.172188
     7  H    0.278690
     8  H    0.306552
     9  H    0.174091
 Sum of Mulliken charges =   0.00000

 Dipole moment (field-independent basis, Debye):
    X=              2.6437    Y=            -10.6987    Z=             -0.5613  Tot=             11.0347
 N-N= 1.039596345184D+02 E-N=-1.692202758015D+02  KE=-1.476140764572D+01
 Orbital energies and kinetic energies (alpha):
                                 1                 2
   1         O                -1.713106         -1.205235
   2         O                -1.118470         -0.990243
   3         O                -0.921725         -0.855097
   4         O                -0.786594         -0.587422
   5         O                -0.748133         -0.679260
   6         O                -0.658866         -0.557291
   7         O                -0.633336         -0.526644

 Normal termination of Gaussian 09 at Tue Dec 15 17:06:08 2015.
