 Gaussian 09, Revision D.01,
 Gaussian 09:  ES64L-G09RevD.01 24-Apr-2013

 ------------------------------------------------------------
 #P AM1(Input,print) CIS(Singlets,NStates=15) pop(full) force
 ------------------------------------------------------------

 -----------------
 AM1-Reparam Input
 -----------------
 Symbolic Z-matrix:
 Charge =  0 Multiplicity = 1

                         Standard orientation:
 ---------------------------------------------------------------------
 Center     Atomic      Atomic             Coordinates (Angstroms)
 Number     Number       Type             X           Y           Z
 ---------------------------------------------------------------------
      1          6           0       -0.970438    0.756641   -0.000216
      2          6           0       -0.964119   -0.659446    0.018662
      3          8           0        0.356775   -1.098251   -0.032885
      4          6           0        1.120594   -0.024233    0.048534
      5          6           0        0.427731    1.087000   -0.030332
      6          1           0        0.845592    2.120693   -0.014245
      7          1           0        2.155566   -0.269430    0.017029
      8          1           0       -1.711403   -1.383731    0.010699
      9          1           0       -1.826562    1.358707    0.029712
 ---------------------------------------------------------------------

 SCF Done:  E(RAM1) =  0.265178076655E-01 A.U. after   13 cycles

 Excitation energies and oscillator strengths:

 Excited State   1:      Singlet-A      4.3970 eV  281.97 nm  f=0.0878  <S**2>=0.000
      12 -> 15         0.20134
      13 -> 14         0.66777
 This state for optimization and/or second-order correction.
 Total Energy, E(CIS) =  0.188105700427
 Copying the excited state density for this state as the 1-particle RhoCI density.

 Excited State   2:      Singlet-A      4.9774 eV  249.10 nm  f=0.0018  <S**2>=0.000
      12 -> 14        -0.11211
      13 -> 15         0.18170
      13 -> 16         0.65361
      13 -> 22         0.10874

 Excited State   3:      Singlet-A      5.0370 eV  246.15 nm  f=0.0052  <S**2>=0.000
      12 -> 14        -0.41713
      13 -> 15         0.52518
      13 -> 16        -0.20786

 Excited State   4:      Singlet-A      5.7293 eV  216.40 nm  f=0.0014  <S**2>=0.000
      12 -> 18         0.17981
      12 -> 20        -0.12624
      13 -> 18         0.52602
      13 -> 20        -0.25510
      13 -> 21        -0.10580
      13 -> 22         0.15147
      13 -> 23         0.15039

 Excited State   5:      Singlet-A      6.0357 eV  205.42 nm  f=0.0152  <S**2>=0.000
       7 -> 16        -0.17847
      12 -> 14         0.10845
      12 -> 16         0.63308
      12 -> 22         0.11837

 Excited State   6:      Singlet-A      6.1351 eV  202.09 nm  f=0.3005  <S**2>=0.000
      12 -> 14         0.48553
      12 -> 15         0.15227
      12 -> 16        -0.14086
      13 -> 15         0.38867
      13 -> 19         0.10126

 Excited State   7:      Singlet-A      6.2299 eV  199.02 nm  f=0.0163  <S**2>=0.000
      12 -> 19        -0.22010
      12 -> 22        -0.12553
      12 -> 23         0.13458
      13 -> 17         0.20614
      13 -> 19         0.41817
      13 -> 22         0.23709
      13 -> 23        -0.21444

 Excited State   8:      Singlet-A      6.4031 eV  193.63 nm  f=0.1742  <S**2>=0.000
      12 -> 14        -0.11121
      12 -> 15         0.63798
      13 -> 14        -0.18774

 Excited State   9:      Singlet-A      6.5025 eV  190.67 nm  f=0.0051  <S**2>=0.000
      11 -> 14         0.10736
      13 -> 17         0.58321
      13 -> 18         0.17480
      13 -> 19        -0.27392

 Excited State  10:      Singlet-A      6.9836 eV  177.54 nm  f=0.0033  <S**2>=0.000
       9 -> 14         0.26827
      10 -> 14        -0.23846
      11 -> 14         0.40654
      11 -> 15         0.21185
      12 -> 17         0.24458
      12 -> 18         0.17306

 Excited State  11:      Singlet-A      7.0239 eV  176.52 nm  f=0.0047  <S**2>=0.000
       9 -> 14        -0.13836
      10 -> 14         0.13408
      11 -> 14        -0.24137
      11 -> 15        -0.13914
      12 -> 17         0.43206
      12 -> 18         0.19705
      12 -> 19        -0.16524
      12 -> 20        -0.14693
      12 -> 21         0.13644
      12 -> 23        -0.14293
      13 -> 18        -0.12287
      13 -> 19        -0.12817
      13 -> 22         0.11044

 Excited State  12:      Singlet-A      7.3848 eV  167.89 nm  f=0.0031  <S**2>=0.000
       9 -> 15        -0.10549
      10 -> 14         0.49573
      10 -> 15        -0.32315
      11 -> 14         0.27852
      13 -> 22         0.10971

 Excited State  13:      Singlet-A      7.4186 eV  167.13 nm  f=0.0032  <S**2>=0.000
      11 -> 15        -0.12176
      12 -> 17         0.23259
      12 -> 18        -0.27271
      12 -> 19         0.19708
      12 -> 20        -0.13471
      12 -> 21         0.15648
      12 -> 23        -0.15769
      13 -> 18         0.16365
      13 -> 19         0.32823
      13 -> 21         0.22720
      13 -> 22        -0.13292

 Excited State  14:      Singlet-A      7.5158 eV  164.96 nm  f=0.0014  <S**2>=0.000
      10 -> 14         0.12894
      12 -> 18         0.31766
      12 -> 19         0.25386
      12 -> 22         0.20362
      13 -> 17         0.16599
      13 -> 18        -0.19611
      13 -> 19         0.17714
      13 -> 20        -0.20139
      13 -> 21         0.13087
      13 -> 22        -0.20681
      13 -> 24         0.20872

 Excited State  15:      Singlet-A      7.6542 eV  161.98 nm  f=0.0020  <S**2>=0.000
      12 -> 18        -0.15186
      12 -> 19         0.23996
      12 -> 20         0.10222
      12 -> 22         0.16493
      13 -> 18        -0.15318
      13 -> 21         0.11062
      13 -> 22         0.50004
      13 -> 23         0.18464

 The electronic state is 1-A.
 Alpha  occ. eigenvalues --   -1.57588  -1.23584  -1.10311  -0.83149  -0.81218
 Alpha  occ. eigenvalues --   -0.68893  -0.60740  -0.56841  -0.51421  -0.50434
 Alpha  occ. eigenvalues --   -0.49344  -0.39364  -0.34585
 Alpha virt. eigenvalues --    0.02847   0.06382   0.09982   0.14139   0.14323
 Alpha virt. eigenvalues --    0.15940   0.17777   0.18227   0.19089   0.20759
 Alpha virt. eigenvalues --    0.22476

 Mulliken charges:
               1
     1  C   -0.181923
     2  C   -0.124554
     3  O   -0.078566
     4  C   -0.079106
     5  C   -0.219986
     6  H    0.157262
     7  H    0.177986
     8  H    0.186272
     9  H    0.162614
 Sum of Mulliken charges =   0.00000

 Dipole moment (field-independent basis, Debye):
    X=             -0.1175    Y=              0.3365    Z=              0.0304  Tot=              0.3577
 N-N= 1.036349435304D+02 E-N=-1.712845549784D+02  KE=-1.658282744851D+01
 Orbital energies and kinetic energies (alpha):
                                 1                 2
   1         O                -1.575883         -1.319293
   2         O                -1.235835         -1.050570
   3         O                -1.103111         -0.963517
   4         O                -0.831494         -0.715658
   5         O                -0.812178         -0.718956
   6         O                -0.688931         -0.604425
   7         O                -0.607405         -0.490066

 Normal termination of Gaussian 09 at Tue Dec 15 16:14:41 2015.
