 Gaussian 09, Revision D.01,
 Gaussian 09:  ES64L-G09RevD.01 24-Apr-2013

 ------------------------------------------------------------
 #P AM1(Input,print) CIS(Singlets,NStates=15) pop(full) force
 ------------------------------------------------------------

 -----------------
 AM1-Reparam Input
 -----------------
 Symbolic Z-matrix:
 Charge =  0 Multiplicity = 1

                         Standard orientation:
 ---------------------------------------------------------------------
 Center     Atomic      Atomic             Coordinates (Angstroms)
 Number     Number       Type             X           Y           Z
 ---------------------------------------------------------------------
      1          6           0       -0.716696    0.974194   -0.001533
      2          6           0       -1.107298   -0.366008   -0.010851
      3          8           0       -0.014993   -1.126145    0.021393
      4          6           0        1.125713   -0.343801   -0.025532
      5          6           0        0.713331    0.902906    0.003358
      6          1           0        1.455381    1.817331    0.048706
      7          1           0        2.036707   -0.850826   -0.004192
      8          1           0       -2.092884   -0.817018   -0.011359
      9          1           0       -1.369558    1.855927    0.003043
 ---------------------------------------------------------------------

 SCF Done:  E(RAM1) =   1.10296370088     A.U. after   14 cycles

 Excitation energies and oscillator strengths:

 Excited State   1:      Singlet-A      5.4865 eV  225.98 nm  f=0.2040  <S**2>=0.000
      12 -> 16        -0.12487
      13 -> 14         0.67968
 This state for optimization and/or second-order correction.
 Total Energy, E(CIS) =   1.30458959333
 Copying the excited state density for this state as the 1-particle RhoCI density.

 Excited State   2:      Singlet-A      6.3157 eV  196.31 nm  f=0.0048  <S**2>=0.000
      13 -> 15         0.62056
      13 -> 16        -0.27679
      13 -> 20         0.14347

 Excited State   3:      Singlet-A      6.9517 eV  178.35 nm  f=0.0095  <S**2>=0.000
      12 -> 14         0.39459
      13 -> 15         0.22825
      13 -> 16         0.52249

 Excited State   4:      Singlet-A      7.0413 eV  176.08 nm  f=0.0012  <S**2>=0.000
      11 -> 14        -0.26484
      13 -> 17         0.59384
      13 -> 18         0.11408
      13 -> 21         0.16259

 Excited State   5:      Singlet-A      7.0856 eV  174.98 nm  f=0.0027  <S**2>=0.000
       9 -> 14        -0.12861
      11 -> 14         0.59196
      12 -> 14         0.13606
      13 -> 16        -0.12241
      13 -> 17         0.27132

 Excited State   6:      Singlet-A      7.8467 eV  158.01 nm  f=0.0100  <S**2>=0.000
       9 -> 14        -0.12822
      10 -> 14         0.61455
      11 -> 14         0.10394
      11 -> 16        -0.17628
      12 -> 14        -0.12185
      13 -> 18        -0.10057

 Excited State   7:      Singlet-A      8.0123 eV  154.74 nm  f=0.1483  <S**2>=0.000
      10 -> 14         0.10730
      11 -> 14        -0.16927
      12 -> 14         0.46079
      13 -> 15        -0.13698
      13 -> 16        -0.24697
      13 -> 18        -0.32366

 Excited State   8:      Singlet-A      8.0514 eV  153.99 nm  f=0.0440  <S**2>=0.000
      10 -> 14         0.16333
      12 -> 14         0.24585
      12 -> 15        -0.18046
      13 -> 16        -0.13995
      13 -> 17        -0.11766
      13 -> 18         0.50696
      13 -> 19        -0.13200
      13 -> 20         0.11982
      13 -> 22        -0.12841

 Excited State   9:      Singlet-A      8.3138 eV  149.13 nm  f=0.0208  <S**2>=0.000
       9 -> 15         0.11176
       9 -> 16         0.14886
      10 -> 14         0.22692
      10 -> 15         0.12342
      10 -> 16         0.15665
      11 -> 15         0.32076
      11 -> 16         0.43453
      12 -> 15         0.16639
      12 -> 16         0.16594

 Excited State  10:      Singlet-A      8.3822 eV  147.91 nm  f=0.0004  <S**2>=0.000
      12 -> 15         0.12607
      13 -> 18         0.12832
      13 -> 19         0.62030
      13 -> 20         0.15801
      13 -> 22         0.11023

 Excited State  11:      Singlet-A      8.5393 eV  145.19 nm  f=0.0074  <S**2>=0.000
      11 -> 15        -0.16354
      12 -> 15         0.56361
      12 -> 16        -0.23599
      13 -> 18         0.10497
      13 -> 19        -0.16116

 Excited State  12:      Singlet-A      8.9479 eV  138.56 nm  f=0.0837  <S**2>=0.000
       9 -> 15         0.17123
       9 -> 16        -0.11893
      10 -> 15         0.20725
      10 -> 16        -0.14657
      11 -> 15         0.37256
      11 -> 16        -0.31606
      11 -> 17         0.20733
      11 -> 19         0.10232
      11 -> 20         0.11561
      13 -> 16        -0.11410

 Excited State  13:      Singlet-A      8.9801 eV  138.07 nm  f=0.2605  <S**2>=0.000
       9 -> 17        -0.15001
      11 -> 15        -0.17255
      11 -> 16        -0.14510
      11 -> 18         0.12576
      12 -> 15         0.17238
      12 -> 16         0.54669
      13 -> 14         0.13870

 Excited State  14:      Singlet-A      9.1719 eV  135.18 nm  f=0.0024  <S**2>=0.000
      11 -> 17        -0.10195
      12 -> 17         0.51599
      13 -> 18         0.15314
      13 -> 20        -0.38704
      13 -> 21        -0.10692

 Excited State  15:      Singlet-A      9.2697 eV  133.75 nm  f=0.0032  <S**2>=0.000
       9 -> 14         0.64528
      10 -> 14         0.11894
      11 -> 14         0.13667
      12 -> 16         0.10539

 The electronic state is 1-A.
 Alpha  occ. eigenvalues --   -1.83553  -1.18313  -0.99973  -0.87141  -0.80517
 Alpha  occ. eigenvalues --   -0.73285  -0.71817  -0.62283  -0.55909  -0.51888
 Alpha  occ. eigenvalues --   -0.48759  -0.47805  -0.38404
 Alpha virt. eigenvalues --    0.03176   0.09312   0.09813   0.11916   0.16772
 Alpha virt. eigenvalues --    0.18849   0.19305   0.21453   0.26268   0.26593
 Alpha virt. eigenvalues --    0.27933

 Mulliken charges:
               1
     1  C   -0.163918
     2  C   -1.276028
     3  O    2.160071
     4  C   -1.246165
     5  C   -0.131208
     6  H    0.132433
     7  H    0.191795
     8  H    0.215853
     9  H    0.117167
 Sum of Mulliken charges =   0.00000

 Dipole moment (field-independent basis, Debye):
    X=             -0.1454    Y=             -6.7455    Z=              0.3987  Tot=              6.7588
 N-N= 1.042871931127D+02 E-N=-1.710222181994D+02  KE=-1.495333014320D+01
 Orbital energies and kinetic energies (alpha):
                                 1                 2
   1         O                -1.835530         -1.250584
   2         O                -1.183128         -0.949554
   3         O                -0.999731         -0.811968
   4         O                -0.871408         -0.627442
   5         O                -0.805171         -0.680945
   6         O                -0.732849         -0.580440
   7         O                -0.718167         -0.517529

 Normal termination of Gaussian 09 at Tue Dec 15 17:05:34 2015.
