 Gaussian 09, Revision D.01,
 Gaussian 09:  ES64L-G09RevD.01 24-Apr-2013

 ------------------------------------------------------------
 #P AM1(Input,print) CIS(Singlets,NStates=15) pop(full) force
 ------------------------------------------------------------

 -----------------
 AM1-Reparam Input
 -----------------
 Symbolic Z-matrix:
 Charge =  0 Multiplicity = 1

                         Standard orientation:
 ---------------------------------------------------------------------
 Center     Atomic      Atomic             Coordinates (Angstroms)
 Number     Number       Type             X           Y           Z
 ---------------------------------------------------------------------
      1          6           0       -0.885000    0.851222   -0.017525
      2          6           0       -1.028314   -0.529937    0.024752
      3          8           0        0.176282   -1.125813   -0.025403
      4          6           0        1.140646   -0.185201    0.009596
      5          6           0        0.603293    1.036301    0.004514
      6          1           0        1.084755    1.957468   -0.002401
      7          1           0        2.141008   -0.531214    0.041122
      8          1           0       -1.941124   -1.084861    0.040854
      9          1           0       -1.678640    1.630808   -0.004370
 ---------------------------------------------------------------------

 SCF Done:  E(RAM1) =   1.81528585706     A.U. after   14 cycles

 Excitation energies and oscillator strengths:

 Excited State   1:      Singlet-A      5.4238 eV  228.59 nm  f=0.3568  <S**2>=0.000
      13 -> 14         0.69424
 This state for optimization and/or second-order correction.
 Total Energy, E(CIS) =   2.01460634973
 Copying the excited state density for this state as the 1-particle RhoCI density.

 Excited State   2:      Singlet-A      6.4669 eV  191.72 nm  f=0.0012  <S**2>=0.000
      12 -> 14         0.69210
      13 -> 16         0.10110

 Excited State   3:      Singlet-A      6.5147 eV  190.32 nm  f=0.0031  <S**2>=0.000
      13 -> 15         0.64964
      13 -> 16         0.14725
      13 -> 17        -0.16022

 Excited State   4:      Singlet-A      6.5349 eV  189.73 nm  f=0.0019  <S**2>=0.000
      13 -> 15        -0.14771
      13 -> 16         0.63273
      13 -> 17        -0.10356
      13 -> 18         0.16339
      13 -> 19        -0.12638

 Excited State   5:      Singlet-A      7.8112 eV  158.73 nm  f=0.0051  <S**2>=0.000
      11 -> 14         0.68478
      13 -> 17        -0.12884

 Excited State   6:      Singlet-A      7.9077 eV  156.79 nm  f=0.0000  <S**2>=0.000
      13 -> 16        -0.13207
      13 -> 18         0.59100
      13 -> 20         0.15270
      13 -> 21        -0.28952

 Excited State   7:      Singlet-A      8.2437 eV  150.40 nm  f=0.0065  <S**2>=0.000
      11 -> 14         0.13920
      13 -> 15         0.11686
      13 -> 16         0.11725
      13 -> 17         0.65902

 Excited State   8:      Singlet-A      8.8243 eV  140.50 nm  f=0.0730  <S**2>=0.000
      10 -> 14         0.61605
      12 -> 15        -0.21649
      12 -> 18         0.12679

 Excited State   9:      Singlet-A      8.8737 eV  139.72 nm  f=0.0023  <S**2>=0.000
      13 -> 19         0.67660

 Excited State  10:      Singlet-A      9.0350 eV  137.23 nm  f=0.0764  <S**2>=0.000
      10 -> 14        -0.23222
      11 -> 15         0.11113
      11 -> 17        -0.20288
      12 -> 15        -0.24472
      12 -> 16         0.39220
      12 -> 18         0.31791

 Excited State  11:      Singlet-A      9.3487 eV  132.62 nm  f=0.0219  <S**2>=0.000
      13 -> 18         0.31462
      13 -> 20        -0.42944
      13 -> 21         0.44708

 Excited State  12:      Singlet-A      9.5150 eV  130.30 nm  f=0.0656  <S**2>=0.000
       9 -> 15         0.10597
      10 -> 14         0.13589
      11 -> 15         0.20872
      11 -> 17        -0.10115
      12 -> 15         0.55747
      12 -> 16         0.21197
      12 -> 17        -0.13506
      12 -> 18         0.10156

 Excited State  13:      Singlet-A      9.7357 eV  127.35 nm  f=0.0718  <S**2>=0.000
      10 -> 16        -0.10623
      13 -> 20         0.51743
      13 -> 21         0.44667

 Excited State  14:      Singlet-A      9.8185 eV  126.28 nm  f=0.1648  <S**2>=0.000
      11 -> 15        -0.16638
      11 -> 16        -0.29130
      11 -> 17         0.20053
      12 -> 16         0.45494
      12 -> 18        -0.21332
      12 -> 19        -0.12263
      12 -> 20        -0.12695

 Excited State  15:      Singlet-A     10.0610 eV  123.23 nm  f=0.0464  <S**2>=0.000
       8 -> 16        -0.15130
       9 -> 14         0.15882
       9 -> 15        -0.12741
       9 -> 16        -0.20855
      10 -> 14         0.12191
      10 -> 16        -0.14296
      11 -> 15        -0.12977
      11 -> 16         0.35186
      11 -> 19        -0.22524
      12 -> 17         0.26342
      12 -> 18        -0.14066
      12 -> 20        -0.11505

 The electronic state is 1-A.
 Alpha  occ. eigenvalues --   -1.94658  -1.19607  -0.98741  -0.81709  -0.79707
 Alpha  occ. eigenvalues --   -0.68840  -0.67288  -0.53289  -0.49290  -0.43045
 Alpha  occ. eigenvalues --   -0.42558  -0.38180  -0.27499
 Alpha virt. eigenvalues --    0.12449   0.19185   0.19694   0.26713   0.27895
 Alpha virt. eigenvalues --    0.30041   0.31569   0.33428   0.37198   0.45613
 Alpha virt. eigenvalues --    0.50957

 Mulliken charges:
               1
     1  C   -0.121710
     2  C   -1.954641
     3  O    3.139747
     4  C   -1.915279
     5  C   -0.094797
     6  H    0.155589
     7  H    0.308830
     8  H    0.325008
     9  H    0.157253
 Sum of Mulliken charges =   0.00000

 Dipole moment (field-independent basis, Debye):
    X=              1.5403    Y=             -9.7382    Z=             -0.4622  Tot=              9.8701
 N-N= 1.039938338603D+02 E-N=-1.694258629616D+02  KE=-1.564299420368D+01
 Orbital energies and kinetic energies (alpha):
                                 1                 2
   1         O                -1.946581         -1.423619
   2         O                -1.196074         -1.060881
   3         O                -0.987408         -0.906623
   4         O                -0.817094         -0.629199
   5         O                -0.797070         -0.694600
   6         O                -0.688403         -0.565136
   7         O                -0.672882         -0.573577

 Normal termination of Gaussian 09 at Tue Dec 15 17:10:05 2015.
