 Gaussian 09, Revision D.01,
 Gaussian 09:  ES64L-G09RevD.01 24-Apr-2013

 ------------------------------------------------------------
 #P AM1(Input,print) CIS(Singlets,NStates=15) pop(full) force
 ------------------------------------------------------------

 -----------------
 AM1-Reparam Input
 -----------------
 Symbolic Z-matrix:
 Charge =  0 Multiplicity = 1

                         Standard orientation:
 ---------------------------------------------------------------------
 Center     Atomic      Atomic             Coordinates (Angstroms)
 Number     Number       Type             X           Y           Z
 ---------------------------------------------------------------------
      1          6           0       -0.604638    1.068931   -0.015413
      2          6           0       -1.152340   -0.264023    0.032375
      3          8           0       -0.149541   -1.118586   -0.035039
      4          6           0        1.069541   -0.492961    0.036707
      5          6           0        0.853211    0.849429   -0.018215
      6          1           0        1.528250    1.653489    0.034645
      7          1           0        1.939498   -1.071980    0.000474
      8          1           0       -2.163899   -0.586992    0.032373
      9          1           0       -1.102162    1.985913    0.000107
 ---------------------------------------------------------------------

 SCF Done:  E(RAM1) =   2.48682303731     A.U. after   13 cycles

 Excitation energies and oscillator strengths:

 Excited State   1:      Singlet-A      5.2471 eV  236.29 nm  f=0.3724  <S**2>=0.000
      13 -> 14         0.69720
 This state for optimization and/or second-order correction.
 Total Energy, E(CIS) =   2.67964986031
 Copying the excited state density for this state as the 1-particle RhoCI density.

 Excited State   2:      Singlet-A      6.5190 eV  190.19 nm  f=0.0065  <S**2>=0.000
      13 -> 15         0.65475
      13 -> 17         0.22281

 Excited State   3:      Singlet-A      6.6167 eV  187.38 nm  f=0.0014  <S**2>=0.000
       9 -> 14         0.14111
      12 -> 14         0.68808

 Excited State   4:      Singlet-A      6.8712 eV  180.44 nm  f=0.0024  <S**2>=0.000
      13 -> 16         0.64109
      13 -> 18        -0.22855
      13 -> 19         0.10829

 Excited State   5:      Singlet-A      7.7865 eV  159.23 nm  f=0.0001  <S**2>=0.000
      13 -> 16         0.17159
      13 -> 17         0.24109
      13 -> 18         0.52058
      13 -> 19         0.20027
      13 -> 21        -0.24954

 Excited State   6:      Singlet-A      7.9456 eV  156.04 nm  f=0.0044  <S**2>=0.000
      10 -> 14         0.68843

 Excited State   7:      Singlet-A      8.5339 eV  145.28 nm  f=0.1108  <S**2>=0.000
      11 -> 14         0.68445

 Excited State   8:      Singlet-A      8.6210 eV  143.82 nm  f=0.0101  <S**2>=0.000
      11 -> 15         0.11959
      11 -> 16        -0.12201
      13 -> 15        -0.15729
      13 -> 17         0.58671
      13 -> 18        -0.26511

 Excited State   9:      Singlet-A      9.0865 eV  136.45 nm  f=0.0008  <S**2>=0.000
       9 -> 14         0.11759
      11 -> 15        -0.13418
      13 -> 16        -0.13225
      13 -> 19         0.63326
      13 -> 20         0.11262

 Excited State  10:      Singlet-A      9.4505 eV  131.19 nm  f=0.0011  <S**2>=0.000
       9 -> 14        -0.38361
      12 -> 14         0.10023
      13 -> 18         0.21546
      13 -> 20         0.32346
      13 -> 21         0.41622

 Excited State  11:      Singlet-A      9.5035 eV  130.46 nm  f=0.0425  <S**2>=0.000
       9 -> 14         0.26171
      10 -> 15        -0.12226
      10 -> 16        -0.11390
      10 -> 17        -0.14551
      12 -> 15         0.30915
      12 -> 16        -0.25000
      12 -> 17         0.18952
      12 -> 18         0.28001
      13 -> 21         0.10081

 Excited State  12:      Singlet-A      9.5663 eV  129.61 nm  f=0.0091  <S**2>=0.000
       9 -> 14         0.48448
      12 -> 15        -0.18050
      12 -> 16         0.12142
      12 -> 18        -0.12940
      13 -> 18         0.12550
      13 -> 19        -0.13249
      13 -> 20         0.25477
      13 -> 21         0.22397

 Excited State  13:      Singlet-A      9.8180 eV  126.28 nm  f=0.0172  <S**2>=0.000
      10 -> 15         0.24036
      10 -> 17         0.11322
      12 -> 15         0.50155
      12 -> 16         0.30531
      12 -> 18        -0.16644

 Excited State  14:      Singlet-A      9.8578 eV  125.77 nm  f=0.0923  <S**2>=0.000
      11 -> 15         0.14497
      13 -> 20         0.52116
      13 -> 21        -0.40681

 Excited State  15:      Singlet-A     10.0030 eV  123.95 nm  f=0.1037  <S**2>=0.000
       9 -> 16        -0.11724
      10 -> 15        -0.23057
      10 -> 16        -0.12214
      11 -> 15         0.35653
      12 -> 16         0.43447
      12 -> 19         0.13763

 The electronic state is 1-A.
 Alpha  occ. eigenvalues --   -1.74109  -1.13935  -0.95846  -0.81344  -0.76792
 Alpha  occ. eigenvalues --   -0.68156  -0.64315  -0.57449  -0.50007  -0.46439
 Alpha  occ. eigenvalues --   -0.44747  -0.41837  -0.30252
 Alpha virt. eigenvalues --    0.09082   0.17338   0.18699   0.24631   0.25954
 Alpha virt. eigenvalues --    0.27550   0.29615   0.29951   0.40754   0.49003
 Alpha virt. eigenvalues --    0.55232

 Mulliken charges:
               1
     1  C   -0.105080
     2  C   -1.984181
     3  O    3.242991
     4  C   -1.930677
     5  C   -0.021250
     6  H    0.123155
     7  H    0.264970
     8  H    0.281135
     9  H    0.128938
 Sum of Mulliken charges =   0.00000

 Dipole moment (field-independent basis, Debye):
    X=             -1.1523    Y=             -9.3736    Z=             -0.9762  Tot=              9.4945
 N-N= 1.034264275002D+02 E-N=-1.679654473546D+02  KE=-1.500922359150D+01
 Orbital energies and kinetic energies (alpha):
                                 1                 2
   1         O                -1.741092         -1.238238
   2         O                -1.139348         -0.995187
   3         O                -0.958461         -0.849778
   4         O                -0.813445         -0.625705
   5         O                -0.767919         -0.697159
   6         O                -0.681558         -0.583022
   7         O                -0.643155         -0.511589

 Normal termination of Gaussian 09 at Tue Dec 15 17:06:16 2015.
