 Gaussian 09, Revision D.01,
 Gaussian 09:  ES64L-G09RevD.01 24-Apr-2013

 -------------------------------------------------------
 #P B3LYP/3-21G CIS(Singlets,NStates=15) pop(full) force
 -------------------------------------------------------

 --------
 FuranDFT
 --------
 Symbolic Z-matrix:
 Charge =  0 Multiplicity = 1

                         Standard orientation:
 ---------------------------------------------------------------------
 Center     Atomic      Atomic             Coordinates (Angstroms)
 Number     Number       Type             X           Y           Z
 ---------------------------------------------------------------------
      1          6           0       -1.032729    0.572104    0.000414
      2          6           0       -0.867807   -0.779098    0.021517
      3          8           0        0.523989   -1.052383   -0.018254
      4          6           0        1.173568    0.160036    0.029286
      5          6           0        0.178627    1.165936   -0.031989
      6          1           0        0.403013    2.173500    0.036660
      7          1           0        2.222840    0.172623    0.001934
      8          1           0       -1.443409   -1.672987   -0.025621
      9          1           0       -2.084308    1.032058    0.017688
 ---------------------------------------------------------------------

 SCF Done:  E(RB3LYP) =  -228.737420176     A.U. after   14 cycles

 Excitation energies and oscillator strengths:

 Excited State   1:      Singlet-A      6.8232 eV  181.71 nm  f=0.2322  <S**2>=0.000
      18 -> 19         0.67243
 This state for optimization and/or second-order correction.
 Total Energy, E(CIS) =  -228.486671793
 Copying the excited state density for this state as the 1-particle RhoCI density.

 Excited State   2:      Singlet-A      7.1464 eV  173.49 nm  f=0.0083  <S**2>=0.000
      17 -> 19         0.52202
      18 -> 20        -0.45290

 Excited State   3:      Singlet-A      7.9821 eV  155.33 nm  f=0.0002  <S**2>=0.000
      18 -> 21         0.69786

 Excited State   4:      Singlet-A      8.2281 eV  150.68 nm  f=0.0041  <S**2>=0.000
      16 -> 19         0.70234

 Excited State   5:      Singlet-A      8.9954 eV  137.83 nm  f=0.0020  <S**2>=0.000
      18 -> 22         0.68332

 Excited State   6:      Singlet-A      9.4288 eV  131.50 nm  f=0.4337  <S**2>=0.000
      17 -> 19         0.39255
      17 -> 21        -0.18887
      18 -> 20         0.46549
      18 -> 23         0.14714

 Excited State   7:      Singlet-A      9.5611 eV  129.68 nm  f=0.0180  <S**2>=0.000
      15 -> 19         0.58447
      16 -> 20         0.10257
      17 -> 21        -0.21715
      18 -> 23         0.26338

 Excited State   8:      Singlet-A      9.6426 eV  128.58 nm  f=0.0524  <S**2>=0.000
      15 -> 19        -0.35080
      17 -> 19        -0.12993
      17 -> 21        -0.34969
      18 -> 20        -0.14898
      18 -> 23         0.41382

 Excited State   9:      Singlet-A      9.6893 eV  127.96 nm  f=0.0036  <S**2>=0.000
      17 -> 21         0.53167
      18 -> 23         0.44370

 Excited State  10:      Singlet-A     10.0790 eV  123.01 nm  f=0.2032  <S**2>=0.000
      17 -> 20         0.66812

 Excited State  11:      Singlet-A     10.1732 eV  121.87 nm  f=0.0023  <S**2>=0.000
      18 -> 24         0.66675
      18 -> 25        -0.14242

 Excited State  12:      Singlet-A     10.2693 eV  120.73 nm  f=0.0067  <S**2>=0.000
      13 -> 19         0.10170
      14 -> 19         0.68380

 Excited State  13:      Singlet-A     10.5992 eV  116.98 nm  f=0.0050  <S**2>=0.000
      17 -> 22        -0.33641
      18 -> 24         0.14813
      18 -> 25         0.58584

 Excited State  14:      Singlet-A     10.6152 eV  116.80 nm  f=0.0035  <S**2>=0.000
      12 -> 19         0.15879
      17 -> 22         0.58105
      18 -> 25         0.32934
      18 -> 26        -0.10381

 Excited State  15:      Singlet-A     10.7015 eV  115.86 nm  f=0.0032  <S**2>=0.000
      12 -> 19        -0.21735
      15 -> 19        -0.10350
      16 -> 20         0.65613

 The electronic state is 1-A.
 Alpha  occ. eigenvalues --  -19.10989 -10.17756 -10.17391 -10.13015 -10.11997
 Alpha  occ. eigenvalues --   -1.10411  -0.81278  -0.73933  -0.59280  -0.58077
 Alpha  occ. eigenvalues --   -0.53839  -0.44880  -0.43652  -0.42394  -0.39932
 Alpha  occ. eigenvalues --   -0.35627  -0.28582  -0.22380
 Alpha virt. eigenvalues --    0.00625   0.08748   0.11817   0.14812   0.17471
 Alpha virt. eigenvalues --    0.19497   0.21039   0.22455   0.33218   0.42037
 Alpha virt. eigenvalues --    0.48422   0.66594   0.70066   0.72604   0.74452

 Mulliken charges:
               1
     1  C   -0.222806
     2  C    0.046910
     3  O   -0.467813
     4  C    0.085217
     5  C   -0.260839
     6  H    0.189148
     7  H    0.222029
     8  H    0.221486
     9  H    0.186668
 Sum of Mulliken charges =   0.00000

 Dipole moment (field-independent basis, Debye):
    X=             -0.3223    Y=              0.6501    Z=              0.0349  Tot=              0.7265
 Quadrupole moment (field-independent basis, Debye-Ang):
   XX=            -24.0503   YY=            -27.4520   ZZ=            -31.8523
   XY=              1.8614   XZ=              0.0414   YZ=              0.1845

 Normal termination of Gaussian 09 at Tue Dec 15 16:27:19 2015.
