 Gaussian 09, Revision D.01,
 Gaussian 09:  ES64L-G09RevD.01 24-Apr-2013

 ------------------------------------------------------------
 #P AM1(Input,print) CIS(Singlets,NStates=15) pop(full) force
 ------------------------------------------------------------

 -----------------
 AM1-Reparam Input
 -----------------
 Symbolic Z-matrix:
 Charge =  0 Multiplicity = 1

                         Standard orientation:
 ---------------------------------------------------------------------
 Center     Atomic      Atomic             Coordinates (Angstroms)
 Number     Number       Type             X           Y           Z
 ---------------------------------------------------------------------
      1          6           0        0.784739    0.890012    0.024979
      2          6           0        1.094651   -0.427110   -0.003319
      3          8           0       -0.098608   -1.146301   -0.008261
      4          6           0       -1.154740   -0.277523    0.017410
      5          6           0       -0.611548    1.025134   -0.026362
      6          1           0       -1.258019    1.925486   -0.014861
      7          1           0       -2.069470   -0.704131    0.026416
      8          1           0        1.965159   -1.006822   -0.021285
      9          1           0        1.472580    1.692791   -0.000433
 ---------------------------------------------------------------------

 SCF Done:  E(RAM1) =   2.81329496538     A.U. after   13 cycles

 Excitation energies and oscillator strengths:

 Excited State   1:      Singlet-A      5.4378 eV  228.00 nm  f=0.3303  <S**2>=0.000
      13 -> 14         0.69339
 This state for optimization and/or second-order correction.
 Total Energy, E(CIS) =   3.01313081439
 Copying the excited state density for this state as the 1-particle RhoCI density.

 Excited State   2:      Singlet-A      6.7746 eV  183.01 nm  f=0.0100  <S**2>=0.000
      13 -> 15         0.61200
      13 -> 16         0.20384
      13 -> 17         0.25199

 Excited State   3:      Singlet-A      6.9417 eV  178.61 nm  f=0.0003  <S**2>=0.000
       9 -> 14         0.12803
      12 -> 14         0.66683
      13 -> 16         0.13601

 Excited State   4:      Singlet-A      7.0291 eV  176.39 nm  f=0.0000  <S**2>=0.000
      11 -> 15        -0.12822
      12 -> 14        -0.16977
      13 -> 15        -0.20148
      13 -> 16         0.57982
      13 -> 18         0.22676

 Excited State   5:      Singlet-A      7.6561 eV  161.94 nm  f=0.0058  <S**2>=0.000
      10 -> 14         0.67228
      11 -> 14         0.17790

 Excited State   6:      Singlet-A      8.0376 eV  154.26 nm  f=0.0009  <S**2>=0.000
      11 -> 15        -0.11474
      13 -> 16         0.14480
      13 -> 18        -0.31292
      13 -> 19        -0.32233
      13 -> 20        -0.28947
      13 -> 21         0.40664

 Excited State   7:      Singlet-A      8.2793 eV  149.75 nm  f=0.0126  <S**2>=0.000
      11 -> 16         0.16340
      13 -> 15        -0.19896
      13 -> 17         0.63459

 Excited State   8:      Singlet-A      8.6193 eV  143.84 nm  f=0.0991  <S**2>=0.000
      10 -> 14        -0.17827
      11 -> 14         0.66469

 Excited State   9:      Singlet-A      8.8242 eV  140.50 nm  f=0.0004  <S**2>=0.000
      11 -> 15        -0.12519
      13 -> 16         0.18543
      13 -> 18        -0.39874
      13 -> 19         0.51922

 Excited State  10:      Singlet-A      9.1879 eV  134.94 nm  f=0.0082  <S**2>=0.000
      13 -> 18         0.40939
      13 -> 19         0.32350
      13 -> 20        -0.33043
      13 -> 21         0.32621

 Excited State  11:      Singlet-A      9.5083 eV  130.40 nm  f=0.0484  <S**2>=0.000
       9 -> 16        -0.12436
       9 -> 18        -0.12352
      10 -> 15         0.27946
      10 -> 16         0.10056
      10 -> 17         0.27785
      12 -> 16        -0.20836
      12 -> 18        -0.20719
      12 -> 19        -0.19816
      12 -> 20        -0.10463
      12 -> 21         0.12258
      13 -> 20         0.21589
      13 -> 21         0.20522

 Excited State  12:      Singlet-A      9.6126 eV  128.98 nm  f=0.0816  <S**2>=0.000
      10 -> 15        -0.14315
      10 -> 17        -0.13847
      13 -> 20         0.47987
      13 -> 21         0.39148

 Excited State  13:      Singlet-A      9.8720 eV  125.59 nm  f=0.0145  <S**2>=0.000
      10 -> 16         0.25868
      10 -> 18         0.13356
      12 -> 15         0.52813
      12 -> 16         0.21546
      12 -> 17         0.20588

 Excited State  14:      Singlet-A      9.9577 eV  124.51 nm  f=0.2106  <S**2>=0.000
      10 -> 15         0.29253
      12 -> 15        -0.26765
      12 -> 16         0.50130
      12 -> 18         0.12623
      12 -> 19        -0.10304

 Excited State  15:      Singlet-A     10.0780 eV  123.02 nm  f=0.0006  <S**2>=0.000
       9 -> 14         0.62707
      11 -> 15         0.21791
      12 -> 14        -0.12108

 The electronic state is 1-A.
 Alpha  occ. eigenvalues --   -1.71052  -1.11516  -0.92719  -0.79287  -0.76099
 Alpha  occ. eigenvalues --   -0.66719  -0.63082  -0.55165  -0.50630  -0.43352
 Alpha  occ. eigenvalues --   -0.43190  -0.40960  -0.29618
 Alpha virt. eigenvalues --    0.11183   0.19287   0.19951   0.24104   0.26925
 Alpha virt. eigenvalues --    0.27815   0.28946   0.30025   0.35853   0.44479
 Alpha virt. eigenvalues --    0.49157

 Mulliken charges:
               1
     1  C   -0.103352
     2  C   -1.948060
     3  O    3.226023
     4  C   -1.971757
     5  C   -0.156760
     6  H    0.187344
     7  H    0.291560
     8  H    0.293641
     9  H    0.181362
 Sum of Mulliken charges =   0.00000

 Dipole moment (field-independent basis, Debye):
    X=             -0.6769    Y=            -10.1441    Z=             -0.2250  Tot=             10.1692
 N-N= 1.037122791531D+02 E-N=-1.685628054381D+02  KE=-1.476737716939D+01
 Orbital energies and kinetic energies (alpha):
                                 1                 2
   1         O                -1.710519         -1.194864
   2         O                -1.115162         -0.980031
   3         O                -0.927188         -0.838847
   4         O                -0.792873         -0.613685
   5         O                -0.760985         -0.681411
   6         O                -0.667188         -0.575738
   7         O                -0.630822         -0.517058

 Normal termination of Gaussian 09 at Tue Dec 15 17:05:58 2015.
