 Gaussian 09, Revision D.01,
 Gaussian 09:  ES64L-G09RevD.01 24-Apr-2013

 ------------------------------------------------------------
 #P AM1(Input,print) CIS(Singlets,NStates=15) pop(full) force
 ------------------------------------------------------------

 -----------------
 AM1-Reparam Input
 -----------------
 Symbolic Z-matrix:
 Charge =  0 Multiplicity = 1

                         Standard orientation:
 ---------------------------------------------------------------------
 Center     Atomic      Atomic             Coordinates (Angstroms)
 Number     Number       Type             X           Y           Z
 ---------------------------------------------------------------------
      1          6           0       -0.743460    0.905586    0.007329
      2          6           0       -1.067291   -0.314285    0.004573
      3          8           0        0.009564   -1.178529    0.003626
      4          6           0        1.093313   -0.336497   -0.019341
      5          6           0        0.704809    0.997165   -0.017738
      6          1           0        1.398201    1.779010    0.077998
      7          1           0        2.038640   -0.796708    0.062001
      8          1           0       -2.043865   -0.840370   -0.004796
      9          1           0       -1.393711    1.774489   -0.013147
 ---------------------------------------------------------------------

 SCF Done:  E(RAM1) =   2.64262767321     A.U. after   13 cycles

 Excitation energies and oscillator strengths:

 Excited State   1:      Singlet-A      4.9296 eV  251.51 nm  f=0.3531  <S**2>=0.000
      13 -> 14         0.69871
 This state for optimization and/or second-order correction.
 Total Energy, E(CIS) =   2.82378686424
 Copying the excited state density for this state as the 1-particle RhoCI density.

 Excited State   2:      Singlet-A      5.8105 eV  213.38 nm  f=0.0001  <S**2>=0.000
      13 -> 15         0.65112
      13 -> 16        -0.18245
      13 -> 17         0.11092
      13 -> 19        -0.12293

 Excited State   3:      Singlet-A      6.2192 eV  199.36 nm  f=0.0043  <S**2>=0.000
      13 -> 15         0.19140
      13 -> 16         0.65186

 Excited State   4:      Singlet-A      6.4249 eV  192.97 nm  f=0.0004  <S**2>=0.000
      12 -> 14         0.69818

 Excited State   5:      Singlet-A      7.5005 eV  165.30 nm  f=0.0056  <S**2>=0.000
      10 -> 14         0.27844
      11 -> 14         0.63781

 Excited State   6:      Singlet-A      7.6555 eV  161.96 nm  f=0.0006  <S**2>=0.000
      13 -> 17         0.66051
      13 -> 18        -0.13766
      13 -> 21         0.11611

 Excited State   7:      Singlet-A      8.5223 eV  145.48 nm  f=0.0947  <S**2>=0.000
      10 -> 14         0.61662
      11 -> 14        -0.27001
      12 -> 15        -0.14446

 Excited State   8:      Singlet-A      8.9762 eV  138.13 nm  f=0.0151  <S**2>=0.000
      10 -> 15         0.20544
      12 -> 15        -0.13998
      13 -> 17         0.12600
      13 -> 18         0.60027
      13 -> 19         0.12967

 Excited State   9:      Singlet-A      9.0617 eV  136.82 nm  f=0.2085  <S**2>=0.000
       9 -> 16        -0.10188
      10 -> 14         0.16271
      12 -> 15         0.57129
      12 -> 16        -0.14641
      12 -> 17         0.17047
      13 -> 18         0.16078

 Excited State  10:      Singlet-A      9.2215 eV  134.45 nm  f=0.0031  <S**2>=0.000
      10 -> 16         0.22650
      11 -> 16        -0.14116
      13 -> 19         0.62672

 Excited State  11:      Singlet-A      9.4484 eV  131.22 nm  f=0.0735  <S**2>=0.000
       9 -> 15        -0.11100
      11 -> 15         0.21237
      11 -> 16         0.14806
      11 -> 18        -0.17372
      12 -> 15         0.29168
      12 -> 16         0.38144
      12 -> 17        -0.31464

 Excited State  12:      Singlet-A      9.9411 eV  124.72 nm  f=0.1367  <S**2>=0.000
      11 -> 15        -0.24028
      11 -> 16         0.51777
      11 -> 18        -0.10202
      11 -> 19         0.13640
      12 -> 16        -0.25979
      12 -> 17        -0.12128

 Excited State  13:      Singlet-A     10.0652 eV  123.18 nm  f=0.0160  <S**2>=0.000
      10 -> 15         0.52880
      10 -> 16        -0.19133
      11 -> 15        -0.22071
      12 -> 16         0.10101
      12 -> 17         0.10083
      13 -> 16        -0.11564
      13 -> 18        -0.23766

 Excited State  14:      Singlet-A     10.1215 eV  122.50 nm  f=0.0248  <S**2>=0.000
       8 -> 15        -0.17607
       9 -> 16         0.16407
      10 -> 15        -0.28423
      10 -> 16        -0.29921
      11 -> 15        -0.10393
      11 -> 16         0.10900
      12 -> 16         0.32823
      12 -> 17         0.19446
      12 -> 19         0.10603
      13 -> 19         0.13602

 Excited State  15:      Singlet-A     10.2160 eV  121.36 nm  f=0.0036  <S**2>=0.000
       8 -> 15        -0.15862
       9 -> 16         0.14537
      10 -> 16         0.45808
      11 -> 15        -0.26723
      11 -> 16        -0.10028
      11 -> 19         0.10250
      12 -> 16         0.18243
      13 -> 19        -0.15701

 The electronic state is 1-A.
 Alpha  occ. eigenvalues --   -1.84402  -1.13045  -0.88017  -0.79345  -0.74448
 Alpha  occ. eigenvalues --   -0.67162  -0.63049  -0.54273  -0.53939  -0.44467
 Alpha  occ. eigenvalues --   -0.44094  -0.40999  -0.28219
 Alpha virt. eigenvalues --    0.09761   0.16272   0.18094   0.26326   0.28939
 Alpha virt. eigenvalues --    0.30331   0.37365   0.41600   0.47231   0.55459
 Alpha virt. eigenvalues --    0.58467

 Mulliken charges:
               1
     1  C   -0.177067
     2  C   -1.950638
     3  O    3.429747
     4  C   -1.999278
     5  C   -0.207687
     6  H    0.179252
     7  H    0.263638
     8  H    0.272549
     9  H    0.189484
 Sum of Mulliken charges =   0.00000

 Dipole moment (field-independent basis, Debye):
    X=             -0.5330    Y=            -12.2997    Z=              0.3502  Tot=             12.3163
 N-N= 1.040830224868D+02 E-N=-1.698024174503D+02  KE=-1.436918841387D+01
 Orbital energies and kinetic energies (alpha):
                                 1                 2
   1         O                -1.844019         -1.236010
   2         O                -1.130446         -0.978309
   3         O                -0.880165         -0.815313
   4         O                -0.793451         -0.522784
   5         O                -0.744483         -0.614518
   6         O                -0.671622         -0.536770
   7         O                -0.630491         -0.498706

 Normal termination of Gaussian 09 at Tue Dec 15 17:07:32 2015.
