 Gaussian 09, Revision D.01,
 Gaussian 09:  ES64L-G09RevD.01 24-Apr-2013

 -------------------------------------------------------
 #P B3LYP/3-21G CIS(Singlets,NStates=15) pop(full) force
 -------------------------------------------------------

 --------
 FuranDFT
 --------
 Symbolic Z-matrix:
 Charge =  0 Multiplicity = 1

                         Standard orientation:
 ---------------------------------------------------------------------
 Center     Atomic      Atomic             Coordinates (Angstroms)
 Number     Number       Type             X           Y           Z
 ---------------------------------------------------------------------
      1          6           0        0.136899    1.145612    0.021080
      2          6           0       -1.020423    0.469537   -0.029252
      3          8           0       -0.771031   -0.829433    0.032619
      4          6           0        0.514860   -0.998840   -0.016891
      5          6           0        1.165948    0.247622   -0.024180
      6          1           0        2.287033    0.389486    0.061056
      7          1           0        0.891306   -1.977307   -0.014250
      8          1           0       -2.083258    0.774374   -0.043303
      9          1           0        0.289466    2.265327    0.031001
 ---------------------------------------------------------------------

 SCF Done:  E(RB3LYP) =  -228.727815068     A.U. after   14 cycles

 Excitation energies and oscillator strengths:

 Excited State   1:      Singlet-A      7.3254 eV  169.25 nm  f=0.2516  <S**2>=0.000
      18 -> 19         0.68139
 This state for optimization and/or second-order correction.
 Total Energy, E(CIS) =  -228.458610086
 Copying the excited state density for this state as the 1-particle RhoCI density.

 Excited State   2:      Singlet-A      7.3995 eV  167.56 nm  f=0.0016  <S**2>=0.000
      17 -> 19         0.49019
      18 -> 20         0.50152

 Excited State   3:      Singlet-A      8.1685 eV  151.78 nm  f=0.0044  <S**2>=0.000
      18 -> 21         0.69858

 Excited State   4:      Singlet-A      8.9101 eV  139.15 nm  f=0.0108  <S**2>=0.000
      16 -> 19         0.69301

 Excited State   5:      Singlet-A      9.3489 eV  132.62 nm  f=0.0012  <S**2>=0.000
      18 -> 22         0.69291

 Excited State   6:      Singlet-A      9.5817 eV  129.40 nm  f=0.1511  <S**2>=0.000
      17 -> 19        -0.25622
      17 -> 20        -0.14741
      17 -> 21         0.40761
      18 -> 20         0.25545
      18 -> 23        -0.33422
      18 -> 24        -0.19929

 Excited State   7:      Singlet-A      9.7875 eV  126.68 nm  f=0.3220  <S**2>=0.000
      17 -> 19         0.33265
      17 -> 20         0.13496
      17 -> 21         0.13402
      18 -> 20        -0.33157
      18 -> 23        -0.29727
      18 -> 24        -0.31146

 Excited State   8:      Singlet-A      9.8489 eV  125.89 nm  f=0.0461  <S**2>=0.000
      17 -> 19         0.12858
      17 -> 21         0.53478
      18 -> 20        -0.12341
      18 -> 23         0.32983
      18 -> 24         0.21436

 Excited State   9:      Singlet-A      9.9837 eV  124.19 nm  f=0.0126  <S**2>=0.000
      15 -> 19        -0.29702
      17 -> 20         0.14865
      18 -> 23        -0.34895
      18 -> 24         0.49119

 Excited State  10:      Singlet-A     10.0087 eV  123.88 nm  f=0.0024  <S**2>=0.000
      15 -> 19         0.59172
      16 -> 20        -0.14409
      18 -> 23        -0.23427
      18 -> 24         0.24243

 Excited State  11:      Singlet-A     10.2374 eV  121.11 nm  f=0.2507  <S**2>=0.000
      15 -> 19         0.13286
      17 -> 19        -0.13229
      17 -> 20         0.61425
      17 -> 21         0.11687
      18 -> 20         0.12424

 Excited State  12:      Singlet-A     10.4372 eV  118.79 nm  f=0.0188  <S**2>=0.000
      14 -> 19         0.68224
      16 -> 20         0.10178

 Excited State  13:      Singlet-A     10.8414 eV  114.36 nm  f=0.0103  <S**2>=0.000
      14 -> 19        -0.11429
      15 -> 19         0.14449
      16 -> 20         0.66121

 Excited State  14:      Singlet-A     10.9669 eV  113.05 nm  f=0.0044  <S**2>=0.000
      17 -> 22         0.69809

 Excited State  15:      Singlet-A     11.0827 eV  111.87 nm  f=0.0060  <S**2>=0.000
      18 -> 25         0.69306

 The electronic state is 1-A.
 Alpha  occ. eigenvalues --  -19.12566 -10.17257 -10.17204 -10.12467 -10.12152
 Alpha  occ. eigenvalues --   -1.17080  -0.81585  -0.76008  -0.60405  -0.57095
 Alpha  occ. eigenvalues --   -0.54636  -0.47312  -0.45121  -0.41198  -0.39772
 Alpha  occ. eigenvalues --   -0.36228  -0.28639  -0.22508
 Alpha virt. eigenvalues --    0.02487   0.08830   0.12000   0.15842   0.17810
 Alpha virt. eigenvalues --    0.18220   0.23433   0.25748   0.34802   0.42581
 Alpha virt. eigenvalues --    0.50416   0.68924   0.69723   0.72878   0.74986

 Mulliken charges:
               1
     1  C   -0.263302
     2  C    0.106902
     3  O   -0.498198
     4  C    0.096833
     5  C   -0.236393
     6  H    0.182123
     7  H    0.216736
     8  H    0.212023
     9  H    0.183276
 Sum of Mulliken charges =   0.00000

 Dipole moment (field-independent basis, Debye):
    X=              0.3763    Y=              0.3494    Z=              0.0286  Tot=              0.5143
 Quadrupole moment (field-independent basis, Debye-Ang):
   XX=            -25.7749   YY=            -26.2839   ZZ=            -31.7294
   XY=             -1.8751   XZ=              0.2934   YZ=              0.1061

 Normal termination of Gaussian 09 at Tue Dec 15 16:29:44 2015.
