 Gaussian 09, Revision D.01,
 Gaussian 09:  ES64L-G09RevD.01 24-Apr-2013

 ------------------------------------------------------------
 #P AM1(Input,print) CIS(Singlets,NStates=15) pop(full) force
 ------------------------------------------------------------

 -----------------
 AM1-Reparam Input
 -----------------
 Symbolic Z-matrix:
 Charge =  0 Multiplicity = 1

                         Standard orientation:
 ---------------------------------------------------------------------
 Center     Atomic      Atomic             Coordinates (Angstroms)
 Number     Number       Type             X           Y           Z
 ---------------------------------------------------------------------
      1          6           0       -1.020417    0.619512   -0.026118
      2          6           0       -0.891285   -0.654347    0.012216
      3          8           0        0.411707   -1.029125   -0.003098
      4          6           0        1.176884    0.035336   -0.000925
      5          6           0        0.295869    1.087925    0.013852
      6          1           0        0.646310    2.146935   -0.021383
      7          1           0        2.242712   -0.100238    0.002443
      8          1           0       -1.675040   -1.535533   -0.006018
      9          1           0       -1.873945    1.191277    0.055588
 ---------------------------------------------------------------------

 SCF Done:  E(RAM1) =   2.15514425441     A.U. after   14 cycles

 Excitation energies and oscillator strengths:

 Excited State   1:      Singlet-A      5.5203 eV  224.60 nm  f=0.3285  <S**2>=0.000
      13 -> 14         0.69294
 This state for optimization and/or second-order correction.
 Total Energy, E(CIS) =   2.35801252055
 Copying the excited state density for this state as the 1-particle RhoCI density.

 Excited State   2:      Singlet-A      6.1569 eV  201.37 nm  f=0.0015  <S**2>=0.000
      10 -> 15         0.12088
      13 -> 15         0.67923

 Excited State   3:      Singlet-A      6.6747 eV  185.75 nm  f=0.0027  <S**2>=0.000
      10 -> 16        -0.10994
      13 -> 16         0.66034
      13 -> 17        -0.15260
      13 -> 19        -0.11004

 Excited State   4:      Singlet-A      7.1086 eV  174.41 nm  f=0.0002  <S**2>=0.000
      12 -> 14         0.69784

 Excited State   5:      Singlet-A      7.9568 eV  155.82 nm  f=0.0080  <S**2>=0.000
      11 -> 14         0.17923
      13 -> 17         0.47268
      13 -> 18        -0.38752
      13 -> 20         0.13953
      13 -> 21        -0.22508

 Excited State   6:      Singlet-A      8.1329 eV  152.45 nm  f=0.0038  <S**2>=0.000
      11 -> 14         0.66052
      13 -> 18         0.19135

 Excited State   7:      Singlet-A      8.4732 eV  146.32 nm  f=0.0049  <S**2>=0.000
      10 -> 16        -0.12714
      11 -> 14        -0.13689
      13 -> 16         0.15080
      13 -> 17         0.47841
      13 -> 18         0.40015
      13 -> 20        -0.12318
      13 -> 21         0.17412

 Excited State   8:      Singlet-A      9.0582 eV  136.87 nm  f=0.0722  <S**2>=0.000
       8 -> 15         0.12309
      10 -> 14         0.50153
      11 -> 18         0.11237
      12 -> 15         0.40589

 Excited State   9:      Singlet-A      9.1754 eV  135.13 nm  f=0.0032  <S**2>=0.000
      13 -> 18        -0.17564
      13 -> 19         0.64539
      13 -> 20        -0.15467

 Excited State  10:      Singlet-A      9.4610 eV  131.05 nm  f=0.1286  <S**2>=0.000
      10 -> 14        -0.42057
      11 -> 15         0.10467
      12 -> 15         0.43236
      12 -> 16        -0.24786

 Excited State  11:      Singlet-A      9.6125 eV  128.98 nm  f=0.0264  <S**2>=0.000
      13 -> 18         0.29986
      13 -> 19         0.21178
      13 -> 20         0.48294
      13 -> 21        -0.33381

 Excited State  12:      Singlet-A      9.7476 eV  127.19 nm  f=0.1112  <S**2>=0.000
       9 -> 16        -0.11606
      10 -> 14        -0.14553
      11 -> 16        -0.20188
      12 -> 15         0.11549
      12 -> 16         0.55458
      12 -> 17        -0.24565

 Excited State  13:      Singlet-A      9.8596 eV  125.75 nm  f=0.1180  <S**2>=0.000
      11 -> 15         0.36659
      11 -> 16         0.14197
      11 -> 17        -0.22679
      12 -> 15         0.14619
      12 -> 16         0.20264
      12 -> 17         0.19620
      12 -> 18        -0.31438
      12 -> 21        -0.11293
      13 -> 21         0.11992

 Excited State  14:      Singlet-A     10.0682 eV  123.14 nm  f=0.0740  <S**2>=0.000
      10 -> 16        -0.17759
      13 -> 18        -0.12858
      13 -> 20         0.41437
      13 -> 21         0.49591

 Excited State  15:      Singlet-A     10.2181 eV  121.34 nm  f=0.0204  <S**2>=0.000
      10 -> 15         0.52369
      10 -> 16         0.22516
      11 -> 15         0.23076
      12 -> 17        -0.12287
      12 -> 18         0.11495
      13 -> 15        -0.11456
      13 -> 21         0.11269

 The electronic state is 1-A.
 Alpha  occ. eigenvalues --   -1.96222  -1.21841  -0.94465  -0.81859  -0.78351
 Alpha  occ. eigenvalues --   -0.68962  -0.68209  -0.56619  -0.53637  -0.45545
 Alpha  occ. eigenvalues --   -0.44746  -0.41264  -0.29668
 Alpha virt. eigenvalues --    0.11763   0.15552   0.17916   0.24943   0.27229
 Alpha virt. eigenvalues --    0.29611   0.30485   0.32666   0.33748   0.41541
 Alpha virt. eigenvalues --    0.46613

 Mulliken charges:
               1
     1  C   -0.093886
     2  C   -1.878888
     3  O    3.219102
     4  C   -1.903761
     5  C   -0.227342
     6  H    0.171431
     7  H    0.275329
     8  H    0.280894
     9  H    0.157122
 Sum of Mulliken charges =   0.00000

 Dipole moment (field-independent basis, Debye):
    X=              3.1249    Y=             -9.7879    Z=             -0.1315  Tot=             10.2755
 N-N= 1.050738808213D+02 E-N=-1.708097735568D+02  KE=-1.539994891856D+01
 Orbital energies and kinetic energies (alpha):
                                 1                 2
   1         O                -1.962224         -1.406113
   2         O                -1.218405         -1.060406
   3         O                -0.944651         -0.882724
   4         O                -0.818590         -0.565641
   5         O                -0.783511         -0.682650
   6         O                -0.689615         -0.586618
   7         O                -0.682089         -0.543370

 Normal termination of Gaussian 09 at Tue Dec 15 17:08:38 2015.
