 Gaussian 09, Revision D.01,
 Gaussian 09:  ES64L-G09RevD.01 24-Apr-2013

 ------------------------------------------------------------
 #P AM1(Input,print) CIS(Singlets,NStates=15) pop(full) force
 ------------------------------------------------------------

 -----------------
 AM1-Reparam Input
 -----------------
 Symbolic Z-matrix:
 Charge =  0 Multiplicity = 1

                         Standard orientation:
 ---------------------------------------------------------------------
 Center     Atomic      Atomic             Coordinates (Angstroms)
 Number     Number       Type             X           Y           Z
 ---------------------------------------------------------------------
      1          6           0       -0.604638    1.068931   -0.015413
      2          6           0       -1.152340   -0.264023    0.032375
      3          8           0       -0.149541   -1.118586   -0.035039
      4          6           0        1.069541   -0.492961    0.036707
      5          6           0        0.853211    0.849429   -0.018215
      6          1           0        1.528250    1.653489    0.034645
      7          1           0        1.939498   -1.071980    0.000474
      8          1           0       -2.163899   -0.586992    0.032373
      9          1           0       -1.102162    1.985913    0.000107
 ---------------------------------------------------------------------

 SCF Done:  E(RAM1) =   2.58184300524     A.U. after   13 cycles

 Excitation energies and oscillator strengths:

 Excited State   1:      Singlet-A      4.9904 eV  248.45 nm  f=0.3816  <S**2>=0.000
      13 -> 14         0.69970
 This state for optimization and/or second-order correction.
 Total Energy, E(CIS) =   2.76523672661
 Copying the excited state density for this state as the 1-particle RhoCI density.

 Excited State   2:      Singlet-A      6.3007 eV  196.78 nm  f=0.0009  <S**2>=0.000
      12 -> 14         0.13136
      13 -> 15         0.63225
      13 -> 16        -0.15692
      13 -> 17         0.17734
      13 -> 19        -0.10399

 Excited State   3:      Singlet-A      6.3652 eV  194.78 nm  f=0.0017  <S**2>=0.000
      12 -> 14         0.68511
      13 -> 15        -0.13700

 Excited State   4:      Singlet-A      6.7470 eV  183.76 nm  f=0.0061  <S**2>=0.000
      13 -> 15         0.17430
      13 -> 16         0.65328

 Excited State   5:      Singlet-A      7.4933 eV  165.46 nm  f=0.0043  <S**2>=0.000
      10 -> 14         0.68969
      11 -> 14        -0.10741

 Excited State   6:      Singlet-A      7.8281 eV  158.38 nm  f=0.0002  <S**2>=0.000
      13 -> 15        -0.12880
      13 -> 16         0.12148
      13 -> 17         0.65508
      13 -> 21        -0.11437

 Excited State   7:      Singlet-A      8.1713 eV  151.73 nm  f=0.1308  <S**2>=0.000
      10 -> 14         0.10802
      11 -> 14         0.69092

 Excited State   8:      Singlet-A      9.3868 eV  132.08 nm  f=0.0712  <S**2>=0.000
       9 -> 15         0.10259
      10 -> 16        -0.19033
      10 -> 18        -0.13478
      12 -> 15         0.45947
      12 -> 16        -0.20209
      12 -> 17         0.36495

 Excited State   9:      Singlet-A      9.4771 eV  130.83 nm  f=0.0039  <S**2>=0.000
       7 -> 15         0.13444
      11 -> 15         0.45340
      13 -> 18         0.50693

 Excited State  10:      Singlet-A      9.7140 eV  127.63 nm  f=0.0072  <S**2>=0.000
       7 -> 16         0.11643
      11 -> 16        -0.36490
      12 -> 16        -0.11070
      13 -> 18         0.11486
      13 -> 19         0.54533

 Excited State  11:      Singlet-A     10.0292 eV  123.62 nm  f=0.1859  <S**2>=0.000
      10 -> 16        -0.28091
      12 -> 16         0.54742
      12 -> 17         0.18354
      12 -> 19         0.13961
      13 -> 19         0.11839

 Excited State  12:      Singlet-A     10.0527 eV  123.33 nm  f=0.0873  <S**2>=0.000
      10 -> 15         0.44889
      10 -> 18         0.13273
      12 -> 15         0.38565
      12 -> 16         0.21542
      12 -> 17        -0.15713
      12 -> 18         0.10709

 Excited State  13:      Singlet-A     10.1770 eV  121.83 nm  f=0.0077  <S**2>=0.000
       9 -> 14         0.58375
      11 -> 15         0.22984
      11 -> 16         0.11715
      13 -> 18        -0.18221
      13 -> 19         0.10568

 Excited State  14:      Singlet-A     10.2936 eV  120.45 nm  f=0.0003  <S**2>=0.000
       9 -> 14        -0.34971
      11 -> 15         0.40509
      13 -> 15         0.13065
      13 -> 18        -0.34729
      13 -> 19         0.19434

 Excited State  15:      Singlet-A     10.5989 eV  116.98 nm  f=0.0020  <S**2>=0.000
       8 -> 15        -0.16411
       9 -> 15        -0.18842
      10 -> 15         0.30852
      10 -> 17        -0.14382
      10 -> 19        -0.13494
      11 -> 16        -0.23524
      12 -> 15        -0.18617
      12 -> 16        -0.12132
      12 -> 17         0.30482
      13 -> 18        -0.10769
      13 -> 19        -0.12685

 The electronic state is 1-A.
 Alpha  occ. eigenvalues --   -1.84964  -1.10616  -0.88176  -0.79874  -0.75204
 Alpha  occ. eigenvalues --   -0.67497  -0.63239  -0.58212  -0.55371  -0.47402
 Alpha  occ. eigenvalues --   -0.45767  -0.44041  -0.31518
 Alpha virt. eigenvalues --    0.06350   0.15913   0.17209   0.23556   0.27432
 Alpha virt. eigenvalues --    0.28609   0.33871   0.37501   0.49491   0.56180
 Alpha virt. eigenvalues --    0.61823

 Mulliken charges:
               1
     1  C   -0.200208
     2  C   -2.050921
     3  O    3.440039
     4  C   -1.995957
     5  C   -0.138314
     6  H    0.192488
     7  H    0.275866
     8  H    0.288991
     9  H    0.188017
 Sum of Mulliken charges =   0.00000

 Dipole moment (field-independent basis, Debye):
    X=             -1.2363    Y=            -10.0662    Z=             -1.0150  Tot=             10.1926
 N-N= 1.036804003586D+02 E-N=-1.688347452818D+02  KE=-1.432479643278D+01
 Orbital energies and kinetic energies (alpha):
                                 1                 2
   1         O                -1.849637         -1.255338
   2         O                -1.106157         -0.942615
   3         O                -0.881758         -0.765411
   4         O                -0.798741         -0.549507
   5         O                -0.752039         -0.637582
   6         O                -0.674967         -0.557765
   7         O                -0.632390         -0.485102

 Normal termination of Gaussian 09 at Tue Dec 15 17:07:37 2015.
