 Gaussian 09, Revision D.01,
 Gaussian 09:  ES64L-G09RevD.01 24-Apr-2013

 ------------------------------------------------------------
 #P AM1(Input,print) CIS(Singlets,NStates=15) pop(full) force
 ------------------------------------------------------------

 -----------------
 AM1-Reparam Input
 -----------------
 Symbolic Z-matrix:
 Charge =  0 Multiplicity = 1

                         Standard orientation:
 ---------------------------------------------------------------------
 Center     Atomic      Atomic             Coordinates (Angstroms)
 Number     Number       Type             X           Y           Z
 ---------------------------------------------------------------------
      1          6           0       -0.975310    0.715668   -0.009273
      2          6           0       -0.928919   -0.602198   -0.018064
      3          8           0        0.318882   -1.148367    0.018147
      4          6           0        1.166129   -0.012823   -0.013168
      5          6           0        0.405930    1.103118    0.015270
      6          1           0        0.802026    2.164230   -0.016746
      7          1           0        2.195371   -0.198491   -0.022500
      8          1           0       -1.727105   -1.367089   -0.003242
      9          1           0       -1.828327    1.365698    0.048715
 ---------------------------------------------------------------------

 SCF Done:  E(RAM1) =  -5.43035275015     A.U. after   13 cycles

 Excitation energies and oscillator strengths:

 Excited State   1:      Singlet-A      6.5901 eV  188.14 nm  f=0.3569  <S**2>=0.000
      13 -> 14         0.67286
      13 -> 15         0.17573
 This state for optimization and/or second-order correction.
 Total Energy, E(CIS) =  -5.18817099683
 Copying the excited state density for this state as the 1-particle RhoCI density.

 Excited State   2:      Singlet-A      6.7134 eV  184.68 nm  f=0.0320  <S**2>=0.000
      13 -> 14        -0.17678
      13 -> 15         0.66817

 Excited State   3:      Singlet-A      7.6245 eV  162.61 nm  f=0.0044  <S**2>=0.000
      13 -> 16         0.68477

 Excited State   4:      Singlet-A      8.5406 eV  145.17 nm  f=0.0002  <S**2>=0.000
      12 -> 14         0.69547

 Excited State   5:      Singlet-A      9.3728 eV  132.28 nm  f=0.0008  <S**2>=0.000
      13 -> 17         0.56377
      13 -> 18        -0.33245
      13 -> 21        -0.14065
      13 -> 22         0.14180

 Excited State   6:      Singlet-A      9.7093 eV  127.70 nm  f=0.0024  <S**2>=0.000
      10 -> 14         0.67100
      11 -> 14         0.13251
      13 -> 18        -0.13579

 Excited State   7:      Singlet-A      9.9973 eV  124.02 nm  f=0.0018  <S**2>=0.000
      10 -> 14         0.10244
      11 -> 15         0.12749
      11 -> 16        -0.10898
      13 -> 17         0.36642
      13 -> 18         0.55361

 Excited State   8:      Singlet-A     10.3446 eV  119.85 nm  f=0.0276  <S**2>=0.000
       9 -> 15        -0.13863
      10 -> 14        -0.10496
      11 -> 14         0.53409
      12 -> 15        -0.19487
      13 -> 19        -0.35293

 Excited State   9:      Singlet-A     10.7147 eV  115.71 nm  f=0.1134  <S**2>=0.000
       9 -> 15         0.16632
       9 -> 16         0.10605
      10 -> 16        -0.11673
      11 -> 14         0.17252
      12 -> 15         0.57460
      12 -> 16        -0.11620
      12 -> 17        -0.10537
      13 -> 19        -0.12453

 Excited State  10:      Singlet-A     10.9295 eV  113.44 nm  f=0.0181  <S**2>=0.000
      11 -> 15        -0.31382
      13 -> 17         0.15759
      13 -> 20         0.49323
      13 -> 21         0.31857

 Excited State  11:      Singlet-A     11.2267 eV  110.44 nm  f=0.0125  <S**2>=0.000
      11 -> 15         0.42838
      13 -> 18        -0.15615
      13 -> 21         0.48691

 Excited State  12:      Singlet-A     11.3489 eV  109.25 nm  f=0.1512  <S**2>=0.000
      10 -> 15        -0.13921
      11 -> 14         0.31255
      11 -> 15         0.14473
      12 -> 17        -0.13632
      13 -> 19         0.56348

 Excited State  13:      Singlet-A     11.5031 eV  107.78 nm  f=0.0253  <S**2>=0.000
      11 -> 15         0.36178
      11 -> 16         0.23840
      13 -> 20         0.45508
      13 -> 21        -0.23704

 Excited State  14:      Singlet-A     11.7324 eV  105.68 nm  f=0.2821  <S**2>=0.000
      10 -> 15         0.39946
      10 -> 16         0.24182
      10 -> 17        -0.17323
      10 -> 18        -0.12361
      11 -> 14         0.16984
      12 -> 15         0.14206
      12 -> 16         0.17332
      12 -> 17         0.25898
      12 -> 18        -0.20984
      13 -> 19         0.11189

 Excited State  15:      Singlet-A     11.7601 eV  105.43 nm  f=0.1816  <S**2>=0.000
      10 -> 15         0.22638
      10 -> 16        -0.24593
      12 -> 16         0.48864
      12 -> 17        -0.30846

 The electronic state is 1-A.
 Alpha  occ. eigenvalues --   -3.89400  -1.33216  -0.98787  -0.96226  -0.89972
 Alpha  occ. eigenvalues --   -0.89168  -0.80920  -0.65626  -0.62591  -0.55018
 Alpha  occ. eigenvalues --   -0.54448  -0.51317  -0.36830
 Alpha virt. eigenvalues --    0.08647   0.11865   0.15854   0.23464   0.25091
 Alpha virt. eigenvalues --    0.27467   0.29756   0.31693   0.34784   0.39154
 Alpha virt. eigenvalues --    0.42839

 Mulliken charges:
               1
     1  C   -0.093709
     2  C   -1.476650
     3  O    3.080185
     4  C   -1.477476
     5  C   -0.059897
     6  H   -0.019261
     7  H    0.029648
     8  H    0.034386
     9  H   -0.017226
 Sum of Mulliken charges =   0.00000

 Dipole moment (field-independent basis, Debye):
    X=              3.0195    Y=            -12.3973    Z=              0.4519  Tot=             12.7677
 N-N= 1.046593982749D+02 E-N=-1.707857985617D+02  KE=-2.332330613432D+01
 Orbital energies and kinetic energies (alpha):
                                 1                 2
   1         O                -3.894005         -3.070293
   2         O                -1.332162         -1.233697
   3         O                -0.987872         -0.930798
   4         O                -0.962256         -0.967093
   5         O                -0.899722         -0.812894
   6         O                -0.891685         -0.814304
   7         O                -0.809200         -0.767305

 Normal termination of Gaussian 09 at Fri Dec 11 13:41:32 2015.
