 Gaussian 09, Revision D.01,
 Gaussian 09:  ES64L-G09RevD.01 24-Apr-2013

 ------------------------------------------------------------
 #P AM1(Input,print) CIS(Singlets,NStates=15) pop(full) force
 ------------------------------------------------------------

 -----------------
 AM1-Reparam Input
 -----------------
 Symbolic Z-matrix:
 Charge =  0 Multiplicity = 1

                         Standard orientation:
 ---------------------------------------------------------------------
 Center     Atomic      Atomic             Coordinates (Angstroms)
 Number     Number       Type             X           Y           Z
 ---------------------------------------------------------------------
      1          6           0        0.961004    0.714901    0.003316
      2          6           0        0.937369   -0.618462   -0.000946
      3          8           0       -0.343133   -1.143220   -0.015483
      4          6           0       -1.091747   -0.002208    0.030209
      5          6           0       -0.447050    1.116828   -0.006390
      6          1           0       -0.799831    2.085926   -0.007749
      7          1           0       -2.187945   -0.289368   -0.041894
      8          1           0        1.755621   -1.305255    0.050051
      9          1           0        1.819766    1.388099   -0.033679
 ---------------------------------------------------------------------

 SCF Done:  E(RAM1) =   2.65547876970     A.U. after   13 cycles

 Excitation energies and oscillator strengths:

 Excited State   1:      Singlet-A      4.8730 eV  254.43 nm  f=0.3562  <S**2>=0.000
      13 -> 14         0.69963
 This state for optimization and/or second-order correction.
 Total Energy, E(CIS) =   2.83456000126
 Copying the excited state density for this state as the 1-particle RhoCI density.

 Excited State   2:      Singlet-A      5.4400 eV  227.91 nm  f=0.0001  <S**2>=0.000
      13 -> 15         0.67393
      13 -> 17         0.11998

 Excited State   3:      Singlet-A      6.1605 eV  201.26 nm  f=0.0015  <S**2>=0.000
      13 -> 15         0.10716
      13 -> 16         0.66871
      13 -> 18        -0.11058

 Excited State   4:      Singlet-A      6.3217 eV  196.12 nm  f=0.0000  <S**2>=0.000
      12 -> 14         0.69983

 Excited State   5:      Singlet-A      7.4541 eV  166.33 nm  f=0.0009  <S**2>=0.000
      10 -> 14        -0.10685
      13 -> 17         0.66259
      13 -> 21         0.10909

 Excited State   6:      Singlet-A      7.5694 eV  163.80 nm  f=0.0048  <S**2>=0.000
      10 -> 14         0.55552
      11 -> 14        -0.40338
      13 -> 17         0.12309

 Excited State   7:      Singlet-A      8.4921 eV  146.00 nm  f=0.1100  <S**2>=0.000
      10 -> 14         0.38800
      11 -> 14         0.52931
      12 -> 15         0.20957

 Excited State   8:      Singlet-A      8.7586 eV  141.56 nm  f=0.2217  <S**2>=0.000
       9 -> 15         0.12007
       9 -> 16         0.10967
      10 -> 14        -0.12508
      11 -> 14        -0.18069
      12 -> 15         0.57112
      12 -> 16        -0.17417
      12 -> 17         0.19018

 Excited State   9:      Singlet-A      8.8621 eV  139.90 nm  f=0.0085  <S**2>=0.000
      10 -> 15         0.13839
      11 -> 15         0.19553
      13 -> 18         0.61974
      13 -> 19         0.18711

 Excited State  10:      Singlet-A      9.1452 eV  135.57 nm  f=0.0003  <S**2>=0.000
      10 -> 16         0.11467
      11 -> 16         0.16776
      13 -> 18        -0.15854
      13 -> 19         0.64055

 Excited State  11:      Singlet-A      9.4939 eV  130.59 nm  f=0.0368  <S**2>=0.000
      10 -> 15         0.23603
      10 -> 16         0.10117
      10 -> 18        -0.13160
      11 -> 15        -0.21098
      12 -> 15         0.22707
      12 -> 16         0.37954
      12 -> 17        -0.32067

 Excited State  12:      Singlet-A      9.6394 eV  128.62 nm  f=0.0019  <S**2>=0.000
       7 -> 15        -0.13366
      10 -> 15         0.36306
      11 -> 15         0.51174
      13 -> 15        -0.12711
      13 -> 18        -0.21616

 Excited State  13:      Singlet-A      9.7917 eV  126.62 nm  f=0.1321  <S**2>=0.000
      10 -> 16        -0.24475
      10 -> 18         0.13586
      11 -> 16         0.23993
      12 -> 16         0.45134
      12 -> 17         0.31546
      12 -> 19         0.10626

 Excited State  14:      Singlet-A     10.0037 eV  123.94 nm  f=0.0119  <S**2>=0.000
       8 -> 15        -0.19088
       8 -> 16        -0.11096
       9 -> 15        -0.26875
      10 -> 15         0.40010
      10 -> 19        -0.13782
      11 -> 15        -0.26226
      12 -> 16        -0.19203
      12 -> 17         0.17669
      12 -> 18        -0.10543

 Excited State  15:      Singlet-A     10.1776 eV  121.82 nm  f=0.0026  <S**2>=0.000
       7 -> 16         0.11331
      10 -> 16         0.41875
      11 -> 16         0.46589
      13 -> 16         0.12374
      13 -> 18         0.14297
      13 -> 19        -0.15958

 The electronic state is 1-A.
 Alpha  occ. eigenvalues --   -1.84402  -1.13141  -0.87270  -0.79163  -0.74360
 Alpha  occ. eigenvalues --   -0.66928  -0.62876  -0.54015  -0.52589  -0.44054
 Alpha  occ. eigenvalues --   -0.43868  -0.40247  -0.27394
 Alpha virt. eigenvalues --    0.10239   0.15287   0.18557   0.26539   0.29521
 Alpha virt. eigenvalues --    0.30960   0.37931   0.42420   0.47328   0.55950
 Alpha virt. eigenvalues --    0.58241

 Mulliken charges:
               1
     1  C   -0.182288
     2  C   -1.985881
     3  O    3.421197
     4  C   -1.942231
     5  C   -0.198401
     6  H    0.174624
     7  H    0.258936
     8  H    0.275518
     9  H    0.178527
 Sum of Mulliken charges =   0.00000

 Dipole moment (field-independent basis, Debye):
    X=             -3.8597    Y=            -12.0671    Z=             -0.4893  Tot=             12.6788
 N-N= 1.041322085492D+02 E-N=-1.699788258314D+02  KE=-1.436849757463D+01
 Orbital energies and kinetic energies (alpha):
                                 1                 2
   1         O                -1.844016         -1.236575
   2         O                -1.131412         -0.987484
   3         O                -0.872700         -0.813191
   4         O                -0.791630         -0.522271
   5         O                -0.743595         -0.605503
   6         O                -0.669279         -0.540494
   7         O                -0.628760         -0.499998

 Normal termination of Gaussian 09 at Tue Dec 15 17:07:40 2015.
