 Gaussian 09, Revision D.01,
 Gaussian 09:  ES64L-G09RevD.01 24-Apr-2013

 ------------------------------------------------------------
 #P AM1(Input,print) CIS(Singlets,NStates=15) pop(full) force
 ------------------------------------------------------------

 -----------------
 AM1-Reparam Input
 -----------------
 Symbolic Z-matrix:
 Charge =  0 Multiplicity = 1

                         Standard orientation:
 ---------------------------------------------------------------------
 Center     Atomic      Atomic             Coordinates (Angstroms)
 Number     Number       Type             X           Y           Z
 ---------------------------------------------------------------------
      1          6           0        0.699464    0.957538   -0.011056
      2          6           0        1.134713   -0.301575   -0.003416
      3          8           0        0.025016   -1.146156   -0.012566
      4          6           0       -1.088091   -0.362235    0.026599
      5          6           0       -0.773046    0.941971    0.004832
      6          1           0       -1.398015    1.705741   -0.031000
      7          1           0       -2.025956   -0.964620   -0.042853
      8          1           0        2.075277   -0.823505    0.056105
      9          1           0        1.310319    1.837434    0.016522
 ---------------------------------------------------------------------

 SCF Done:  E(RAM1) =   1.76104961891     A.U. after   13 cycles

 Excitation energies and oscillator strengths:

 Excited State   1:      Singlet-A      5.1987 eV  238.49 nm  f=0.3768  <S**2>=0.000
      13 -> 14         0.69585
 This state for optimization and/or second-order correction.
 Total Energy, E(CIS) =   1.95209949158
 Copying the excited state density for this state as the 1-particle RhoCI density.

 Excited State   2:      Singlet-A      6.6369 eV  186.81 nm  f=0.0007  <S**2>=0.000
      10 -> 15         0.10012
      13 -> 15         0.67566
      13 -> 17        -0.13442

 Excited State   3:      Singlet-A      6.8447 eV  181.14 nm  f=0.0003  <S**2>=0.000
      12 -> 14         0.70183

 Excited State   4:      Singlet-A      7.1267 eV  173.97 nm  f=0.0020  <S**2>=0.000
      13 -> 16         0.66955
      13 -> 18        -0.17372

 Excited State   5:      Singlet-A      8.0422 eV  154.17 nm  f=0.0080  <S**2>=0.000
      11 -> 14         0.69930

 Excited State   6:      Singlet-A      8.4341 eV  147.00 nm  f=0.0012  <S**2>=0.000
      13 -> 15         0.12042
      13 -> 17         0.47793
      13 -> 18        -0.43740
      13 -> 22        -0.19230

 Excited State   7:      Singlet-A      9.0516 eV  136.97 nm  f=0.0191  <S**2>=0.000
      13 -> 16         0.13050
      13 -> 17         0.47859
      13 -> 18         0.46309
      13 -> 19        -0.10096

 Excited State   8:      Singlet-A      9.3550 eV  132.53 nm  f=0.0725  <S**2>=0.000
      10 -> 14         0.65772
      13 -> 20        -0.14410

 Excited State   9:      Singlet-A      9.5785 eV  129.44 nm  f=0.0016  <S**2>=0.000
      13 -> 18         0.11353
      13 -> 19         0.67812

 Excited State  10:      Singlet-A      9.7107 eV  127.68 nm  f=0.0856  <S**2>=0.000
      11 -> 17         0.10882
      11 -> 18         0.11471
      12 -> 15         0.51762
      12 -> 16        -0.22920
      12 -> 17        -0.20371
      12 -> 18         0.21652

 Excited State  11:      Singlet-A     10.3514 eV  119.77 nm  f=0.0671  <S**2>=0.000
      10 -> 14         0.15338
      11 -> 15         0.25074
      11 -> 17        -0.10445
      12 -> 15         0.31849
      12 -> 16         0.48651
      12 -> 18        -0.18312

 Excited State  12:      Singlet-A     10.4736 eV  118.38 nm  f=0.1756  <S**2>=0.000
      11 -> 15        -0.20768
      11 -> 16        -0.25391
      11 -> 17         0.16741
      11 -> 18         0.15234
      12 -> 15        -0.15051
      12 -> 16         0.36281
      12 -> 17        -0.27289
      12 -> 18         0.14425
      12 -> 19        -0.17417
      13 -> 20         0.10019

 Excited State  13:      Singlet-A     10.5521 eV  117.50 nm  f=0.0529  <S**2>=0.000
      13 -> 18         0.15897
      13 -> 19        -0.11203
      13 -> 20         0.15628
      13 -> 21         0.54221
      13 -> 22        -0.34030

 Excited State  14:      Singlet-A     10.6481 eV  116.44 nm  f=0.0751  <S**2>=0.000
      10 -> 14         0.14883
      13 -> 20         0.63973
      13 -> 22         0.15031

 Excited State  15:      Singlet-A     10.7600 eV  115.23 nm  f=0.0410  <S**2>=0.000
      13 -> 18        -0.10385
      13 -> 21         0.40017
      13 -> 22         0.54785

 The electronic state is 1-A.
 Alpha  occ. eigenvalues --   -1.90850  -1.17136  -0.92862  -0.82644  -0.78245
 Alpha  occ. eigenvalues --   -0.70196  -0.67423  -0.56971  -0.55408  -0.47419
 Alpha  occ. eigenvalues --   -0.45380  -0.41353  -0.29220
 Alpha virt. eigenvalues --    0.10353   0.17363   0.19485   0.27668   0.29133
 Alpha virt. eigenvalues --    0.30795   0.32560   0.33794   0.35685   0.41360
 Alpha virt. eigenvalues --    0.44944

 Mulliken charges:
               1
     1  C   -0.164269
     2  C   -1.986872
     3  O    3.296526
     4  C   -1.996030
     5  C   -0.212571
     6  H    0.208945
     7  H    0.325821
     8  H    0.320395
     9  H    0.208055
 Sum of Mulliken charges =   0.00000

 Dipole moment (field-independent basis, Debye):
    X=              0.1061    Y=            -11.3418    Z=             -0.3643  Tot=             11.3482
 N-N= 1.037559610667D+02 E-N=-1.689920467514D+02  KE=-1.549564299477D+01
 Orbital energies and kinetic energies (alpha):
                                 1                 2
   1         O                -1.908497         -1.357618
   2         O                -1.171358         -1.048994
   3         O                -0.928617         -0.893079
   4         O                -0.826440         -0.578245
   5         O                -0.782451         -0.686717
   6         O                -0.701963         -0.592807
   7         O                -0.674226         -0.534875

 Normal termination of Gaussian 09 at Tue Dec 15 17:09:46 2015.
