 Gaussian 09, Revision D.01,
 Gaussian 09:  ES64L-G09RevD.01 24-Apr-2013

 ------------------------------------------------------------
 #P AM1(Input,print) CIS(Singlets,NStates=15) pop(full) force
 ------------------------------------------------------------

 -----------------
 AM1-Reparam Input
 -----------------
 Symbolic Z-matrix:
 Charge =  0 Multiplicity = 1

                         Standard orientation:
 ---------------------------------------------------------------------
 Center     Atomic      Atomic             Coordinates (Angstroms)
 Number     Number       Type             X           Y           Z
 ---------------------------------------------------------------------
      1          6           0       -0.947164    0.716686   -0.010814
      2          6           0       -1.014519   -0.569908    0.008926
      3          8           0        0.305405   -1.133132   -0.007615
      4          6           0        1.159974   -0.111578   -0.002272
      5          6           0        0.462598    1.147134    0.014043
      6          1           0        0.936790    2.101913   -0.021668
      7          1           0        2.235390   -0.305277    0.012470
      8          1           0       -1.786927   -1.281373    0.020675
      9          1           0       -1.793824    1.455788   -0.009853
 ---------------------------------------------------------------------

 SCF Done:  E(RAM1) =   2.03935957419     A.U. after   14 cycles

 Excitation energies and oscillator strengths:

 Excited State   1:      Singlet-A      5.1915 eV  238.82 nm  f=0.3597  <S**2>=0.000
      13 -> 14         0.69680
 This state for optimization and/or second-order correction.
 Total Energy, E(CIS) =   2.23014268499
 Copying the excited state density for this state as the 1-particle RhoCI density.

 Excited State   2:      Singlet-A      6.3657 eV  194.77 nm  f=0.0070  <S**2>=0.000
      13 -> 15         0.63808
      13 -> 17         0.26689

 Excited State   3:      Singlet-A      6.5786 eV  188.47 nm  f=0.0013  <S**2>=0.000
      12 -> 14         0.69982

 Excited State   4:      Singlet-A      6.9700 eV  177.88 nm  f=0.0055  <S**2>=0.000
      13 -> 16         0.61716
      13 -> 18         0.30714

 Excited State   5:      Singlet-A      7.7398 eV  160.19 nm  f=0.0008  <S**2>=0.000
      10 -> 14         0.10093
      11 -> 14        -0.27558
      13 -> 15         0.12347
      13 -> 16        -0.20541
      13 -> 17        -0.19703
      13 -> 18         0.36174
      13 -> 19         0.31090
      13 -> 20         0.27009

 Excited State   6:      Singlet-A      7.8882 eV  157.18 nm  f=0.0053  <S**2>=0.000
      10 -> 14        -0.21554
      11 -> 14         0.59689
      13 -> 16        -0.11559
      13 -> 18         0.19645
      13 -> 19         0.10949
      13 -> 20         0.11721

 Excited State   7:      Singlet-A      8.4310 eV  147.06 nm  f=0.0144  <S**2>=0.000
      10 -> 15         0.10915
      13 -> 15        -0.21292
      13 -> 17         0.60126
      13 -> 18         0.19253
      13 -> 19         0.11616

 Excited State   8:      Singlet-A      8.7561 eV  141.60 nm  f=0.0749  <S**2>=0.000
      10 -> 14         0.62060
      11 -> 14         0.22545
      12 -> 17         0.10382

 Excited State   9:      Singlet-A      8.9148 eV  139.08 nm  f=0.0005  <S**2>=0.000
      13 -> 16         0.16996
      13 -> 18        -0.33204
      13 -> 19         0.57915

 Excited State  10:      Singlet-A      9.3721 eV  132.29 nm  f=0.0016  <S**2>=0.000
      13 -> 18        -0.23062
      13 -> 19        -0.13514
      13 -> 20         0.61108
      13 -> 21         0.20472

 Excited State  11:      Singlet-A      9.5196 eV  130.24 nm  f=0.0997  <S**2>=0.000
       9 -> 15        -0.11852
      10 -> 14        -0.17646
      11 -> 16         0.14195
      11 -> 18         0.16044
      12 -> 15         0.38715
      12 -> 16        -0.17941
      12 -> 17         0.24474
      12 -> 18        -0.25632
      12 -> 19        -0.13536

 Excited State  12:      Singlet-A      9.7284 eV  127.45 nm  f=0.0784  <S**2>=0.000
      13 -> 18         0.11351
      13 -> 19         0.12887
      13 -> 20        -0.14150
      13 -> 21         0.65011

 Excited State  13:      Singlet-A     10.0092 eV  123.87 nm  f=0.0324  <S**2>=0.000
      10 -> 15         0.10026
      11 -> 15        -0.17351
      11 -> 17        -0.10440
      12 -> 15         0.39357
      12 -> 16         0.43187
      12 -> 18         0.22008
      12 -> 19         0.12246

 Excited State  14:      Singlet-A     10.1542 eV  122.10 nm  f=0.2427  <S**2>=0.000
       9 -> 15        -0.11661
      11 -> 15         0.45110
      11 -> 17         0.20671
      12 -> 15        -0.14020
      12 -> 16         0.37039
      12 -> 19        -0.15074

 Excited State  15:      Singlet-A     10.2368 eV  121.12 nm  f=0.0087  <S**2>=0.000
       7 -> 15         0.13672
      10 -> 15         0.59801
      11 -> 15         0.20753
      12 -> 16        -0.10242
      13 -> 15         0.11536

 The electronic state is 1-A.
 Alpha  occ. eigenvalues --   -1.92988  -1.17966  -0.94963  -0.81580  -0.78158
 Alpha  occ. eigenvalues --   -0.68474  -0.63873  -0.55455  -0.52899  -0.44408
 Alpha  occ. eigenvalues --   -0.44278  -0.40295  -0.28349
 Alpha virt. eigenvalues --    0.10888   0.18758   0.21050   0.25296   0.28094
 Alpha virt. eigenvalues --    0.28490   0.30167   0.31405   0.34543   0.43377
 Alpha virt. eigenvalues --    0.47848

 Mulliken charges:
               1
     1  C   -0.132606
     2  C   -1.950367
     3  O    3.185609
     4  C   -2.048872
     5  C   -0.294791
     6  H    0.256827
     7  H    0.381765
     8  H    0.351108
     9  H    0.251327
 Sum of Mulliken charges =   0.00000

 Dipole moment (field-independent basis, Debye):
    X=              2.5735    Y=            -10.1857    Z=             -0.1489  Tot=             10.5068
 N-N= 1.036478242724D+02 E-N=-1.685182019471D+02  KE=-1.542498871435D+01
 Orbital energies and kinetic energies (alpha):
                                 1                 2
   1         O                -1.929876         -1.363875
   2         O                -1.179664         -1.054076
   3         O                -0.949626         -0.869366
   4         O                -0.815801         -0.595681
   5         O                -0.781583         -0.679388
   6         O                -0.684744         -0.560318
   7         O                -0.638732         -0.512277

 Normal termination of Gaussian 09 at Tue Dec 15 17:07:14 2015.
