 Gaussian 09, Revision D.01,
 Gaussian 09:  ES64L-G09RevD.01 24-Apr-2013

 ------------------------------------------------------------
 #P AM1(Input,print) CIS(Singlets,NStates=15) pop(full) force
 ------------------------------------------------------------

 -----------------
 AM1-Reparam Input
 -----------------
 Symbolic Z-matrix:
 Charge =  0 Multiplicity = 1

                         Standard orientation:
 ---------------------------------------------------------------------
 Center     Atomic      Atomic             Coordinates (Angstroms)
 Number     Number       Type             X           Y           Z
 ---------------------------------------------------------------------
      1          6           0        0.189453    1.179624   -0.007322
      2          6           0        1.110218    0.098785   -0.010080
      3          8           0        0.524540   -1.018994    0.021351
      4          6           0       -0.864042   -0.752405   -0.027256
      5          6           0       -1.003499    0.533802    0.034799
      6          1           0       -2.008220    1.067352   -0.039839
      7          1           0       -1.475100   -1.599951   -0.033952
      8          1           0        2.209512    0.142955   -0.033423
      9          1           0        0.484703    2.182759   -0.004430
 ---------------------------------------------------------------------

 SCF Done:  E(RAM1) =  0.519346300650E-01 A.U. after   14 cycles

 Excitation energies and oscillator strengths:

 Excited State   1:      Singlet-A      4.2438 eV  292.15 nm  f=0.1025  <S**2>=0.000
      12 -> 15        -0.14809
      13 -> 14         0.66888
      13 -> 16         0.11730
 This state for optimization and/or second-order correction.
 Total Energy, E(CIS) =  0.207890861245
 Copying the excited state density for this state as the 1-particle RhoCI density.

 Excited State   2:      Singlet-A      4.4458 eV  278.88 nm  f=0.0051  <S**2>=0.000
      13 -> 14        -0.11152
      13 -> 16         0.67339

 Excited State   3:      Singlet-A      5.0363 eV  246.18 nm  f=0.0410  <S**2>=0.000
      12 -> 14         0.30863
      13 -> 15         0.62620

 Excited State   4:      Singlet-A      5.4750 eV  226.45 nm  f=0.0005  <S**2>=0.000
      12 -> 17        -0.10977
      13 -> 17         0.52928
      13 -> 18        -0.11867
      13 -> 19         0.10168
      13 -> 20         0.26386
      13 -> 21        -0.28391

 Excited State   5:      Singlet-A      6.2491 eV  198.40 nm  f=0.0077  <S**2>=0.000
      11 -> 14         0.14738
      12 -> 14        -0.10654
      12 -> 16        -0.18927
      12 -> 19         0.11094
      12 -> 22         0.11444
      13 -> 18         0.42558
      13 -> 19         0.28110
      13 -> 21         0.14631
      13 -> 23         0.25846

 Excited State   6:      Singlet-A      6.2798 eV  197.43 nm  f=0.0164  <S**2>=0.000
       7 -> 16        -0.13092
      12 -> 14         0.15014
      12 -> 16         0.58852
      12 -> 19         0.10864
      13 -> 18         0.11737
      13 -> 19         0.16250
      13 -> 23         0.11376

 Excited State   7:      Singlet-A      6.4581 eV  191.98 nm  f=0.2280  <S**2>=0.000
      11 -> 14        -0.17079
      12 -> 14         0.50498
      12 -> 16        -0.22155
      13 -> 15        -0.24110
      13 -> 19         0.18262

 Excited State   8:      Singlet-A      6.5024 eV  190.67 nm  f=0.0380  <S**2>=0.000
      12 -> 14        -0.18973
      12 -> 23         0.11438
      13 -> 17        -0.11810
      13 -> 18        -0.39413
      13 -> 19         0.43526
      13 -> 21         0.11819
      13 -> 22         0.18764

 Excited State   9:      Singlet-A      6.6408 eV  186.70 nm  f=0.0387  <S**2>=0.000
      10 -> 14        -0.21959
      11 -> 14         0.55980
      11 -> 15         0.21867
      12 -> 14         0.18717

 Excited State  10:      Singlet-A      6.8893 eV  179.97 nm  f=0.1025  <S**2>=0.000
      12 -> 15         0.66498
      13 -> 14         0.12897

 Excited State  11:      Singlet-A      7.1493 eV  173.42 nm  f=0.0078  <S**2>=0.000
      12 -> 19         0.11090
      13 -> 17         0.33831
      13 -> 19        -0.18206
      13 -> 21         0.52251
      13 -> 22         0.12766

 Excited State  12:      Singlet-A      7.3418 eV  168.87 nm  f=0.0052  <S**2>=0.000
      12 -> 17        -0.13249
      12 -> 18         0.39165
      12 -> 19         0.13732
      12 -> 22        -0.10540
      12 -> 23         0.14319
      13 -> 19        -0.19685
      13 -> 21        -0.13212
      13 -> 22         0.36282
      13 -> 24         0.21543

 Excited State  13:      Singlet-A      7.5170 eV  164.94 nm  f=0.0027  <S**2>=0.000
      10 -> 14        -0.20688
      10 -> 15         0.14579
      12 -> 17         0.16173
      12 -> 18        -0.12360
      12 -> 19         0.26429
      12 -> 21         0.13125
      13 -> 18        -0.20210
      13 -> 19        -0.10516
      13 -> 20        -0.28418
      13 -> 21        -0.13126
      13 -> 23         0.33429

 Excited State  14:      Singlet-A      7.5854 eV  163.45 nm  f=0.0002  <S**2>=0.000
       9 -> 14         0.11414
       9 -> 15        -0.14104
      10 -> 14         0.40441
      10 -> 15        -0.21275
      11 -> 14         0.21339
      12 -> 19         0.11353
      12 -> 21         0.16109
      13 -> 18        -0.15189
      13 -> 19        -0.10533
      13 -> 23         0.27337
      13 -> 24         0.11376

 Excited State  15:      Singlet-A      7.7295 eV  160.40 nm  f=0.0033  <S**2>=0.000
      10 -> 14        -0.25189
      12 -> 17        -0.23120
      12 -> 21         0.11349
      13 -> 17        -0.19851
      13 -> 19        -0.13286
      13 -> 20         0.37044
      13 -> 21         0.15022
      13 -> 22        -0.20795
      13 -> 23         0.18058
      13 -> 24         0.10261

 The electronic state is 1-A.
 Alpha  occ. eigenvalues --   -1.61124  -1.26625  -1.09810  -0.83385  -0.81301
 Alpha  occ. eigenvalues --   -0.69497  -0.62214  -0.57108  -0.51699  -0.50434
 Alpha  occ. eigenvalues --   -0.48129  -0.41132  -0.33586
 Alpha virt. eigenvalues --    0.03199   0.07077   0.08770   0.13676   0.14959
 Alpha virt. eigenvalues --    0.16362   0.17596   0.18711   0.19256   0.21254
 Alpha virt. eigenvalues --    0.22725

 Mulliken charges:
               1
     1  C   -0.256508
     2  C   -0.085998
     3  O   -0.047690
     4  C   -0.145158
     5  C   -0.153909
     6  H    0.154618
     7  H    0.186423
     8  H    0.187882
     9  H    0.160341
 Sum of Mulliken charges =   0.00000

 Dipole moment (field-independent basis, Debye):
    X=              0.0720    Y=              0.2055    Z=             -0.0550  Tot=              0.2246
 N-N= 1.043677426654D+02 E-N=-1.724459066981D+02  KE=-1.666483801223D+01
 Orbital energies and kinetic energies (alpha):
                                 1                 2
   1         O                -1.611241         -1.344805
   2         O                -1.266246         -1.070914
   3         O                -1.098105         -0.957641
   4         O                -0.833847         -0.712305
   5         O                -0.813012         -0.711673
   6         O                -0.694971         -0.609078
   7         O                -0.622145         -0.499100

 Normal termination of Gaussian 09 at Tue Dec 15 16:28:55 2015.
