 Gaussian 09, Revision D.01,
 Gaussian 09:  ES64L-G09RevD.01 24-Apr-2013

 ------------------------------------------------------------
 #P AM1(Input,print) CIS(Singlets,NStates=15) pop(full) force
 ------------------------------------------------------------

 -----------------
 AM1-Reparam Input
 -----------------
 Symbolic Z-matrix:
 Charge =  0 Multiplicity = 1

                         Standard orientation:
 ---------------------------------------------------------------------
 Center     Atomic      Atomic             Coordinates (Angstroms)
 Number     Number       Type             X           Y           Z
 ---------------------------------------------------------------------
      1          6           0       -0.619851    1.030034    0.007988
      2          6           0       -1.102430   -0.219413   -0.030448
      3          8           0       -0.134311   -1.166405    0.029321
      4          6           0        1.027502   -0.459811   -0.018884
      5          6           0        0.840039    0.864140    0.005937
      6          1           0        1.535831    1.716008   -0.021504
      7          1           0        1.951865   -1.049190   -0.017593
      8          1           0       -2.137643   -0.600521   -0.033458
      9          1           0       -1.147130    1.975245    0.050430
 ---------------------------------------------------------------------

 SCF Done:  E(RAM1) =   1.80188978803     A.U. after   14 cycles

 Excitation energies and oscillator strengths:

 Excited State   1:      Singlet-A      5.3166 eV  233.20 nm  f=0.3695  <S**2>=0.000
      13 -> 14         0.69540
 This state for optimization and/or second-order correction.
 Total Energy, E(CIS) =   1.99727082138
 Copying the excited state density for this state as the 1-particle RhoCI density.

 Excited State   2:      Singlet-A      6.4427 eV  192.44 nm  f=0.0004  <S**2>=0.000
      13 -> 15         0.66478
      13 -> 17         0.15662
      13 -> 19        -0.11708

 Excited State   3:      Singlet-A      6.5584 eV  189.05 nm  f=0.0053  <S**2>=0.000
      13 -> 16         0.67202
      13 -> 18        -0.15276

 Excited State   4:      Singlet-A      7.2736 eV  170.46 nm  f=0.0001  <S**2>=0.000
      12 -> 14         0.70201

 Excited State   5:      Singlet-A      7.9327 eV  156.29 nm  f=0.0000  <S**2>=0.000
      13 -> 15        -0.13281
      13 -> 17         0.55678
      13 -> 18         0.32515
      13 -> 21         0.22689

 Excited State   6:      Singlet-A      8.4097 eV  147.43 nm  f=0.0089  <S**2>=0.000
      10 -> 14         0.63146
      11 -> 14        -0.24973
      13 -> 18        -0.15080

 Excited State   7:      Singlet-A      8.7726 eV  141.33 nm  f=0.0071  <S**2>=0.000
      10 -> 14         0.17288
      11 -> 15        -0.10915
      13 -> 16         0.11467
      13 -> 17        -0.33531
      13 -> 18         0.56420

 Excited State   8:      Singlet-A      9.0612 eV  136.83 nm  f=0.0918  <S**2>=0.000
      10 -> 14         0.24559
      11 -> 14         0.62891

 Excited State   9:      Singlet-A      9.3183 eV  133.05 nm  f=0.0001  <S**2>=0.000
      13 -> 19         0.68717

 Excited State  10:      Singlet-A      9.5543 eV  129.77 nm  f=0.0560  <S**2>=0.000
       8 -> 16         0.12769
      10 -> 16        -0.12214
      10 -> 18         0.16157
      12 -> 15         0.46541
      12 -> 16        -0.19170
      12 -> 17         0.30674
      12 -> 18         0.18029

 Excited State  11:      Singlet-A     10.1523 eV  122.12 nm  f=0.0113  <S**2>=0.000
      13 -> 17        -0.19147
      13 -> 18        -0.11591
      13 -> 20        -0.21460
      13 -> 21         0.60857

 Excited State  12:      Singlet-A     10.2260 eV  121.24 nm  f=0.0344  <S**2>=0.000
      10 -> 15         0.16750
      11 -> 15        -0.19673
      12 -> 15         0.29007
      12 -> 16         0.49147
      12 -> 18        -0.11597
      13 -> 20         0.12337
      13 -> 21         0.18211

 Excited State  13:      Singlet-A     10.2627 eV  120.81 nm  f=0.0926  <S**2>=0.000
      11 -> 15        -0.11843
      12 -> 16        -0.19991
      13 -> 20         0.60717
      13 -> 21         0.18530

 Excited State  14:      Singlet-A     10.3200 eV  120.14 nm  f=0.2379  <S**2>=0.000
      10 -> 16         0.26472
      10 -> 18        -0.17765
      11 -> 16        -0.17263
      12 -> 15         0.30228
      12 -> 16        -0.28278
      12 -> 17        -0.25984
      12 -> 18        -0.13302
      12 -> 19        -0.13742
      13 -> 20        -0.14026

 Excited State  15:      Singlet-A     10.4851 eV  118.25 nm  f=0.0090  <S**2>=0.000
       7 -> 15         0.11417
      10 -> 15         0.18244
      10 -> 16         0.22309
      11 -> 15         0.32075
      11 -> 16         0.48646
      12 -> 15         0.12179
      13 -> 15         0.11357

 The electronic state is 1-A.
 Alpha  occ. eigenvalues --   -1.99358  -1.26546  -0.99642  -0.89176  -0.84419
 Alpha  occ. eigenvalues --   -0.76380  -0.74249  -0.62028  -0.61256  -0.52227
 Alpha  occ. eigenvalues --   -0.51764  -0.48557  -0.35332
 Alpha virt. eigenvalues --    0.04788   0.11220   0.11621   0.20450   0.20755
 Alpha virt. eigenvalues --    0.23606   0.25946   0.27629   0.29575   0.38058
 Alpha virt. eigenvalues --    0.42479

 Mulliken charges:
               1
     1  C   -0.134946
     2  C   -1.881090
     3  O    3.156532
     4  C   -1.881130
     5  C   -0.126124
     6  H    0.147830
     7  H    0.286957
     8  H    0.286442
     9  H    0.145529
 Sum of Mulliken charges =   0.00000

 Dipole moment (field-independent basis, Debye):
    X=             -1.2694    Y=            -10.9321    Z=              0.7194  Tot=             11.0290
 N-N= 1.054950784745D+02 E-N=-1.705358511979D+02  KE=-1.563179779787D+01
 Orbital energies and kinetic energies (alpha):
                                 1                 2
   1         O                -1.993583         -1.377481
   2         O                -1.265463         -1.051388
   3         O                -0.996425         -0.880509
   4         O                -0.891765         -0.582022
   5         O                -0.844193         -0.699273
   6         O                -0.763802         -0.596929
   7         O                -0.742494         -0.545792

 Normal termination of Gaussian 09 at Tue Dec 15 17:08:52 2015.
