 Gaussian 09, Revision D.01,
 Gaussian 09:  ES64L-G09RevD.01 24-Apr-2013

 ------------------------------------------------------------
 #P AM1(Input,print) CIS(Singlets,NStates=15) pop(full) force
 ------------------------------------------------------------

 -----------------
 AM1-Reparam Input
 -----------------
 Symbolic Z-matrix:
 Charge =  0 Multiplicity = 1

                         Standard orientation:
 ---------------------------------------------------------------------
 Center     Atomic      Atomic             Coordinates (Angstroms)
 Number     Number       Type             X           Y           Z
 ---------------------------------------------------------------------
      1          6           0       -0.885270    0.787392    0.015701
      2          6           0       -1.065905   -0.472591   -0.015346
      3          8           0        0.213108   -1.146504    0.022311
      4          6           0        1.169657   -0.156108   -0.021829
      5          6           0        0.536669    1.068398   -0.009674
      6          1           0        1.077165    1.969415    0.057703
      7          1           0        2.133243   -0.528447   -0.004625
      8          1           0       -1.874166   -1.175156   -0.029939
      9          1           0       -1.572016    1.543671   -0.014736
 ---------------------------------------------------------------------

 SCF Done:  E(RAM1) =  -3.80404168155     A.U. after   14 cycles

 Excitation energies and oscillator strengths:

 Excited State   1:      Singlet-A      5.4092 eV  229.21 nm  f=0.0015  <S**2>=0.000
      13 -> 14         0.69080
      13 -> 18         0.11939
 This state for optimization and/or second-order correction.
 Total Energy, E(CIS) =  -3.60525710068
 Copying the excited state density for this state as the 1-particle RhoCI density.

 Excited State   2:      Singlet-A      6.2811 eV  197.39 nm  f=0.0006  <S**2>=0.000
      13 -> 16         0.53932
      13 -> 17        -0.39823
      13 -> 19        -0.11114
      13 -> 21         0.14479

 Excited State   3:      Singlet-A      7.1196 eV  174.15 nm  f=0.1821  <S**2>=0.000
      13 -> 15         0.62441
      13 -> 16        -0.13228
      13 -> 17        -0.19756

 Excited State   4:      Singlet-A      7.4022 eV  167.50 nm  f=0.0198  <S**2>=0.000
      13 -> 16        -0.13724
      13 -> 18         0.56620
      13 -> 19        -0.34728
      13 -> 20        -0.12176

 Excited State   5:      Singlet-A      7.5071 eV  165.16 nm  f=0.1764  <S**2>=0.000
      12 -> 15        -0.14635
      13 -> 15         0.25972
      13 -> 16         0.36239
      13 -> 17         0.48972
      13 -> 18         0.14978

 Excited State   6:      Singlet-A      7.6930 eV  161.17 nm  f=0.0242  <S**2>=0.000
      13 -> 17        -0.12257
      13 -> 18         0.32313
      13 -> 19         0.58290
      13 -> 21         0.10067

 Excited State   7:      Singlet-A      8.6423 eV  143.46 nm  f=0.0009  <S**2>=0.000
      12 -> 14         0.65253
      12 -> 18         0.12019
      13 -> 20        -0.11431
      13 -> 21        -0.15945

 Excited State   8:      Singlet-A      9.1981 eV  134.79 nm  f=0.0011  <S**2>=0.000
      13 -> 18         0.13721
      13 -> 20         0.65034
      13 -> 21        -0.10316

 Excited State   9:      Singlet-A      9.4870 eV  130.69 nm  f=0.0045  <S**2>=0.000
      12 -> 14         0.14912
      12 -> 18         0.13499
      13 -> 16        -0.13890
      13 -> 17         0.10689
      13 -> 21         0.62224
      13 -> 22         0.10562

 Excited State  10:      Singlet-A      9.7873 eV  126.68 nm  f=0.0267  <S**2>=0.000
      11 -> 14         0.18825
      11 -> 15        -0.12002
      11 -> 16         0.43765
      11 -> 17        -0.25792
      12 -> 16        -0.30120
      12 -> 17        -0.17566

 Excited State  11:      Singlet-A      9.9368 eV  124.77 nm  f=0.0033  <S**2>=0.000
      11 -> 15         0.58565
      11 -> 16        -0.12757
      11 -> 17        -0.29604
      13 -> 22        -0.11777

 Excited State  12:      Singlet-A     10.0785 eV  123.02 nm  f=0.0216  <S**2>=0.000
      11 -> 16         0.10194
      12 -> 15        -0.13758
      12 -> 16         0.45104
      12 -> 17        -0.37199
      12 -> 19        -0.14028
      13 -> 22         0.22474

 Excited State  13:      Singlet-A     10.2161 eV  121.36 nm  f=0.0594  <S**2>=0.000
      11 -> 14         0.39048
      11 -> 18        -0.11909
      11 -> 22        -0.10982
      12 -> 15         0.39001
      13 -> 17         0.10367
      13 -> 22         0.29502

 Excited State  14:      Singlet-A     10.2175 eV  121.35 nm  f=0.0304  <S**2>=0.000
      11 -> 14        -0.15252
      11 -> 15         0.12075
      12 -> 15        -0.18858
      12 -> 16        -0.16778
      12 -> 17         0.15496
      12 -> 19         0.13022
      13 -> 21        -0.10122
      13 -> 22         0.52165
      13 -> 23         0.14198

 Excited State  15:      Singlet-A     10.4599 eV  118.53 nm  f=0.0407  <S**2>=0.000
      11 -> 14         0.44340
      11 -> 16        -0.14935
      11 -> 17         0.15173
      11 -> 18         0.19804
      12 -> 15        -0.41502

 The electronic state is 1-A.
 Alpha  occ. eigenvalues --   -3.70007  -1.22746  -0.92688  -0.90985  -0.89403
 Alpha  occ. eigenvalues --   -0.79604  -0.73206  -0.59146  -0.57396  -0.48842
 Alpha  occ. eigenvalues --   -0.45679  -0.42462  -0.28946
 Alpha virt. eigenvalues --    0.15976   0.19267   0.20038   0.20503   0.23496
 Alpha virt. eigenvalues --    0.24810   0.30605   0.30865   0.32536   0.35282
 Alpha virt. eigenvalues --    0.39871

 Mulliken charges:
               1
     1  C    0.157191
     2  C   -1.014142
     3  O    2.264629
     4  C   -1.055101
     5  C    0.028530
     6  H   -0.119965
     7  H   -0.055124
     8  H   -0.066598
     9  H   -0.139419
 Sum of Mulliken charges =   0.00000

 Dipole moment (field-independent basis, Debye):
    X=              1.3507    Y=             -8.9515    Z=              0.4005  Tot=              9.0617
 N-N= 1.043236817421D+02 E-N=-1.709937533570D+02  KE=-2.123947094057D+01
 Orbital energies and kinetic energies (alpha):
                                 1                 2
   1         O                -3.700072         -3.042689
   2         O                -1.227464         -1.090646
   3         O                -0.926883         -0.923813
   4         O                -0.909849         -0.891389
   5         O                -0.894033         -0.768867
   6         O                -0.796036         -0.696062
   7         O                -0.732064         -0.722471

 Normal termination of Gaussian 09 at Fri Dec 11 13:41:20 2015.
