 Gaussian 09, Revision D.01,
 Gaussian 09:  ES64L-G09RevD.01 24-Apr-2013

 ------------------------------------------------------------
 #P AM1(Input,print) CIS(Singlets,NStates=15) pop(full) force
 ------------------------------------------------------------

 -----------------
 AM1-Reparam Input
 -----------------
 Symbolic Z-matrix:
 Charge =  0 Multiplicity = 1

                         Standard orientation:
 ---------------------------------------------------------------------
 Center     Atomic      Atomic             Coordinates (Angstroms)
 Number     Number       Type             X           Y           Z
 ---------------------------------------------------------------------
      1          6           0       -1.020417    0.619512   -0.026118
      2          6           0       -0.891285   -0.654347    0.012216
      3          8           0        0.411707   -1.029125   -0.003098
      4          6           0        1.176884    0.035336   -0.000925
      5          6           0        0.295869    1.087925    0.013852
      6          1           0        0.646310    2.146935   -0.021383
      7          1           0        2.242712   -0.100238    0.002443
      8          1           0       -1.675040   -1.535533   -0.006018
      9          1           0       -1.873945    1.191277    0.055588
 ---------------------------------------------------------------------

 SCF Done:  E(RAM1) =   2.57271362868     A.U. after   13 cycles

 Excitation energies and oscillator strengths:

 Excited State   1:      Singlet-A      5.3609 eV  231.27 nm  f=0.3237  <S**2>=0.000
      13 -> 14         0.69315
 This state for optimization and/or second-order correction.
 Total Energy, E(CIS) =   2.76972389749
 Copying the excited state density for this state as the 1-particle RhoCI density.

 Excited State   2:      Singlet-A      6.0673 eV  204.35 nm  f=0.0015  <S**2>=0.000
      10 -> 15         0.12088
      13 -> 15         0.67537
      13 -> 17         0.10608

 Excited State   3:      Singlet-A      6.5177 eV  190.23 nm  f=0.0037  <S**2>=0.000
      10 -> 16        -0.10040
      13 -> 16         0.64835
      13 -> 17         0.19113
      13 -> 18        -0.10802
      13 -> 19        -0.10056

 Excited State   4:      Singlet-A      6.7539 eV  183.57 nm  f=0.0002  <S**2>=0.000
       9 -> 14         0.12503
      12 -> 14         0.69025

 Excited State   5:      Singlet-A      7.7152 eV  160.70 nm  f=0.0068  <S**2>=0.000
      11 -> 14        -0.17086
      13 -> 17         0.44029
      13 -> 18         0.44254
      13 -> 20        -0.12762
      13 -> 21         0.20917

 Excited State   6:      Singlet-A      7.8672 eV  157.60 nm  f=0.0034  <S**2>=0.000
      11 -> 14         0.66543
      13 -> 18         0.17621

 Excited State   7:      Singlet-A      8.2767 eV  149.80 nm  f=0.0060  <S**2>=0.000
      10 -> 16         0.13165
      11 -> 14         0.11366
      13 -> 16        -0.18075
      13 -> 17         0.49099
      13 -> 18        -0.38562
      13 -> 20         0.11680
      13 -> 21        -0.14049

 Excited State   8:      Singlet-A      8.7921 eV  141.02 nm  f=0.0732  <S**2>=0.000
       8 -> 15         0.14165
      10 -> 14         0.43371
      11 -> 18         0.10157
      12 -> 15         0.47711

 Excited State   9:      Singlet-A      8.8583 eV  139.96 nm  f=0.0020  <S**2>=0.000
      13 -> 19         0.67338

 Excited State  10:      Singlet-A      9.1295 eV  135.81 nm  f=0.1250  <S**2>=0.000
      10 -> 14         0.46291
      12 -> 15        -0.35746
      12 -> 16         0.33039

 Excited State  11:      Singlet-A      9.3341 eV  132.83 nm  f=0.0926  <S**2>=0.000
       9 -> 16        -0.14586
      10 -> 14        -0.23595
      11 -> 16        -0.20343
      11 -> 17        -0.11760
      12 -> 15         0.14693
      12 -> 16         0.47997
      12 -> 17         0.27204

 Excited State  12:      Singlet-A      9.4498 eV  131.20 nm  f=0.0594  <S**2>=0.000
       9 -> 15        -0.15800
      11 -> 15         0.35672
      11 -> 16         0.12641
      11 -> 17         0.21065
      12 -> 15         0.15234
      12 -> 16         0.22936
      12 -> 17        -0.12981
      12 -> 18        -0.29628
      13 -> 20         0.17925

 Excited State  13:      Singlet-A      9.5080 eV  130.40 nm  f=0.0266  <S**2>=0.000
      11 -> 15        -0.11420
      13 -> 18         0.29282
      13 -> 20         0.48040
      13 -> 21        -0.33579

 Excited State  14:      Singlet-A      9.8602 eV  125.74 nm  f=0.0109  <S**2>=0.000
       9 -> 14         0.63095
      12 -> 14        -0.11679
      13 -> 20        -0.20406
      13 -> 21        -0.13513

 Excited State  15:      Singlet-A      9.8960 eV  125.29 nm  f=0.0596  <S**2>=0.000
       8 -> 15        -0.12472
       9 -> 15        -0.23813
      10 -> 14         0.10291
      10 -> 15         0.25803
      10 -> 16         0.11533
      11 -> 15         0.37135
      11 -> 19         0.12613
      12 -> 15        -0.11194
      12 -> 16        -0.14247
      12 -> 17         0.21145
      12 -> 18         0.20331

 The electronic state is 1-A.
 Alpha  occ. eigenvalues --   -1.77030  -1.18031  -0.96431  -0.82134  -0.75882
 Alpha  occ. eigenvalues --   -0.67073  -0.66595  -0.56321  -0.49616  -0.44929
 Alpha  occ. eigenvalues --   -0.44143  -0.40247  -0.29427
 Alpha virt. eigenvalues --    0.11384   0.15333   0.17686   0.24418   0.26905
 Alpha virt. eigenvalues --    0.28588   0.30543   0.32697   0.41379   0.50119
 Alpha virt. eigenvalues --    0.55551

 Mulliken charges:
               1
     1  C   -0.011155
     2  C   -1.920823
     3  O    3.233384
     4  C   -1.944382
     5  C   -0.152570
     6  H    0.134534
     7  H    0.269684
     8  H    0.272490
     9  H    0.118838
 Sum of Mulliken charges =   0.00000

 Dipole moment (field-independent basis, Debye):
    X=              3.0412    Y=             -9.6018    Z=             -0.1426  Tot=             10.0729
 N-N= 1.046885377003D+02 E-N=-1.701720916546D+02  KE=-1.510238285466D+01
 Orbital energies and kinetic energies (alpha):
                                 1                 2
   1         O                -1.770296         -1.285921
   2         O                -1.180311         -1.020694
   3         O                -0.964311         -0.864359
   4         O                -0.821339         -0.615904
   5         O                -0.758816         -0.680732
   6         O                -0.670735         -0.571746
   7         O                -0.665949         -0.537364

 Normal termination of Gaussian 09 at Tue Dec 15 17:06:16 2015.
