 Gaussian 09, Revision D.01,
 Gaussian 09:  ES64L-G09RevD.01 24-Apr-2013

 ------------------------------------------------------------
 #P AM1(Input,print) CIS(Singlets,NStates=15) pop(full) force
 ------------------------------------------------------------

 -----------------
 AM1-Reparam Input
 -----------------
 Symbolic Z-matrix:
 Charge =  0 Multiplicity = 1

                         Standard orientation:
 ---------------------------------------------------------------------
 Center     Atomic      Atomic             Coordinates (Angstroms)
 Number     Number       Type             X           Y           Z
 ---------------------------------------------------------------------
      1          6           0        0.559627    1.015389   -0.006607
      2          6           0        1.137285   -0.187972   -0.011430
      3          8           0        0.185658   -1.112927   -0.013445
      4          6           0       -1.030920   -0.500435    0.009945
      5          6           0       -0.857226    0.843068    0.026187
      6          1           0       -1.665486    1.532788   -0.070999
      7          1           0       -1.887181   -1.162659   -0.006423
      8          1           0        2.129413   -0.494770    0.098703
      9          1           0        1.085399    2.007760   -0.022291
 ---------------------------------------------------------------------

 SCF Done:  E(RAM1) =   2.04592142046     A.U. after   13 cycles

 Excitation energies and oscillator strengths:

 Excited State   1:      Singlet-A      5.3535 eV  231.59 nm  f=0.3399  <S**2>=0.000
      13 -> 14         0.69386
 This state for optimization and/or second-order correction.
 Total Energy, E(CIS) =   2.24265979530
 Copying the excited state density for this state as the 1-particle RhoCI density.

 Excited State   2:      Singlet-A      6.7852 eV  182.73 nm  f=0.0042  <S**2>=0.000
      12 -> 14         0.65875
      13 -> 15         0.20893

 Excited State   3:      Singlet-A      6.8098 eV  182.07 nm  f=0.0133  <S**2>=0.000
      12 -> 14        -0.21143
      13 -> 15         0.62606
      13 -> 17         0.21406

 Excited State   4:      Singlet-A      6.9555 eV  178.25 nm  f=0.0000  <S**2>=0.000
      13 -> 16         0.61477
      13 -> 18         0.28955

 Excited State   5:      Singlet-A      7.6634 eV  161.79 nm  f=0.0068  <S**2>=0.000
      10 -> 14        -0.17673
      11 -> 14         0.67462

 Excited State   6:      Singlet-A      7.9379 eV  156.19 nm  f=0.0000  <S**2>=0.000
      13 -> 16        -0.20674
      13 -> 17         0.17247
      13 -> 18         0.30999
      13 -> 19         0.46842
      13 -> 20        -0.29030

 Excited State   7:      Singlet-A      8.7246 eV  142.11 nm  f=0.0170  <S**2>=0.000
      10 -> 16         0.14497
      13 -> 15        -0.18502
      13 -> 17         0.62389
      13 -> 19        -0.12484
      13 -> 20         0.12550

 Excited State   8:      Singlet-A      8.8306 eV  140.40 nm  f=0.1202  <S**2>=0.000
      10 -> 14         0.66862
      11 -> 14         0.17218

 Excited State   9:      Singlet-A      9.0368 eV  137.20 nm  f=0.0003  <S**2>=0.000
      10 -> 15         0.12159
      13 -> 16        -0.19949
      13 -> 18         0.47239
      13 -> 19        -0.45307

 Excited State  10:      Singlet-A      9.5288 eV  130.12 nm  f=0.0116  <S**2>=0.000
       9 -> 16        -0.12499
      11 -> 15         0.27070
      11 -> 17         0.18862
      12 -> 15        -0.14899
      12 -> 16        -0.24242
      12 -> 17        -0.18656
      12 -> 18        -0.22267
      12 -> 19        -0.23979
      13 -> 19         0.10262
      13 -> 20         0.21087

 Excited State  11:      Singlet-A      9.5573 eV  129.73 nm  f=0.0146  <S**2>=0.000
      11 -> 15        -0.10916
      12 -> 16         0.10848
      13 -> 18         0.23906
      13 -> 19         0.20178
      13 -> 20         0.55618
      13 -> 21         0.12148

 Excited State  12:      Singlet-A      9.8579 eV  125.77 nm  f=0.1048  <S**2>=0.000
      11 -> 16         0.11723
      12 -> 15         0.50553
      12 -> 16        -0.35556
      12 -> 17         0.14110
      12 -> 18        -0.20916

 Excited State  13:      Singlet-A      9.9805 eV  124.23 nm  f=0.0637  <S**2>=0.000
      13 -> 20        -0.16080
      13 -> 21         0.67258

 Excited State  14:      Singlet-A     10.2254 eV  121.25 nm  f=0.1819  <S**2>=0.000
      11 -> 15         0.36710
      11 -> 16         0.30330
      11 -> 17         0.15346
      12 -> 15         0.23895
      12 -> 16         0.35085
      12 -> 19        -0.13797

 Excited State  15:      Singlet-A     10.3943 eV  119.28 nm  f=0.0197  <S**2>=0.000
       8 -> 16        -0.13015
       9 -> 14        -0.10502
       9 -> 15        -0.12523
      10 -> 15         0.46101
      10 -> 17         0.10796
      11 -> 15         0.10578
      11 -> 16         0.15365
      11 -> 19        -0.17260
      12 -> 15        -0.16294
      12 -> 16        -0.17660
      12 -> 19         0.19805
      13 -> 16         0.11116

 The electronic state is 1-A.
 Alpha  occ. eigenvalues --   -1.95419  -1.20494  -0.97306  -0.82929  -0.78759
 Alpha  occ. eigenvalues --   -0.68988  -0.66239  -0.56083  -0.54006  -0.45034
 Alpha  occ. eigenvalues --   -0.44059  -0.41555  -0.29916
 Alpha virt. eigenvalues --    0.10511   0.19011   0.19671   0.25201   0.26995
 Alpha virt. eigenvalues --    0.28055   0.29615   0.30543   0.36648   0.45126
 Alpha virt. eigenvalues --    0.50239

 Mulliken charges:
               1
     1  C   -0.241740
     2  C   -2.012028
     3  O    3.191378
     4  C   -2.014919
     5  C   -0.191155
     6  H    0.258539
     7  H    0.367424
     8  H    0.376361
     9  H    0.266142
 Sum of Mulliken charges =   0.00000

 Dipole moment (field-independent basis, Debye):
    X=              1.6306    Y=             -9.6028    Z=             -0.0831  Tot=              9.7407
 N-N= 1.048466394529D+02 E-N=-1.704520103675D+02  KE=-1.553368106995D+01
 Orbital energies and kinetic energies (alpha):
                                 1                 2
   1         O                -1.954191         -1.411467
   2         O                -1.204939         -1.060931
   3         O                -0.973061         -0.876632
   4         O                -0.829289         -0.603874
   5         O                -0.787593         -0.685266
   6         O                -0.689877         -0.560500
   7         O                -0.662390         -0.526896

 Normal termination of Gaussian 09 at Tue Dec 15 17:07:18 2015.
