 Gaussian 09, Revision D.01,
 Gaussian 09:  ES64L-G09RevD.01 24-Apr-2013

 ------------------------------------------------------------
 #P AM1(Input,print) CIS(Singlets,NStates=15) pop(full) force
 ------------------------------------------------------------

 -----------------
 AM1-Reparam Input
 -----------------
 Symbolic Z-matrix:
 Charge =  0 Multiplicity = 1

                         Standard orientation:
 ---------------------------------------------------------------------
 Center     Atomic      Atomic             Coordinates (Angstroms)
 Number     Number       Type             X           Y           Z
 ---------------------------------------------------------------------
      1          6           0       -1.115220    0.506248    0.010032
      2          6           0       -0.781567   -0.769679   -0.008981
      3          8           0        0.554626   -1.039254   -0.005218
      4          6           0        1.133608    0.197050    0.015542
      5          6           0        0.174769    1.171781   -0.010840
      6          1           0        0.351075    2.265793    0.005408
      7          1           0        2.262143    0.197772   -0.014644
      8          1           0       -1.455427   -1.702582    0.031262
      9          1           0       -2.064344    0.920648   -0.014796
 ---------------------------------------------------------------------

 SCF Done:  E(RAM1) =   2.12638653213     A.U. after   13 cycles

 Excitation energies and oscillator strengths:

 Excited State   1:      Singlet-A      5.4037 eV  229.44 nm  f=0.3529  <S**2>=0.000
      13 -> 14         0.69624
 This state for optimization and/or second-order correction.
 Total Energy, E(CIS) =   2.32497000687
 Copying the excited state density for this state as the 1-particle RhoCI density.

 Excited State   2:      Singlet-A      5.9293 eV  209.11 nm  f=0.0002  <S**2>=0.000
      11 -> 15         0.11662
      13 -> 15         0.68264

 Excited State   3:      Singlet-A      6.3583 eV  195.00 nm  f=0.0003  <S**2>=0.000
      11 -> 16        -0.12121
      13 -> 16         0.67393

 Excited State   4:      Singlet-A      7.1291 eV  173.91 nm  f=0.0002  <S**2>=0.000
      12 -> 14         0.70075

 Excited State   5:      Singlet-A      7.9555 eV  155.85 nm  f=0.0048  <S**2>=0.000
      13 -> 17         0.45886
      13 -> 18        -0.38388
      13 -> 19        -0.20617
      13 -> 22        -0.25041

 Excited State   6:      Singlet-A      8.2162 eV  150.90 nm  f=0.0116  <S**2>=0.000
      10 -> 14         0.41948
      13 -> 16        -0.10674
      13 -> 17        -0.36205
      13 -> 18        -0.35820
      13 -> 19        -0.12051
      13 -> 22        -0.14820

 Excited State   7:      Singlet-A      8.3743 eV  148.05 nm  f=0.0004  <S**2>=0.000
      10 -> 14         0.55289
      13 -> 17         0.35482
      13 -> 18         0.19564

 Excited State   8:      Singlet-A      8.9191 eV  139.01 nm  f=0.0616  <S**2>=0.000
       9 -> 15         0.10166
      11 -> 14         0.61670
      12 -> 15         0.21419
      13 -> 21         0.16401

 Excited State   9:      Singlet-A      8.9580 eV  138.41 nm  f=0.0038  <S**2>=0.000
      13 -> 18        -0.26521
      13 -> 19         0.63157

 Excited State  10:      Singlet-A      9.3186 eV  133.05 nm  f=0.1600  <S**2>=0.000
       9 -> 15         0.17215
      11 -> 14        -0.19826
      12 -> 15         0.53852
      12 -> 16        -0.23430
      12 -> 18         0.12437

 Excited State  11:      Singlet-A      9.4951 eV  130.58 nm  f=0.0135  <S**2>=0.000
      13 -> 18        -0.29910
      13 -> 20        -0.38608
      13 -> 22         0.48045

 Excited State  12:      Singlet-A      9.8281 eV  126.15 nm  f=0.0792  <S**2>=0.000
      11 -> 15         0.22887
      11 -> 16        -0.15494
      13 -> 18        -0.10161
      13 -> 20         0.47634
      13 -> 22         0.38268

 Excited State  13:      Singlet-A      9.8821 eV  125.46 nm  f=0.0907  <S**2>=0.000
       9 -> 16        -0.10744
      10 -> 15        -0.11420
      11 -> 14        -0.15544
      12 -> 15         0.21333
      12 -> 16         0.58240
      12 -> 18        -0.13775

 Excited State  14:      Singlet-A      9.9042 eV  125.18 nm  f=0.0034  <S**2>=0.000
       7 -> 15        -0.12470
      11 -> 15         0.59238
      11 -> 16         0.24646
      13 -> 15        -0.13297
      13 -> 20        -0.15411

 Excited State  15:      Singlet-A     10.1025 eV  122.73 nm  f=0.0018  <S**2>=0.000
       7 -> 16         0.11819
      11 -> 15        -0.19223
      11 -> 16         0.59243
      13 -> 16         0.14774
      13 -> 20         0.20319
      13 -> 22         0.12905

 The electronic state is 1-A.
 Alpha  occ. eigenvalues --   -1.93278  -1.19045  -0.91882  -0.80211  -0.77294
 Alpha  occ. eigenvalues --   -0.68570  -0.65599  -0.53673  -0.52726  -0.44523
 Alpha  occ. eigenvalues --   -0.43750  -0.40558  -0.27792
 Alpha virt. eigenvalues --    0.12521   0.16339   0.17768   0.26801   0.28585
 Alpha virt. eigenvalues --    0.30438   0.31926   0.32129   0.33635   0.40866
 Alpha virt. eigenvalues --    0.44283

 Mulliken charges:
               1
     1  C   -0.135757
     2  C   -1.862098
     3  O    3.192803
     4  C   -1.867953
     5  C   -0.159559
     6  H    0.152957
     7  H    0.261844
     8  H    0.267377
     9  H    0.150387
 Sum of Mulliken charges =   0.00000

 Dipole moment (field-independent basis, Debye):
    X=              4.9578    Y=            -10.2733    Z=             -0.1023  Tot=             11.4075
 N-N= 1.039020189457D+02 E-N=-1.690793076948D+02  KE=-1.529389070542D+01
 Orbital energies and kinetic energies (alpha):
                                 1                 2
   1         O                -1.932776         -1.357296
   2         O                -1.190449         -1.059849
   3         O                -0.918823         -0.881898
   4         O                -0.802112         -0.557504
   5         O                -0.772944         -0.669578
   6         O                -0.685700         -0.590294
   7         O                -0.655989         -0.529790

 Normal termination of Gaussian 09 at Tue Dec 15 17:08:33 2015.
