 Gaussian 09, Revision D.01,
 Gaussian 09:  ES64L-G09RevD.01 24-Apr-2013

 ------------------------------------------------------------
 #P AM1(Input,print) CIS(Singlets,NStates=15) pop(full) force
 ------------------------------------------------------------

 -----------------
 AM1-Reparam Input
 -----------------
 Symbolic Z-matrix:
 Charge =  0 Multiplicity = 1

                         Standard orientation:
 ---------------------------------------------------------------------
 Center     Atomic      Atomic             Coordinates (Angstroms)
 Number     Number       Type             X           Y           Z
 ---------------------------------------------------------------------
      1          6           0        0.962296    0.749562    0.007155
      2          6           0        0.974707   -0.643081   -0.023719
      3          8           0       -0.345927   -1.140192    0.028641
      4          6           0       -1.173187   -0.023624   -0.018379
      5          6           0       -0.399275    1.114596   -0.003523
      6          1           0       -0.804527    2.105082    0.016803
      7          1           0       -2.203463   -0.163177   -0.018833
      8          1           0        1.747143   -1.331401   -0.043330
      9          1           0        1.841019    1.326315    0.047029
 ---------------------------------------------------------------------

 SCF Done:  E(RAM1) =  0.132176527978E-01 A.U. after   13 cycles

 Excitation energies and oscillator strengths:

 Excited State   1:      Singlet-A      4.1973 eV  295.39 nm  f=0.1032  <S**2>=0.000
      12 -> 15         0.17385
      13 -> 14         0.67619
 This state for optimization and/or second-order correction.
 Total Energy, E(CIS) =  0.167466742102
 Copying the excited state density for this state as the 1-particle RhoCI density.

 Excited State   2:      Singlet-A      4.7656 eV  260.16 nm  f=0.0006  <S**2>=0.000
      13 -> 16         0.69055
      13 -> 22        -0.10719

 Excited State   3:      Singlet-A      4.9093 eV  252.55 nm  f=0.0074  <S**2>=0.000
      12 -> 14        -0.41886
      13 -> 15         0.56145

 Excited State   4:      Singlet-A      5.8176 eV  213.12 nm  f=0.0036  <S**2>=0.000
      12 -> 16         0.15460
      12 -> 18        -0.14658
      12 -> 21        -0.11131
      13 -> 17         0.41840
      13 -> 18        -0.36130
      13 -> 21        -0.14766
      13 -> 23         0.20699

 Excited State   5:      Singlet-A      5.8797 eV  210.87 nm  f=0.0013  <S**2>=0.000
      12 -> 17         0.17663
      12 -> 19        -0.12050
      12 -> 23         0.12496
      13 -> 17        -0.29727
      13 -> 18        -0.25167
      13 -> 19         0.37874
      13 -> 21        -0.21531
      13 -> 22        -0.20307
      13 -> 23        -0.15998

 Excited State   6:      Singlet-A      5.9350 eV  208.90 nm  f=0.0023  <S**2>=0.000
       7 -> 16        -0.21462
      12 -> 16         0.62969
      12 -> 22        -0.11434
      13 -> 17        -0.10297

 Excited State   7:      Singlet-A      6.0888 eV  203.63 nm  f=0.3723  <S**2>=0.000
       9 -> 16        -0.10141
      12 -> 14         0.52358
      13 -> 15         0.39901

 Excited State   8:      Singlet-A      6.4491 eV  192.25 nm  f=0.1198  <S**2>=0.000
      12 -> 15         0.67376
      13 -> 14        -0.15945

 Excited State   9:      Singlet-A      6.5482 eV  189.34 nm  f=0.0059  <S**2>=0.000
      13 -> 17         0.18548
      13 -> 18         0.43317
      13 -> 19         0.46761
      13 -> 23         0.13265

 Excited State  10:      Singlet-A      6.9860 eV  177.48 nm  f=0.0057  <S**2>=0.000
       9 -> 14         0.18913
       9 -> 15         0.11165
      10 -> 14         0.56170
      11 -> 14        -0.12333
      11 -> 15        -0.27913
      13 -> 23        -0.10078

 Excited State  11:      Singlet-A      7.1449 eV  173.53 nm  f=0.0008  <S**2>=0.000
       9 -> 14        -0.15405
      10 -> 14         0.19388
      10 -> 15        -0.28456
      11 -> 14         0.55943
      13 -> 22        -0.10956

 Excited State  12:      Singlet-A      7.1764 eV  172.77 nm  f=0.0004  <S**2>=0.000
      12 -> 18         0.43152
      12 -> 19         0.35139
      12 -> 20         0.14148
      12 -> 23         0.10370
      13 -> 18        -0.16161
      13 -> 19         0.21094
      13 -> 21         0.12256
      13 -> 22         0.17886

 Excited State  13:      Singlet-A      7.3923 eV  167.72 nm  f=0.0011  <S**2>=0.000
       7 -> 16         0.11475
      12 -> 18         0.22167
      12 -> 19        -0.27645
      12 -> 22         0.19408
      13 -> 17         0.32908
      13 -> 20         0.11175
      13 -> 22        -0.12670
      13 -> 23        -0.18382
      13 -> 24         0.32022

 Excited State  14:      Singlet-A      7.4784 eV  165.79 nm  f=0.0010  <S**2>=0.000
       9 -> 15         0.12692
      11 -> 15         0.10001
      12 -> 17         0.49764
      12 -> 20         0.19945
      12 -> 23         0.14364
      12 -> 24         0.16572
      13 -> 18         0.13416
      13 -> 19        -0.14087
      13 -> 21        -0.18442
      13 -> 22         0.14255

 Excited State  15:      Singlet-A      7.6249 eV  162.60 nm  f=0.0007  <S**2>=0.000
      12 -> 17         0.12923
      12 -> 18        -0.12029
      12 -> 19        -0.17635
      12 -> 20        -0.21607
      12 -> 23        -0.13587
      13 -> 18        -0.11798
      13 -> 19         0.13536
      13 -> 22         0.52213

 The electronic state is 1-A.
 Alpha  occ. eigenvalues --   -1.53132  -1.23434  -1.09268  -0.82863  -0.81211
 Alpha  occ. eigenvalues --   -0.68296  -0.58593  -0.57129  -0.51335  -0.50560
 Alpha  occ. eigenvalues --   -0.49954  -0.39789  -0.34108
 Alpha virt. eigenvalues --    0.02110   0.06199   0.09401   0.14353   0.14945
 Alpha virt. eigenvalues --    0.15429   0.18058   0.18372   0.19051   0.20749
 Alpha virt. eigenvalues --    0.21500

 Mulliken charges:
               1
     1  C   -0.182724
     2  C   -0.105214
     3  O   -0.097506
     4  C   -0.093934
     5  C   -0.199321
     6  H    0.152639
     7  H    0.184709
     8  H    0.182068
     9  H    0.159283
 Sum of Mulliken charges =   0.00000

 Dipole moment (field-independent basis, Debye):
    X=              0.1641    Y=              0.5151    Z=              0.0181  Tot=              0.5409
 N-N= 1.029315946626D+02 E-N=-1.701376261759D+02  KE=-1.650567274595D+01
 Orbital energies and kinetic energies (alpha):
                                 1                 2
   1         O                -1.531323         -1.291654
   2         O                -1.234344         -1.048089
   3         O                -1.092685         -0.959954
   4         O                -0.828626         -0.738018
   5         O                -0.812108         -0.701275
   6         O                -0.682957         -0.601690
   7         O                -0.585934         -0.476142

 Normal termination of Gaussian 09 at Tue Dec 15 16:28:10 2015.
