 Gaussian 09, Revision D.01,
 Gaussian 09:  ES64L-G09RevD.01 24-Apr-2013

 -------------------------------------------------------
 #P B3LYP/3-21G CIS(Singlets,NStates=15) pop(full) force
 -------------------------------------------------------

 --------
 FuranDFT
 --------
 Symbolic Z-matrix:
 Charge =  0 Multiplicity = 1

                         Standard orientation:
 ---------------------------------------------------------------------
 Center     Atomic      Atomic             Coordinates (Angstroms)
 Number     Number       Type             X           Y           Z
 ---------------------------------------------------------------------
      1          6           0        0.910887    0.802540   -0.001698
      2          6           0        0.997376   -0.549908    0.016192
      3          8           0       -0.229411   -1.131440    0.005287
      4          6           0       -1.140191   -0.141281   -0.031029
      5          6           0       -0.524155    1.083897    0.002240
      6          1           0       -0.998771    2.070282    0.039637
      7          1           0       -2.167242   -0.445418    0.063473
      8          1           0        1.798177   -1.214087   -0.038172
      9          1           0        1.739618    1.469259   -0.021473
 ---------------------------------------------------------------------

 SCF Done:  E(RB3LYP) =  -228.747260076     A.U. after   14 cycles

 Excitation energies and oscillator strengths:

 Excited State   1:      Singlet-A      7.1698 eV  172.92 nm  f=0.0060  <S**2>=0.000
      17 -> 19         0.49699
      18 -> 19        -0.12631
      18 -> 20         0.47771
 This state for optimization and/or second-order correction.
 Total Energy, E(CIS) =  -228.483773803
 Copying the excited state density for this state as the 1-particle RhoCI density.

 Excited State   2:      Singlet-A      7.3597 eV  168.46 nm  f=0.2166  <S**2>=0.000
      17 -> 19         0.10706
      18 -> 19         0.67253

 Excited State   3:      Singlet-A      8.7569 eV  141.58 nm  f=0.0003  <S**2>=0.000
      18 -> 21         0.69818

 Excited State   4:      Singlet-A      8.9057 eV  139.22 nm  f=0.0051  <S**2>=0.000
      16 -> 19         0.70060

 Excited State   5:      Singlet-A      9.3130 eV  133.13 nm  f=0.1638  <S**2>=0.000
      17 -> 19         0.11303
      17 -> 20         0.65467
      18 -> 20        -0.13211

 Excited State   6:      Singlet-A      9.5159 eV  130.29 nm  f=0.0981  <S**2>=0.000
      17 -> 19        -0.19185
      17 -> 20         0.11889
      17 -> 21        -0.10172
      18 -> 20         0.21126
      18 -> 22         0.59135

 Excited State   7:      Singlet-A      9.7646 eV  126.97 nm  f=0.4077  <S**2>=0.000
      17 -> 19        -0.36145
      17 -> 20         0.14040
      17 -> 21         0.17197
      18 -> 20         0.38451
      18 -> 22        -0.22988
      18 -> 23         0.21279
      18 -> 24         0.11117

 Excited State   8:      Singlet-A      9.8286 eV  126.15 nm  f=0.0522  <S**2>=0.000
      17 -> 19         0.12779
      17 -> 21         0.48255
      18 -> 20        -0.13292
      18 -> 22         0.25954
      18 -> 23         0.33624
      18 -> 24         0.15170

 Excited State   9:      Singlet-A      9.9523 eV  124.58 nm  f=0.0044  <S**2>=0.000
      15 -> 19         0.41157
      17 -> 21         0.39923
      18 -> 23        -0.38939

 Excited State  10:      Singlet-A     10.0861 eV  122.93 nm  f=0.0031  <S**2>=0.000
      15 -> 19         0.54584
      17 -> 21        -0.20684
      18 -> 23         0.35703
      18 -> 24         0.14178

 Excited State  11:      Singlet-A     10.2895 eV  120.50 nm  f=0.0112  <S**2>=0.000
      14 -> 19         0.39331
      16 -> 20         0.55301
      18 -> 24         0.11106

 Excited State  12:      Singlet-A     10.3254 eV  120.08 nm  f=0.0015  <S**2>=0.000
      15 -> 19        -0.10024
      16 -> 20        -0.10041
      17 -> 21        -0.12050
      18 -> 23        -0.18192
      18 -> 24         0.64854

 Excited State  13:      Singlet-A     10.6914 eV  115.97 nm  f=0.0035  <S**2>=0.000
      14 -> 19        -0.38915
      16 -> 20         0.26994
      17 -> 22         0.50228

 Excited State  14:      Singlet-A     10.7337 eV  115.51 nm  f=0.0029  <S**2>=0.000
      14 -> 19         0.40793
      16 -> 20        -0.27780
      17 -> 22         0.47254

 Excited State  15:      Singlet-A     11.0774 eV  111.93 nm  f=0.0050  <S**2>=0.000
      17 -> 23         0.25271
      17 -> 24         0.15210
      17 -> 25        -0.11411
      18 -> 25         0.58389
      18 -> 26        -0.20302

 The electronic state is 1-A.
 Alpha  occ. eigenvalues --  -19.11472 -10.17607 -10.17105 -10.13008 -10.12633
 Alpha  occ. eigenvalues --   -1.13519  -0.80035  -0.75321  -0.60684  -0.57107
 Alpha  occ. eigenvalues --   -0.54147  -0.45614  -0.44624  -0.42053  -0.39967
 Alpha  occ. eigenvalues --   -0.36275  -0.27492  -0.23321
 Alpha virt. eigenvalues --    0.02321   0.07447   0.13545   0.16095   0.17845
 Alpha virt. eigenvalues --    0.18582   0.21980   0.23012   0.35318   0.41521
 Alpha virt. eigenvalues --    0.46600   0.69194   0.69887   0.70066   0.74337

 Mulliken charges:
               1
     1  C   -0.251244
     2  C    0.086951
     3  O   -0.488799
     4  C    0.099475
     5  C   -0.257201
     6  H    0.186139
     7  H    0.216167
     8  H    0.218259
     9  H    0.190252
 Sum of Mulliken charges =   0.00000

 Dipole moment (field-independent basis, Debye):
    X=              0.1692    Y=              0.6294    Z=              0.0379  Tot=              0.6528
 Quadrupole moment (field-independent basis, Debye-Ang):
   XX=            -23.8020   YY=            -27.9362   ZZ=            -31.8061
   XY=             -0.7144   XZ=             -0.3782   YZ=              0.0940

 Normal termination of Gaussian 09 at Tue Dec 15 16:25:37 2015.
