 Gaussian 09, Revision D.01,
 Gaussian 09:  ES64L-G09RevD.01 24-Apr-2013

 ------------------------------------------------------------
 #P AM1(Input,print) CIS(Singlets,NStates=15) pop(full) force
 ------------------------------------------------------------

 -----------------
 AM1-Reparam Input
 -----------------
 Symbolic Z-matrix:
 Charge =  0 Multiplicity = 1

                         Standard orientation:
 ---------------------------------------------------------------------
 Center     Atomic      Atomic             Coordinates (Angstroms)
 Number     Number       Type             X           Y           Z
 ---------------------------------------------------------------------
      1          6           0       -0.244090    1.138976    0.015891
      2          6           0       -1.154905    0.138667   -0.008544
      3          8           0       -0.490985   -1.047759    0.008506
      4          6           0        0.834666   -0.734532   -0.013608
      5          6           0        1.090518    0.567164   -0.001785
      6          1           0        1.981054    1.088215   -0.020108
      7          1           0        1.450457   -1.651998    0.033422
      8          1           0       -2.169599    0.093377   -0.031228
      9          1           0       -0.491172    2.190821   -0.001858
 ---------------------------------------------------------------------

 SCF Done:  E(RAM1) =   1.86971289692     A.U. after   14 cycles

 Excitation energies and oscillator strengths:

 Excited State   1:      Singlet-A      5.5418 eV  223.73 nm  f=0.3346  <S**2>=0.000
      13 -> 14         0.69213
 This state for optimization and/or second-order correction.
 Total Energy, E(CIS) =   2.07336964199
 Copying the excited state density for this state as the 1-particle RhoCI density.

 Excited State   2:      Singlet-A      6.1118 eV  202.86 nm  f=0.0005  <S**2>=0.000
      10 -> 15         0.12041
      13 -> 15         0.67801
      13 -> 17        -0.10012

 Excited State   3:      Singlet-A      6.5398 eV  189.58 nm  f=0.0003  <S**2>=0.000
      12 -> 14         0.69750

 Excited State   4:      Singlet-A      6.6854 eV  185.46 nm  f=0.0023  <S**2>=0.000
      10 -> 16        -0.10479
      13 -> 16         0.65818
      13 -> 17        -0.13622
      13 -> 18         0.13451

 Excited State   5:      Singlet-A      7.8376 eV  158.19 nm  f=0.0111  <S**2>=0.000
      11 -> 14         0.51826
      13 -> 17         0.38034
      13 -> 18         0.22037
      13 -> 21        -0.13762

 Excited State   6:      Singlet-A      7.9262 eV  156.42 nm  f=0.0002  <S**2>=0.000
      11 -> 14         0.46131
      13 -> 17        -0.33981
      13 -> 18        -0.34616
      13 -> 21         0.17411

 Excited State   7:      Singlet-A      8.3514 eV  148.46 nm  f=0.0066  <S**2>=0.000
      10 -> 16         0.12035
      11 -> 14         0.10010
      13 -> 16        -0.16344
      13 -> 17        -0.44082
      13 -> 18         0.46432
      13 -> 21        -0.17443

 Excited State   8:      Singlet-A      8.6768 eV  142.89 nm  f=0.0847  <S**2>=0.000
       8 -> 15        -0.15718
      10 -> 14         0.23377
      11 -> 17         0.10217
      11 -> 18        -0.10451
      12 -> 15         0.55137
      12 -> 16        -0.10831
      12 -> 18        -0.16628

 Excited State   9:      Singlet-A      8.9147 eV  139.08 nm  f=0.0019  <S**2>=0.000
      13 -> 19         0.68349

 Excited State  10:      Singlet-A      8.9999 eV  137.76 nm  f=0.0374  <S**2>=0.000
       8 -> 16         0.10607
      10 -> 14         0.55876
      12 -> 16         0.23716
      12 -> 17         0.17208
      12 -> 18         0.17793

 Excited State  11:      Singlet-A      9.4698 eV  130.93 nm  f=0.1832  <S**2>=0.000
       9 -> 16        -0.13226
      11 -> 16        -0.28841
      11 -> 17         0.18335
      11 -> 18        -0.10881
      12 -> 15        -0.14947
      12 -> 16         0.35631
      12 -> 17        -0.31213
      12 -> 18        -0.18771
      12 -> 19        -0.11681

 Excited State  12:      Singlet-A      9.4806 eV  130.78 nm  f=0.0692  <S**2>=0.000
      10 -> 14        -0.27057
      11 -> 15         0.19096
      11 -> 17        -0.11746
      12 -> 15         0.29446
      12 -> 16         0.44077
      12 -> 18         0.25054

 Excited State  13:      Singlet-A      9.6296 eV  128.75 nm  f=0.0124  <S**2>=0.000
      10 -> 15        -0.15358
      13 -> 18         0.27135
      13 -> 20        -0.35145
      13 -> 21         0.51190

 Excited State  14:      Singlet-A      9.8541 eV  125.82 nm  f=0.0721  <S**2>=0.000
      10 -> 16        -0.12677
      11 -> 15        -0.10846
      13 -> 18         0.10837
      13 -> 20         0.56432
      13 -> 21         0.34744

 Excited State  15:      Singlet-A      9.9075 eV  125.14 nm  f=0.0380  <S**2>=0.000
       9 -> 15        -0.27016
      10 -> 14         0.12419
      11 -> 15         0.50991
      11 -> 19         0.17627
      12 -> 16        -0.12153
      12 -> 17        -0.18243
      13 -> 20         0.13451

 The electronic state is 1-A.
 Alpha  occ. eigenvalues --   -1.94874  -1.21885  -0.98947  -0.81924  -0.80599
 Alpha  occ. eigenvalues --   -0.69125  -0.67307  -0.51770  -0.49572  -0.42500
 Alpha  occ. eigenvalues --   -0.41642  -0.37193  -0.27052
 Alpha virt. eigenvalues --    0.13940   0.17875   0.20662   0.27332   0.29063
 Alpha virt. eigenvalues --    0.31020   0.32949   0.35252   0.35860   0.44937
 Alpha virt. eigenvalues --    0.49165

 Mulliken charges:
               1
     1  C   -0.118727
     2  C   -1.913713
     3  O    3.120840
     4  C   -1.885062
     5  C   -0.094346
     6  H    0.152472
     7  H    0.285355
     8  H    0.301314
     9  H    0.151867
 Sum of Mulliken charges =   0.00000

 Dipole moment (field-independent basis, Debye):
    X=             -4.1852    Y=             -9.7930    Z=              0.2719  Tot=             10.6533
 N-N= 1.044678487725D+02 E-N=-1.702079324444D+02  KE=-1.570053505966D+01
 Orbital energies and kinetic energies (alpha):
                                 1                 2
   1         O                -1.948742         -1.419016
   2         O                -1.218851         -1.087101
   3         O                -0.989469         -0.912829
   4         O                -0.819237         -0.633718
   5         O                -0.805988         -0.691601
   6         O                -0.691249         -0.573790
   7         O                -0.673072         -0.581759

 Normal termination of Gaussian 09 at Tue Dec 15 17:10:02 2015.
