 Gaussian 09, Revision D.01,
 Gaussian 09:  ES64L-G09RevD.01 24-Apr-2013

 ------------------------------------------------------------
 #P AM1(Input,print) CIS(Singlets,NStates=15) pop(full) force
 ------------------------------------------------------------

 -----------------
 AM1-Reparam Input
 -----------------
 Symbolic Z-matrix:
 Charge =  0 Multiplicity = 1

                         Standard orientation:
 ---------------------------------------------------------------------
 Center     Atomic      Atomic             Coordinates (Angstroms)
 Number     Number       Type             X           Y           Z
 ---------------------------------------------------------------------
      1          6           0        0.406120    1.091959    0.018226
      2          6           0        1.107284   -0.035841   -0.014882
      3          8           0        0.368895   -1.105081    0.022608
      4          6           0       -1.010431   -0.604028   -0.009463
      5          6           0       -0.913724    0.696158   -0.028902
      6          1           0       -1.827221    1.383583    0.078202
      7          1           0       -1.730922   -1.319018   -0.010736
      8          1           0        2.231231   -0.249486   -0.051530
      9          1           0        0.840253    2.136077    0.013329
 ---------------------------------------------------------------------

 SCF Done:  E(RAM1) =   2.60393588610     A.U. after   14 cycles

 Excitation energies and oscillator strengths:

 Excited State   1:      Singlet-A      5.4028 eV  229.48 nm  f=0.2606  <S**2>=0.000
      13 -> 14         0.65741
      13 -> 15        -0.21113
 This state for optimization and/or second-order correction.
 Total Energy, E(CIS) =   2.80248345736
 Copying the excited state density for this state as the 1-particle RhoCI density.

 Excited State   2:      Singlet-A      5.5395 eV  223.82 nm  f=0.0595  <S**2>=0.000
      10 -> 15         0.10132
      13 -> 14         0.21844
      13 -> 15         0.64799
      13 -> 17        -0.10381

 Excited State   3:      Singlet-A      6.9203 eV  179.16 nm  f=0.0023  <S**2>=0.000
      12 -> 14         0.60863
      13 -> 16         0.31182

 Excited State   4:      Singlet-A      6.9825 eV  177.56 nm  f=0.0017  <S**2>=0.000
      12 -> 14        -0.32917
      13 -> 16         0.57962
      13 -> 17        -0.11506

 Excited State   5:      Singlet-A      7.6796 eV  161.45 nm  f=0.0092  <S**2>=0.000
      11 -> 14        -0.33785
      13 -> 17         0.52751
      13 -> 18        -0.16499
      13 -> 19         0.13676
      13 -> 20        -0.10138
      13 -> 21         0.15155

 Excited State   6:      Singlet-A      7.8190 eV  158.57 nm  f=0.0007  <S**2>=0.000
      11 -> 14         0.59610
      13 -> 17         0.27376
      13 -> 18        -0.16691
      13 -> 19         0.10876

 Excited State   7:      Singlet-A      8.0132 eV  154.72 nm  f=0.0014  <S**2>=0.000
      13 -> 16         0.11578
      13 -> 17         0.25755
      13 -> 18         0.58321
      13 -> 21        -0.23421

 Excited State   8:      Singlet-A      8.7843 eV  141.14 nm  f=0.0340  <S**2>=0.000
       8 -> 15         0.14152
      10 -> 14         0.11487
      11 -> 15        -0.30260
      12 -> 15         0.56153

 Excited State   9:      Singlet-A      8.8216 eV  140.55 nm  f=0.0026  <S**2>=0.000
      10 -> 16         0.10584
      13 -> 16        -0.10262
      13 -> 17        -0.18125
      13 -> 18         0.13247
      13 -> 19         0.60684
      13 -> 20        -0.12475
      13 -> 21         0.12630

 Excited State  10:      Singlet-A      8.9155 eV  139.07 nm  f=0.0349  <S**2>=0.000
      10 -> 14         0.52876
      11 -> 15        -0.15842
      11 -> 16        -0.15455
      11 -> 17         0.13701
      12 -> 15        -0.12181
      12 -> 17         0.22529
      12 -> 18        -0.17851

 Excited State  11:      Singlet-A      9.2954 eV  133.38 nm  f=0.0653  <S**2>=0.000
       9 -> 15        -0.25176
      10 -> 14         0.32737
      10 -> 15        -0.20533
      11 -> 15         0.42462
      11 -> 16         0.10777
      11 -> 17        -0.18001
      11 -> 18        -0.12028

 Excited State  12:      Singlet-A      9.3497 eV  132.61 nm  f=0.0075  <S**2>=0.000
       7 -> 15        -0.13688
      10 -> 15         0.54884
      11 -> 15         0.18102
      13 -> 15        -0.12011
      13 -> 18         0.12967
      13 -> 19        -0.14633
      13 -> 21         0.23291

 Excited State  13:      Singlet-A      9.4219 eV  131.59 nm  f=0.0240  <S**2>=0.000
      10 -> 15        -0.28684
      13 -> 18         0.22655
      13 -> 19        -0.19341
      13 -> 20        -0.30940
      13 -> 21         0.45504

 Excited State  14:      Singlet-A      9.6954 eV  127.88 nm  f=0.2613  <S**2>=0.000
       9 -> 15         0.14873
      10 -> 14         0.21402
      11 -> 15        -0.16538
      11 -> 16         0.18926
      11 -> 19         0.16971
      12 -> 15        -0.15475
      12 -> 16         0.25261
      12 -> 17        -0.28411
      12 -> 18         0.29951
      12 -> 19         0.13347

 Excited State  15:      Singlet-A      9.9897 eV  124.11 nm  f=0.0935  <S**2>=0.000
      13 -> 20         0.56480
      13 -> 21         0.34496

 The electronic state is 1-A.
 Alpha  occ. eigenvalues --   -1.74607  -1.17658  -0.95527  -0.79987  -0.76461
 Alpha  occ. eigenvalues --   -0.66842  -0.65327  -0.54563  -0.49809  -0.43710
 Alpha  occ. eigenvalues --   -0.41854  -0.39175  -0.27913
 Alpha virt. eigenvalues --    0.13217   0.14263   0.21925   0.25135   0.27339
 Alpha virt. eigenvalues --    0.29552   0.32675   0.33892   0.38243   0.47573
 Alpha virt. eigenvalues --    0.51605

 Mulliken charges:
               1
     1  C   -0.177822
     2  C   -1.927256
     3  O    3.223656
     4  C   -1.874696
     5  C    0.018772
     6  H    0.108407
     7  H    0.230537
     8  H    0.272200
     9  H    0.126203
 Sum of Mulliken charges =   0.00000

 Dipole moment (field-independent basis, Debye):
    X=              4.3307    Y=            -10.4352    Z=              0.4179  Tot=             11.3059
 N-N= 1.040755907109D+02 E-N=-1.692189215769D+02  KE=-1.505571654784D+01
 Orbital energies and kinetic energies (alpha):
                                 1                 2
   1         O                -1.746073         -1.238513
   2         O                -1.176581         -1.021322
   3         O                -0.955270         -0.879546
   4         O                -0.799870         -0.593589
   5         O                -0.764610         -0.688642
   6         O                -0.668421         -0.556947
   7         O                -0.653273         -0.529929

 Normal termination of Gaussian 09 at Tue Dec 15 17:06:19 2015.
