 Gaussian 09, Revision D.01,
 Gaussian 09:  ES64L-G09RevD.01 24-Apr-2013

 ------------------------------------------------------------
 #P AM1(Input,print) CIS(Singlets,NStates=15) pop(full) force
 ------------------------------------------------------------

 -----------------
 AM1-Reparam Input
 -----------------
 Symbolic Z-matrix:
 Charge =  0 Multiplicity = 1

                         Standard orientation:
 ---------------------------------------------------------------------
 Center     Atomic      Atomic             Coordinates (Angstroms)
 Number     Number       Type             X           Y           Z
 ---------------------------------------------------------------------
      1          6           0        0.269649    1.157506   -0.027083
      2          6           0        1.157473    0.128801    0.036511
      3          8           0        0.480125   -1.103581   -0.017696
      4          6           0       -0.879646   -0.711124    0.014942
      5          6           0       -1.066506    0.611417   -0.011165
      6          1           0       -1.941303    1.097651    0.039832
      7          1           0       -1.572960   -1.579756    0.011849
      8          1           0        2.206221    0.002054   -0.027439
      9          1           0        0.581217    2.189097    0.038100
 ---------------------------------------------------------------------

 SCF Done:  E(RAM1) =   1.82556037347     A.U. after   13 cycles

 Excitation energies and oscillator strengths:

 Excited State   1:      Singlet-A      5.3527 eV  231.63 nm  f=0.3475  <S**2>=0.000
      13 -> 14         0.69236
 This state for optimization and/or second-order correction.
 Total Energy, E(CIS) =   2.02226688306
 Copying the excited state density for this state as the 1-particle RhoCI density.

 Excited State   2:      Singlet-A      6.4770 eV  191.42 nm  f=0.0016  <S**2>=0.000
      13 -> 15         0.67498
      13 -> 17        -0.12318

 Excited State   3:      Singlet-A      6.6771 eV  185.69 nm  f=0.0026  <S**2>=0.000
      13 -> 16         0.67171
      13 -> 17        -0.10065
      13 -> 18        -0.13712

 Excited State   4:      Singlet-A      7.5385 eV  164.47 nm  f=0.0006  <S**2>=0.000
      12 -> 14         0.69939

 Excited State   5:      Singlet-A      8.1144 eV  152.80 nm  f=0.0014  <S**2>=0.000
      13 -> 15        -0.10263
      13 -> 17        -0.33137
      13 -> 18         0.55879
      13 -> 22         0.19966

 Excited State   6:      Singlet-A      8.3970 eV  147.65 nm  f=0.0087  <S**2>=0.000
      10 -> 14         0.61491
      11 -> 14         0.30984

 Excited State   7:      Singlet-A      8.7796 eV  141.22 nm  f=0.0130  <S**2>=0.000
      11 -> 16        -0.10882
      13 -> 16         0.12435
      13 -> 17         0.58040
      13 -> 18         0.30542

 Excited State   8:      Singlet-A      9.0802 eV  136.54 nm  f=0.0839  <S**2>=0.000
      10 -> 14        -0.31109
      11 -> 14         0.59005
      13 -> 20         0.13058

 Excited State   9:      Singlet-A      9.3561 eV  132.52 nm  f=0.0013  <S**2>=0.000
      13 -> 19         0.68345

 Excited State  10:      Singlet-A      9.7728 eV  126.87 nm  f=0.0106  <S**2>=0.000
       8 -> 16         0.12238
       9 -> 15         0.15983
      10 -> 16        -0.17112
      10 -> 17         0.15733
      10 -> 18         0.12917
      12 -> 15         0.43273
      12 -> 16        -0.15531
      12 -> 17        -0.19727
      12 -> 18         0.26801

 Excited State  11:      Singlet-A     10.2150 eV  121.37 nm  f=0.2248  <S**2>=0.000
      10 -> 16        -0.18081
      11 -> 16        -0.19926
      12 -> 15        -0.12835
      12 -> 16         0.53147
      12 -> 17        -0.19899
      12 -> 19        -0.12866

 Excited State  12:      Singlet-A     10.3172 eV  120.17 nm  f=0.0276  <S**2>=0.000
      11 -> 15         0.18822
      13 -> 18         0.19874
      13 -> 20         0.16679
      13 -> 21         0.45599
      13 -> 22        -0.39660

 Excited State  13:      Singlet-A     10.3973 eV  119.25 nm  f=0.0948  <S**2>=0.000
      10 -> 15         0.21855
      11 -> 15         0.37354
      11 -> 16         0.10650
      12 -> 15         0.32435
      12 -> 16         0.29537
      12 -> 18        -0.18497

 Excited State  14:      Singlet-A     10.5081 eV  117.99 nm  f=0.0727  <S**2>=0.000
      10 -> 15        -0.23997
      10 -> 16        -0.21221
      11 -> 15         0.34308
      11 -> 16         0.29535
      12 -> 15        -0.17020
      12 -> 18         0.12242
      13 -> 15        -0.10124
      13 -> 20        -0.17316
      13 -> 21        -0.19015

 Excited State  15:      Singlet-A     10.5520 eV  117.50 nm  f=0.0423  <S**2>=0.000
      10 -> 15        -0.14986
      11 -> 15         0.25448
      11 -> 16        -0.15009
      13 -> 18        -0.11090
      13 -> 20         0.24934
      13 -> 21         0.23868
      13 -> 22         0.47387

 The electronic state is 1-A.
 Alpha  occ. eigenvalues --   -1.97061  -1.26656  -0.99280  -0.88808  -0.84933
 Alpha  occ. eigenvalues --   -0.76471  -0.72594  -0.62068  -0.61120  -0.51685
 Alpha  occ. eigenvalues --   -0.50975  -0.48642  -0.35003
 Alpha virt. eigenvalues --    0.05543   0.11618   0.12658   0.20750   0.22117
 Alpha virt. eigenvalues --    0.24102   0.26198   0.27304   0.28800   0.35269
 Alpha virt. eigenvalues --    0.38877

 Mulliken charges:
               1
     1  C   -0.153371
     2  C   -1.849210
     3  O    3.161380
     4  C   -1.864534
     5  C   -0.097093
     6  H    0.130772
     7  H    0.270954
     8  H    0.252655
     9  H    0.148449
 Sum of Mulliken charges =   0.00000

 Dipole moment (field-independent basis, Debye):
    X=              4.4791    Y=            -11.1508    Z=             -0.6183  Tot=             12.0327
 N-N= 1.049868688189D+02 E-N=-1.695997228150D+02  KE=-1.561695815227D+01
 Orbital energies and kinetic energies (alpha):
                                 1                 2
   1         O                -1.970614         -1.327781
   2         O                -1.266558         -1.064057
   3         O                -0.992797         -0.896029
   4         O                -0.888080         -0.588079
   5         O                -0.849329         -0.687709
   6         O                -0.764715         -0.613149
   7         O                -0.725942         -0.540486

 Normal termination of Gaussian 09 at Tue Dec 15 17:09:00 2015.
