 Gaussian 09, Revision D.01,
 Gaussian 09:  ES64L-G09RevD.01 24-Apr-2013

 ------------------------------------------------------------
 #P AM1(Input,print) CIS(Singlets,NStates=15) pop(full) force
 ------------------------------------------------------------

 -----------------
 AM1-Reparam Input
 -----------------
 Symbolic Z-matrix:
 Charge =  0 Multiplicity = 1

                         Standard orientation:
 ---------------------------------------------------------------------
 Center     Atomic      Atomic             Coordinates (Angstroms)
 Number     Number       Type             X           Y           Z
 ---------------------------------------------------------------------
      1          6           0       -0.942754    0.721818   -0.008713
      2          6           0       -1.013396   -0.617276   -0.014587
      3          8           0        0.338747   -1.090956    0.005008
      4          6           0        1.173161   -0.066625    0.004058
      5          6           0        0.431732    1.096270   -0.017886
      6          1           0        0.818183    2.137040    0.053337
      7          1           0        2.240727   -0.294566    0.014654
      8          1           0       -1.820827   -1.306558    0.045322
      9          1           0       -1.840517    1.386614    0.069402
 ---------------------------------------------------------------------

 SCF Done:  E(RAM1) =   1.81498527256     A.U. after   14 cycles

 Excitation energies and oscillator strengths:

 Excited State   1:      Singlet-A      5.6073 eV  221.11 nm  f=0.3216  <S**2>=0.000
      11 -> 17         0.10263
      13 -> 14         0.68890
 This state for optimization and/or second-order correction.
 Total Energy, E(CIS) =   2.02104978661
 Copying the excited state density for this state as the 1-particle RhoCI density.

 Excited State   2:      Singlet-A      6.3825 eV  194.26 nm  f=0.0025  <S**2>=0.000
      10 -> 15        -0.11577
      13 -> 15         0.66057
      13 -> 17        -0.17029
      13 -> 19        -0.10760

 Excited State   3:      Singlet-A      6.7795 eV  182.88 nm  f=0.0037  <S**2>=0.000
      12 -> 14         0.69796

 Excited State   4:      Singlet-A      6.9613 eV  178.11 nm  f=0.0027  <S**2>=0.000
      10 -> 16         0.10912
      13 -> 16         0.65286
      13 -> 17        -0.11105
      13 -> 18        -0.11109
      13 -> 19         0.10636
      13 -> 20        -0.10638

 Excited State   5:      Singlet-A      7.5951 eV  163.24 nm  f=0.0050  <S**2>=0.000
      11 -> 14         0.69062

 Excited State   6:      Singlet-A      8.0777 eV  153.49 nm  f=0.0055  <S**2>=0.000
      13 -> 15         0.15285
      13 -> 17         0.55040
      13 -> 18        -0.31478
      13 -> 21         0.19242

 Excited State   7:      Singlet-A      8.1453 eV  152.22 nm  f=0.0023  <S**2>=0.000
      10 -> 16         0.11012
      13 -> 16         0.14028
      13 -> 17         0.35208
      13 -> 18         0.52420
      13 -> 21        -0.24018

 Excited State   8:      Singlet-A      8.9426 eV  138.65 nm  f=0.0283  <S**2>=0.000
      10 -> 14         0.42314
      11 -> 15         0.13445
      11 -> 16         0.15103
      11 -> 17        -0.20018
      12 -> 16        -0.17105
      12 -> 17        -0.12239
      12 -> 18         0.20266
      13 -> 19         0.29152

 Excited State   9:      Singlet-A      8.9659 eV  138.28 nm  f=0.0066  <S**2>=0.000
      10 -> 14        -0.19874
      11 -> 17         0.10731
      12 -> 16         0.10243
      12 -> 18        -0.10409
      13 -> 17        -0.10308
      13 -> 18         0.12015
      13 -> 19         0.56788
      13 -> 20        -0.14417

 Excited State  10:      Singlet-A      9.0988 eV  136.26 nm  f=0.0135  <S**2>=0.000
       8 -> 15         0.12229
      10 -> 14        -0.35489
      11 -> 16         0.10747
      12 -> 15         0.47818
      12 -> 18         0.19793
      12 -> 19        -0.10595

 Excited State  11:      Singlet-A      9.3918 eV  132.01 nm  f=0.1117  <S**2>=0.000
       9 -> 15         0.15366
      10 -> 14         0.28951
      11 -> 15        -0.34440
      11 -> 17         0.19463
      12 -> 15         0.34727
      12 -> 17        -0.13217
      12 -> 18        -0.16287
      13 -> 21         0.11403

 Excited State  12:      Singlet-A      9.4485 eV  131.22 nm  f=0.0268  <S**2>=0.000
      13 -> 18         0.28110
      13 -> 19        -0.19669
      13 -> 20        -0.30876
      13 -> 21         0.49321

 Excited State  13:      Singlet-A      9.7968 eV  126.56 nm  f=0.1821  <S**2>=0.000
      11 -> 16         0.33390
      11 -> 19         0.10726
      12 -> 16         0.52548
      12 -> 17        -0.14548
      13 -> 20        -0.11367
      13 -> 21        -0.10317

 Excited State  14:      Singlet-A      9.8281 eV  126.15 nm  f=0.0730  <S**2>=0.000
      10 -> 15        -0.26601
      12 -> 16         0.14076
      13 -> 20         0.53020
      13 -> 21         0.27908

 Excited State  15:      Singlet-A      9.9902 eV  124.11 nm  f=0.0825  <S**2>=0.000
       8 -> 15        -0.10757
       9 -> 15         0.15357
      10 -> 14        -0.16144
      10 -> 15         0.29684
      11 -> 15        -0.26434
      11 -> 18         0.14077
      11 -> 19         0.20207
      12 -> 15        -0.19426
      12 -> 16        -0.14777
      12 -> 17        -0.19748
      13 -> 20         0.14121
      13 -> 21         0.13890

 The electronic state is 1-A.
 Alpha  occ. eigenvalues --   -1.94011  -1.20698  -0.97903  -0.81453  -0.79468
 Alpha  occ. eigenvalues --   -0.68832  -0.66317  -0.53575  -0.49587  -0.42930
 Alpha  occ. eigenvalues --   -0.40625  -0.38174  -0.27870
 Alpha virt. eigenvalues --    0.13632   0.18008   0.21446   0.25734   0.27727
 Alpha virt. eigenvalues --    0.29925   0.32090   0.34158   0.35471   0.43937
 Alpha virt. eigenvalues --    0.49276

 Mulliken charges:
               1
     1  C   -0.031560
     2  C   -1.924628
     3  O    3.146169
     4  C   -1.944751
     5  C   -0.181099
     6  H    0.164848
     7  H    0.316679
     8  H    0.304978
     9  H    0.149365
 Sum of Mulliken charges =   0.00000

 Dipole moment (field-independent basis, Debye):
    X=              3.0950    Y=             -9.5652    Z=              0.3770  Tot=             10.0605
 N-N= 1.037873286618D+02 E-N=-1.690937037469D+02  KE=-1.562215597833D+01
 Orbital energies and kinetic energies (alpha):
                                 1                 2
   1         O                -1.940106         -1.405824
   2         O                -1.206978         -1.067390
   3         O                -0.979031         -0.902735
   4         O                -0.814527         -0.649832
   5         O                -0.794680         -0.666691
   6         O                -0.688317         -0.573903
   7         O                -0.663167         -0.568116

 Normal termination of Gaussian 09 at Tue Dec 15 17:09:57 2015.
