 Gaussian 09, Revision D.01,
 Gaussian 09:  ES64L-G09RevD.01 24-Apr-2013

 -------------------------------------------------------
 #P B3LYP/3-21G CIS(Singlets,NStates=15) pop(full) force
 -------------------------------------------------------

 --------
 FuranDFT
 --------
 Symbolic Z-matrix:
 Charge =  0 Multiplicity = 1

                         Standard orientation:
 ---------------------------------------------------------------------
 Center     Atomic      Atomic             Coordinates (Angstroms)
 Number     Number       Type             X           Y           Z
 ---------------------------------------------------------------------
      1          6           0       -1.137190    0.380335    0.010335
      2          6           0       -0.696027   -0.885175   -0.005211
      3          8           0        0.690219   -0.967181    0.003865
      4          6           0        1.061751    0.335255   -0.003555
      5          6           0        0.039693    1.178220   -0.013275
      6          1           0        0.091382    2.257813   -0.001811
      7          1           0        2.232895    0.449551    0.037523
      8          1           0       -1.277352   -1.790679   -0.025039
      9          1           0       -2.178041    0.768954    0.028640
 ---------------------------------------------------------------------

 SCF Done:  E(RB3LYP) =  -228.738277092     A.U. after   14 cycles

 Excitation energies and oscillator strengths:

 Excited State   1:      Singlet-A      7.2825 eV  170.25 nm  f=0.1895  <S**2>=0.000
      17 -> 19         0.16655
      18 -> 19         0.65130
      18 -> 20         0.14043
 This state for optimization and/or second-order correction.
 Total Energy, E(CIS) =  -228.470650079
 Copying the excited state density for this state as the 1-particle RhoCI density.

 Excited State   2:      Singlet-A      7.5177 eV  164.92 nm  f=0.0250  <S**2>=0.000
      17 -> 19         0.48580
      18 -> 19        -0.21299
      18 -> 20         0.45441

 Excited State   3:      Singlet-A      8.2704 eV  149.91 nm  f=0.0002  <S**2>=0.000
      18 -> 21         0.69346

 Excited State   4:      Singlet-A      8.8831 eV  139.57 nm  f=0.0007  <S**2>=0.000
      18 -> 22         0.68948

 Excited State   5:      Singlet-A      9.1740 eV  135.15 nm  f=0.0073  <S**2>=0.000
      16 -> 19         0.69308

 Excited State   6:      Singlet-A      9.5706 eV  129.55 nm  f=0.0034  <S**2>=0.000
      17 -> 20        -0.13727
      17 -> 21         0.54461
      18 -> 23        -0.38959

 Excited State   7:      Singlet-A      9.7352 eV  127.36 nm  f=0.0139  <S**2>=0.000
      15 -> 19         0.15336
      17 -> 20        -0.21408
      17 -> 21         0.35616
      18 -> 23         0.53028

 Excited State   8:      Singlet-A      9.8493 eV  125.88 nm  f=0.1368  <S**2>=0.000
      15 -> 19         0.16508
      17 -> 19         0.10497
      17 -> 20         0.60312
      17 -> 21         0.22649

 Excited State   9:      Singlet-A      9.9449 eV  124.67 nm  f=0.0618  <S**2>=0.000
      15 -> 19         0.62614
      17 -> 19        -0.14475
      18 -> 20         0.16000
      18 -> 23        -0.16871

 Excited State  10:      Singlet-A     10.0092 eV  123.87 nm  f=0.4407  <S**2>=0.000
      13 -> 25         0.10207
      15 -> 19        -0.20273
      17 -> 19        -0.37736
      17 -> 20         0.18592
      17 -> 22        -0.18336
      18 -> 20         0.42445

 Excited State  11:      Singlet-A     10.2015 eV  121.54 nm  f=0.0423  <S**2>=0.000
      17 -> 19        -0.11005
      17 -> 22         0.66582
      18 -> 20         0.12086

 Excited State  12:      Singlet-A     10.3367 eV  119.95 nm  f=0.0008  <S**2>=0.000
      14 -> 19         0.66032
      16 -> 20        -0.16813
      18 -> 24         0.15756

 Excited State  13:      Singlet-A     10.3704 eV  119.56 nm  f=0.0027  <S**2>=0.000
      14 -> 19        -0.15705
      18 -> 24         0.67041

 Excited State  14:      Singlet-A     10.8964 eV  113.79 nm  f=0.0014  <S**2>=0.000
      13 -> 19         0.53193
      16 -> 20         0.40230
      18 -> 25        -0.19308

 Excited State  15:      Singlet-A     10.9827 eV  112.89 nm  f=0.0121  <S**2>=0.000
      16 -> 20         0.18859
      18 -> 25         0.65166

 The electronic state is 1-A.
 Alpha  occ. eigenvalues --  -19.11683 -10.18035 -10.17356 -10.12827 -10.12177
 Alpha  occ. eigenvalues --   -1.12940  -0.81917  -0.74394  -0.60068  -0.56689
 Alpha  occ. eigenvalues --   -0.54191  -0.45030  -0.43196  -0.41584  -0.39743
 Alpha  occ. eigenvalues --   -0.37170  -0.28452  -0.23499
 Alpha virt. eigenvalues --    0.02267   0.08721   0.11459   0.13580   0.16707
 Alpha virt. eigenvalues --    0.18443   0.21504   0.23555   0.35931   0.43281
 Alpha virt. eigenvalues --    0.46603   0.68211   0.69836   0.70872   0.75697

 Mulliken charges:
               1
     1  C   -0.234148
     2  C    0.063745
     3  O   -0.475640
     4  C    0.112690
     5  C   -0.264364
     6  H    0.190891
     7  H    0.200308
     8  H    0.214326
     9  H    0.192192
 Sum of Mulliken charges =   0.00000

 Dipole moment (field-independent basis, Debye):
    X=             -0.5611    Y=              0.7122    Z=              0.0331  Tot=              0.9073
 Quadrupole moment (field-independent basis, Debye-Ang):
   XX=            -25.0014   YY=            -27.0029   ZZ=            -31.8050
   XY=              1.8186   XZ=              0.0714   YZ=              0.1116

 Normal termination of Gaussian 09 at Tue Dec 15 16:25:41 2015.
