 Gaussian 09, Revision D.01,
 Gaussian 09:  ES64L-G09RevD.01 24-Apr-2013

 -------------------------------------------------------
 #P B3LYP/3-21G CIS(Singlets,NStates=15) pop(full) force
 -------------------------------------------------------

 --------
 FuranDFT
 --------
 Symbolic Z-matrix:
 Charge =  0 Multiplicity = 1

                         Standard orientation:
 ---------------------------------------------------------------------
 Center     Atomic      Atomic             Coordinates (Angstroms)
 Number     Number       Type             X           Y           Z
 ---------------------------------------------------------------------
      1          6           0       -0.257164    1.151475   -0.027852
      2          6           0        0.996723    0.546250   -0.011402
      3          8           0        0.909943   -0.750057    0.005757
      4          6           0       -0.485246   -1.033249   -0.014089
      5          6           0       -1.214787    0.121354    0.032600
      6          1           0       -2.271530    0.189291   -0.054279
      7          1           0       -0.693412   -2.123085    0.015739
      8          1           0        1.950343    0.986965    0.051470
      9          1           0       -0.502104    2.232304    0.065469
 ---------------------------------------------------------------------

 SCF Done:  E(RB3LYP) =  -228.739016348     A.U. after   14 cycles

 Excitation energies and oscillator strengths:

 Excited State   1:      Singlet-A      6.8170 eV  181.87 nm  f=0.1499  <S**2>=0.000
      17 -> 19        -0.23276
      18 -> 19         0.59398
      18 -> 20         0.25669
 This state for optimization and/or second-order correction.
 Total Energy, E(CIS) =  -228.488495724
 Copying the excited state density for this state as the 1-particle RhoCI density.

 Excited State   2:      Singlet-A      7.2940 eV  169.98 nm  f=0.0695  <S**2>=0.000
      17 -> 19        -0.42054
      18 -> 19        -0.33705
      18 -> 20         0.43867

 Excited State   3:      Singlet-A      8.2313 eV  150.63 nm  f=0.0051  <S**2>=0.000
      18 -> 21         0.68160
      18 -> 22         0.11449

 Excited State   4:      Singlet-A      8.7988 eV  140.91 nm  f=0.0057  <S**2>=0.000
      16 -> 19         0.69836

 Excited State   5:      Singlet-A      8.9345 eV  138.77 nm  f=0.0021  <S**2>=0.000
      18 -> 21        -0.11539
      18 -> 22         0.67875
      18 -> 23        -0.11396

 Excited State   6:      Singlet-A      9.4845 eV  130.72 nm  f=0.0627  <S**2>=0.000
      17 -> 19         0.13180
      17 -> 20        -0.23906
      17 -> 21        -0.20210
      18 -> 20         0.14757
      18 -> 22         0.11393
      18 -> 23         0.56420

 Excited State   7:      Singlet-A      9.5273 eV  130.14 nm  f=0.3396  <S**2>=0.000
      15 -> 19        -0.16236
      17 -> 19         0.34061
      17 -> 20        -0.28295
      18 -> 20         0.35417
      18 -> 21        -0.10500
      18 -> 23        -0.29764

 Excited State   8:      Singlet-A      9.6947 eV  127.89 nm  f=0.2138  <S**2>=0.000
      15 -> 19         0.23410
      17 -> 19         0.26690
      17 -> 20         0.42295
      17 -> 21         0.30612
      18 -> 20         0.21900
      18 -> 23         0.11763

 Excited State   9:      Singlet-A      9.7858 eV  126.70 nm  f=0.0112  <S**2>=0.000
      15 -> 19         0.62845
      17 -> 20        -0.20164
      18 -> 23        -0.17425

 Excited State  10:      Singlet-A     10.0048 eV  123.92 nm  f=0.0560  <S**2>=0.000
      17 -> 20        -0.28586
      17 -> 21         0.53118
      17 -> 22         0.12685
      18 -> 23         0.14089
      18 -> 24        -0.26730

 Excited State  11:      Singlet-A     10.1442 eV  122.22 nm  f=0.0258  <S**2>=0.000
      17 -> 20        -0.14079
      17 -> 21         0.21280
      17 -> 22         0.10377
      18 -> 24         0.62578

 Excited State  12:      Singlet-A     10.3459 eV  119.84 nm  f=0.0083  <S**2>=0.000
      14 -> 19         0.60631
      16 -> 20         0.31276

 Excited State  13:      Singlet-A     10.5038 eV  118.04 nm  f=0.0081  <S**2>=0.000
      17 -> 21        -0.14277
      17 -> 22         0.66425
      18 -> 25         0.10442

 Excited State  14:      Singlet-A     10.6382 eV  116.55 nm  f=0.0060  <S**2>=0.000
      14 -> 19         0.12164
      16 -> 20        -0.18809
      18 -> 25         0.65020

 Excited State  15:      Singlet-A     10.6826 eV  116.06 nm  f=0.0078  <S**2>=0.000
      13 -> 19         0.16143
      14 -> 19        -0.29058
      16 -> 20         0.56860
      18 -> 25         0.21559

 The electronic state is 1-A.
 Alpha  occ. eigenvalues --  -19.12004 -10.17879 -10.17542 -10.12937 -10.12437
 Alpha  occ. eigenvalues --   -1.13755  -0.81185  -0.74092  -0.60161  -0.57170
 Alpha  occ. eigenvalues --   -0.54316  -0.45344  -0.44418  -0.42184  -0.39677
 Alpha  occ. eigenvalues --   -0.36580  -0.28514  -0.22423
 Alpha virt. eigenvalues --    0.01619   0.07741   0.12768   0.14498   0.17361
 Alpha virt. eigenvalues --    0.18611   0.21152   0.24491   0.34252   0.41834
 Alpha virt. eigenvalues --    0.46812   0.68447   0.69924   0.72012   0.74520

 Mulliken charges:
               1
     1  C   -0.261994
     2  C    0.133744
     3  O   -0.477317
     4  C    0.031816
     5  C   -0.235242
     6  H    0.198356
     7  H    0.210460
     8  H    0.219427
     9  H    0.180750
 Sum of Mulliken charges =   0.00000

 Dipole moment (field-independent basis, Debye):
    X=             -0.5782    Y=              0.4124    Z=              0.0853  Tot=              0.7153
 Quadrupole moment (field-independent basis, Debye-Ang):
   XX=            -25.9191   YY=            -25.9856   ZZ=            -31.8662
   XY=              2.0109   XZ=              0.2099   YZ=              0.2013

 Normal termination of Gaussian 09 at Tue Dec 15 16:26:30 2015.
