 Gaussian 09, Revision D.01,
 Gaussian 09:  ES64L-G09RevD.01 24-Apr-2013

 ------------------------------------------------------------
 #P AM1(Input,print) CIS(Singlets,NStates=15) pop(full) force
 ------------------------------------------------------------

 -----------------
 AM1-Reparam Input
 -----------------
 Symbolic Z-matrix:
 Charge =  0 Multiplicity = 1

                         Standard orientation:
 ---------------------------------------------------------------------
 Center     Atomic      Atomic             Coordinates (Angstroms)
 Number     Number       Type             X           Y           Z
 ---------------------------------------------------------------------
      1          6           0       -1.032729    0.572104    0.000414
      2          6           0       -0.867807   -0.779098    0.021517
      3          8           0        0.523989   -1.052383   -0.018254
      4          6           0        1.173568    0.160036    0.029286
      5          6           0        0.178627    1.165936   -0.031989
      6          1           0        0.403013    2.173500    0.036660
      7          1           0        2.222840    0.172623    0.001934
      8          1           0       -1.443409   -1.672987   -0.025621
      9          1           0       -2.084308    1.032058    0.017688
 ---------------------------------------------------------------------

 SCF Done:  E(RAM1) =   1.39954709231     A.U. after   13 cycles

 Excitation energies and oscillator strengths:

 Excited State   1:      Singlet-A      6.3467 eV  195.35 nm  f=0.2712  <S**2>=0.000
      13 -> 14         0.68799
 This state for optimization and/or second-order correction.
 Total Energy, E(CIS) =   1.63278320859
 Copying the excited state density for this state as the 1-particle RhoCI density.

 Excited State   2:      Singlet-A      6.6853 eV  185.46 nm  f=0.0014  <S**2>=0.000
      12 -> 16         0.14389
      13 -> 15         0.63528
      13 -> 17        -0.23484

 Excited State   3:      Singlet-A      7.1050 eV  174.50 nm  f=0.0012  <S**2>=0.000
      12 -> 15         0.22698
      13 -> 16         0.63589
      13 -> 20         0.11301

 Excited State   4:      Singlet-A      7.8102 eV  158.75 nm  f=0.0128  <S**2>=0.000
      11 -> 14        -0.18731
      12 -> 16         0.13927
      13 -> 15         0.20688
      13 -> 17         0.60893

 Excited State   5:      Singlet-A      7.9294 eV  156.36 nm  f=0.0010  <S**2>=0.000
       9 -> 14         0.11156
      10 -> 14        -0.42625
      11 -> 14         0.51181
      13 -> 22        -0.11896

 Excited State   6:      Singlet-A      8.1572 eV  151.99 nm  f=0.0009  <S**2>=0.000
      10 -> 14         0.54194
      11 -> 14         0.40623
      13 -> 17         0.16335

 Excited State   7:      Singlet-A      8.3827 eV  147.91 nm  f=0.0049  <S**2>=0.000
      12 -> 14         0.51824
      13 -> 18         0.45218

 Excited State   8:      Singlet-A      8.4408 eV  146.89 nm  f=0.0011  <S**2>=0.000
      12 -> 15         0.17606
      13 -> 19         0.49123
      13 -> 21         0.14263
      13 -> 22         0.42722

 Excited State   9:      Singlet-A      8.9256 eV  138.91 nm  f=0.0092  <S**2>=0.000
      12 -> 15         0.40272
      12 -> 16        -0.15782
      13 -> 19        -0.27648
      13 -> 20        -0.35954
      13 -> 21        -0.16779
      13 -> 22         0.20784

 Excited State  10:      Singlet-A      9.0817 eV  136.52 nm  f=0.0019  <S**2>=0.000
      13 -> 16        -0.15464
      13 -> 19        -0.32075
      13 -> 20         0.35929
      13 -> 21         0.40645
      13 -> 22         0.18296

 Excited State  11:      Singlet-A      9.1522 eV  135.47 nm  f=0.1870  <S**2>=0.000
      12 -> 14        -0.43184
      13 -> 18         0.50745
      13 -> 21        -0.11628

 Excited State  12:      Singlet-A      9.3231 eV  132.99 nm  f=0.0136  <S**2>=0.000
      12 -> 15        -0.16992
      12 -> 16         0.32199
      13 -> 16         0.10774
      13 -> 19        -0.20456
      13 -> 20         0.14455
      13 -> 21        -0.30717
      13 -> 22         0.38223
      13 -> 23        -0.13192

 Excited State  13:      Singlet-A      9.4120 eV  131.73 nm  f=0.0344  <S**2>=0.000
      12 -> 15         0.37415
      12 -> 16         0.16630
      12 -> 17        -0.12266
      13 -> 16        -0.18778
      13 -> 19         0.11253
      13 -> 20         0.33201
      13 -> 21        -0.27906
      13 -> 22        -0.21096

 Excited State  14:      Singlet-A      9.6897 eV  127.96 nm  f=0.1965  <S**2>=0.000
       8 -> 15        -0.10924
      10 -> 15        -0.28876
      10 -> 17         0.29374
      10 -> 19         0.17786
      11 -> 15        -0.12321
      11 -> 16         0.12224
      11 -> 17         0.37758
      11 -> 19        -0.18513

 Excited State  15:      Singlet-A      9.8844 eV  125.43 nm  f=0.0160  <S**2>=0.000
      12 -> 15         0.11406
      12 -> 16         0.48614
      12 -> 21         0.11119
      13 -> 15        -0.18906
      13 -> 20        -0.27047
      13 -> 21         0.27171
      13 -> 22        -0.11513

 The electronic state is 1-A.
 Alpha  occ. eigenvalues --   -1.87528  -1.19613  -0.94690  -0.78789  -0.77702
 Alpha  occ. eigenvalues --   -0.67025  -0.60907  -0.50341  -0.48331  -0.39061
 Alpha  occ. eigenvalues --   -0.38561  -0.36156  -0.26073
 Alpha virt. eigenvalues --    0.18431   0.22383   0.23644   0.27138   0.28414
 Alpha virt. eigenvalues --    0.30739   0.32830   0.34082   0.36405   0.39240
 Alpha virt. eigenvalues --    0.44215

 Mulliken charges:
               1
     1  C   -0.012038
     2  C   -1.540344
     3  O    2.785642
     4  C   -1.581991
     5  C   -0.080454
     6  H    0.067959
     7  H    0.165444
     8  H    0.136084
     9  H    0.059697
 Sum of Mulliken charges =   0.00000

 Dipole moment (field-independent basis, Debye):
    X=              4.2484    Y=             -8.6860    Z=             -0.5764  Tot=              9.6865
 N-N= 1.032187060070D+02 E-N=-1.693089736028D+02  KE=-1.583384046752D+01
 Orbital energies and kinetic energies (alpha):
                                 1                 2
   1         O                -1.875276         -1.354249
   2         O                -1.196129         -1.083891
   3         O                -0.946899         -0.876128
   4         O                -0.787887         -0.694304
   5         O                -0.777016         -0.641268
   6         O                -0.670254         -0.633130
   7         O                -0.609073         -0.543190

 Normal termination of Gaussian 09 at Tue Dec 15 17:08:06 2015.
