 Gaussian 09, Revision D.01,
 Gaussian 09:  ES64L-G09RevD.01 24-Apr-2013

 ------------------------------------------------------------
 #P AM1(Input,print) CIS(Singlets,NStates=15) pop(full) force
 ------------------------------------------------------------

 -----------------
 AM1-Reparam Input
 -----------------
 Symbolic Z-matrix:
 Charge =  0 Multiplicity = 1

                         Standard orientation:
 ---------------------------------------------------------------------
 Center     Atomic      Atomic             Coordinates (Angstroms)
 Number     Number       Type             X           Y           Z
 ---------------------------------------------------------------------
      1          6           0       -1.020417    0.619512   -0.026118
      2          6           0       -0.891285   -0.654347    0.012216
      3          8           0        0.411707   -1.029125   -0.003098
      4          6           0        1.176884    0.035336   -0.000925
      5          6           0        0.295869    1.087925    0.013852
      6          1           0        0.646310    2.146935   -0.021383
      7          1           0        2.242712   -0.100238    0.002443
      8          1           0       -1.675040   -1.535533   -0.006018
      9          1           0       -1.873945    1.191277    0.055588
 ---------------------------------------------------------------------

 SCF Done:  E(RAM1) =   2.61451771163     A.U. after   14 cycles

 Excitation energies and oscillator strengths:

 Excited State   1:      Singlet-A      5.0911 eV  243.53 nm  f=0.3377  <S**2>=0.000
      13 -> 14         0.69750
 This state for optimization and/or second-order correction.
 Total Energy, E(CIS) =   2.80161361543
 Copying the excited state density for this state as the 1-particle RhoCI density.

 Excited State   2:      Singlet-A      6.0618 eV  204.54 nm  f=0.0003  <S**2>=0.000
      13 -> 15         0.66418
      13 -> 16        -0.11804
      13 -> 17        -0.11186
      13 -> 19         0.12523

 Excited State   3:      Singlet-A      6.3951 eV  193.87 nm  f=0.0042  <S**2>=0.000
      12 -> 14         0.32021
      13 -> 15         0.11669
      13 -> 16         0.59215
      13 -> 18        -0.12532

 Excited State   4:      Singlet-A      6.4986 eV  190.79 nm  f=0.0004  <S**2>=0.000
      12 -> 14         0.61762
      13 -> 16        -0.30850

 Excited State   5:      Singlet-A      7.3971 eV  167.61 nm  f=0.0053  <S**2>=0.000
      11 -> 14         0.68987

 Excited State   6:      Singlet-A      7.7107 eV  160.79 nm  f=0.0004  <S**2>=0.000
      13 -> 17         0.67189
      13 -> 21        -0.11288

 Excited State   7:      Singlet-A      8.5987 eV  144.19 nm  f=0.1159  <S**2>=0.000
      10 -> 14         0.67319
      12 -> 15         0.12052

 Excited State   8:      Singlet-A      9.0884 eV  136.42 nm  f=0.1045  <S**2>=0.000
       9 -> 15         0.11020
      10 -> 14        -0.13737
      11 -> 18        -0.11240
      12 -> 15         0.55494
      12 -> 16        -0.19754
      12 -> 17        -0.19814
      13 -> 18        -0.10279

 Excited State   9:      Singlet-A      9.1795 eV  135.07 nm  f=0.0152  <S**2>=0.000
      10 -> 15         0.21588
      10 -> 16        -0.21779
      12 -> 15         0.10537
      13 -> 18         0.59840

 Excited State  10:      Singlet-A      9.3820 eV  132.15 nm  f=0.1845  <S**2>=0.000
      11 -> 16         0.32553
      11 -> 18        -0.15958
      12 -> 16         0.46012
      12 -> 17        -0.29620
      12 -> 18        -0.10938

 Excited State  11:      Singlet-A      9.4414 eV  131.32 nm  f=0.0017  <S**2>=0.000
      10 -> 15        -0.12310
      10 -> 16        -0.23115
      13 -> 19         0.62289

 Excited State  12:      Singlet-A      9.5991 eV  129.16 nm  f=0.0798  <S**2>=0.000
      11 -> 15         0.41091
      11 -> 16         0.11649
      11 -> 18        -0.10823
      12 -> 15        -0.20914
      12 -> 16        -0.35312
      12 -> 17        -0.28588

 Excited State  13:      Singlet-A     10.0970 eV  122.79 nm  f=0.0075  <S**2>=0.000
       8 -> 15         0.11370
       9 -> 15         0.19509
      10 -> 15        -0.24812
      11 -> 15         0.40936
      11 -> 19         0.14941
      12 -> 15         0.12851
      12 -> 16         0.17762
      12 -> 17         0.27230
      13 -> 19        -0.12425

 Excited State  14:      Singlet-A     10.1862 eV  121.72 nm  f=0.0034  <S**2>=0.000
      10 -> 15         0.49111
      10 -> 16        -0.29271
      11 -> 15         0.12457
      13 -> 16        -0.12102
      13 -> 18        -0.26783

 Excited State  15:      Singlet-A     10.2248 eV  121.26 nm  f=0.0018  <S**2>=0.000
       9 -> 14         0.13620
      10 -> 15         0.27303
      10 -> 16         0.49666
      11 -> 15         0.12753
      12 -> 17         0.10429
      13 -> 15        -0.11307
      13 -> 18         0.12222
      13 -> 19         0.20628

 The electronic state is 1-A.
 Alpha  occ. eigenvalues --   -1.86647  -1.15122  -0.88784  -0.80575  -0.74563
 Alpha  occ. eigenvalues --   -0.66379  -0.65207  -0.57147  -0.54521  -0.45753
 Alpha  occ. eigenvalues --   -0.45009  -0.42247  -0.30495
 Alpha virt. eigenvalues --    0.08734   0.14924   0.16662   0.24476   0.27140
 Alpha virt. eigenvalues --    0.29034   0.35350   0.40430   0.50336   0.57492
 Alpha virt. eigenvalues --    0.62362

 Mulliken charges:
               1
     1  C   -0.148521
     2  C   -1.991010
     3  O    3.432529
     4  C   -2.011332
     5  C   -0.269885
     6  H    0.217128
     7  H    0.279061
     8  H    0.301824
     9  H    0.190205
 Sum of Mulliken charges =   0.00000

 Dipole moment (field-independent basis, Debye):
    X=              3.2928    Y=            -10.2699    Z=             -0.1327  Tot=             10.7857
 N-N= 1.049103393781D+02 E-N=-1.711336942332D+02  KE=-1.440899136437D+01
 Orbital energies and kinetic energies (alpha):
                                 1                 2
   1         O                -1.866473         -1.289145
   2         O                -1.151218         -0.976883
   3         O                -0.887844         -0.792856
   4         O                -0.805745         -0.529806
   5         O                -0.745635         -0.622267
   6         O                -0.663786         -0.543936
   7         O                -0.652066         -0.508778

 Normal termination of Gaussian 09 at Tue Dec 15 17:07:37 2015.
