 Gaussian 09, Revision D.01,
 Gaussian 09:  ES64L-G09RevD.01 24-Apr-2013

 ------------------------------------------------------------
 #P AM1(Input,print) CIS(Singlets,NStates=15) pop(full) force
 ------------------------------------------------------------

 -----------------
 AM1-Reparam Input
 -----------------
 Symbolic Z-matrix:
 Charge =  0 Multiplicity = 1

                         Standard orientation:
 ---------------------------------------------------------------------
 Center     Atomic      Atomic             Coordinates (Angstroms)
 Number     Number       Type             X           Y           Z
 ---------------------------------------------------------------------
      1          6           0        0.906798    0.776835   -0.013504
      2          6           0        1.034385   -0.574751    0.020855
      3          8           0       -0.305036   -1.109669   -0.002194
      4          6           0       -1.147473   -0.105361   -0.002074
      5          6           0       -0.458687    1.060529   -0.015200
      6          1           0       -0.909003    2.133576    0.071905
      7          1           0       -2.221451   -0.316488    0.014679
      8          1           0        1.834847   -1.276483   -0.028184
      9          1           0        1.725766    1.393239    0.018693
 ---------------------------------------------------------------------

 SCF Done:  E(RAM1) =  -6.24782541634     A.U. after   13 cycles

 Excitation energies and oscillator strengths:

 Excited State   1:      Singlet-A      6.4536 eV  192.12 nm  f=0.0243  <S**2>=0.000
      13 -> 15         0.57399
      13 -> 16        -0.33055
      13 -> 17        -0.14552
      13 -> 19         0.11327
 This state for optimization and/or second-order correction.
 Total Energy, E(CIS) =  -6.01066049776
 Copying the excited state density for this state as the 1-particle RhoCI density.

 Excited State   2:      Singlet-A      6.6420 eV  186.67 nm  f=0.1410  <S**2>=0.000
      13 -> 14        -0.40069
      13 -> 15         0.22364
      13 -> 16         0.44980
      13 -> 17        -0.24210

 Excited State   3:      Singlet-A      6.7958 eV  182.44 nm  f=0.3182  <S**2>=0.000
      13 -> 14         0.56425
      13 -> 15         0.17935
      13 -> 16         0.30147
      13 -> 17        -0.17829

 Excited State   4:      Singlet-A      7.7361 eV  160.27 nm  f=0.0027  <S**2>=0.000
      13 -> 15         0.24899
      13 -> 16         0.22340
      13 -> 17         0.58525
      13 -> 19         0.16986

 Excited State   5:      Singlet-A      8.2636 eV  150.04 nm  f=0.0013  <S**2>=0.000
      12 -> 14         0.10616
      13 -> 15        -0.11299
      13 -> 17        -0.16858
      13 -> 18        -0.22507
      13 -> 19         0.61674

 Excited State   6:      Singlet-A      8.6663 eV  143.07 nm  f=0.0029  <S**2>=0.000
      11 -> 14         0.16004
      12 -> 14         0.66150
      13 -> 18         0.12827

 Excited State   7:      Singlet-A      9.0649 eV  136.77 nm  f=0.0020  <S**2>=0.000
      10 -> 17         0.13141
      11 -> 14         0.16719
      12 -> 14        -0.15459
      13 -> 16         0.14768
      13 -> 18         0.58566
      13 -> 19         0.19383

 Excited State   8:      Singlet-A      9.1496 eV  135.51 nm  f=0.0064  <S**2>=0.000
      11 -> 14         0.65303
      12 -> 14        -0.12740
      13 -> 18        -0.17118

 Excited State   9:      Singlet-A      9.6045 eV  129.09 nm  f=0.0173  <S**2>=0.000
      11 -> 16        -0.19041
      12 -> 15         0.47725
      12 -> 16        -0.40484
      12 -> 17        -0.11403
      12 -> 18         0.11708

 Excited State  10:      Singlet-A      9.9464 eV  124.65 nm  f=0.0205  <S**2>=0.000
      13 -> 20         0.68002

 Excited State  11:      Singlet-A     10.1898 eV  121.67 nm  f=0.1525  <S**2>=0.000
      12 -> 15         0.36179
      12 -> 16         0.44746
      12 -> 17        -0.30441
      12 -> 19        -0.14462

 Excited State  12:      Singlet-A     10.3615 eV  119.66 nm  f=0.1065  <S**2>=0.000
       9 -> 15        -0.11032
      11 -> 15        -0.40285
      11 -> 16         0.46838
      11 -> 18        -0.13219
      12 -> 15         0.10796

 Excited State  13:      Singlet-A     10.5541 eV  117.47 nm  f=0.2004  <S**2>=0.000
       9 -> 15         0.12147
      10 -> 14         0.12802
      11 -> 15         0.41679
      11 -> 16         0.37949
      11 -> 17        -0.26510
      11 -> 18        -0.10643
      12 -> 15         0.12978

 Excited State  14:      Singlet-A     10.8247 eV  114.54 nm  f=0.0076  <S**2>=0.000
      10 -> 14        -0.21085
      10 -> 15         0.55468
      10 -> 17        -0.32566

 Excited State  15:      Singlet-A     10.9099 eV  113.64 nm  f=0.0950  <S**2>=0.000
      10 -> 14         0.60142
      10 -> 15         0.18231
      10 -> 17        -0.10519
      13 -> 21         0.11203
      13 -> 22         0.15110

 The electronic state is 1-A.
 Alpha  occ. eigenvalues --   -4.03487  -1.38856  -1.10001  -1.08000  -0.98965
 Alpha  occ. eigenvalues --   -0.96766  -0.89127  -0.73358  -0.70139  -0.60642
 Alpha  occ. eigenvalues --   -0.58452  -0.57188  -0.42887
 Alpha virt. eigenvalues --    0.01989   0.05194   0.06809   0.07500   0.13507
 Alpha virt. eigenvalues --    0.14513   0.16728   0.21432   0.26337   0.32009
 Alpha virt. eigenvalues --    0.38089

 Mulliken charges:
               1
     1  C   -0.343233
     2  C   -2.020478
     3  O    3.394638
     4  C   -2.050364
     5  C   -0.447102
     6  H    0.364082
     7  H    0.388437
     8  H    0.368784
     9  H    0.345235
 Sum of Mulliken charges =   0.00000

 Dipole moment (field-independent basis, Debye):
    X=             -3.6054    Y=            -10.6792    Z=             -0.0665  Tot=             11.2715
 N-N= 1.049892714933D+02 E-N=-1.690189303061D+02  KE=-2.529792606440D+01
 Orbital energies and kinetic energies (alpha):
                                 1                 2
   1         O                -4.034874         -2.987666
   2         O                -1.388556         -1.286835
   3         O                -1.100007         -1.053459
   4         O                -1.079998         -1.038627
   5         O                -0.989650         -0.847403
   6         O                -0.967661         -0.972092
   7         O                -0.891275         -0.841437

 Normal termination of Gaussian 09 at Fri Dec 11 13:41:35 2015.
