 Gaussian 09, Revision D.01,
 Gaussian 09:  ES64L-G09RevD.01 24-Apr-2013

 ------------------------------------------------------------
 #P AM1(Input,print) CIS(Singlets,NStates=15) pop(full) force
 ------------------------------------------------------------

 -----------------
 AM1-Reparam Input
 -----------------
 Symbolic Z-matrix:
 Charge =  0 Multiplicity = 1

                         Standard orientation:
 ---------------------------------------------------------------------
 Center     Atomic      Atomic             Coordinates (Angstroms)
 Number     Number       Type             X           Y           Z
 ---------------------------------------------------------------------
      1          6           0       -0.791361    0.865569   -0.019063
      2          6           0       -1.080120   -0.487728    0.038010
      3          8           0        0.150444   -1.116339   -0.018479
      4          6           0        1.149966   -0.213091   -0.005149
      5          6           0        0.564242    0.995773    0.007387
      6          1           0        1.120018    1.939580    0.030739
      7          1           0        2.137831   -0.601887    0.036199
      8          1           0       -1.978883   -1.080538   -0.012795
      9          1           0       -1.538885    1.710418   -0.033425
 ---------------------------------------------------------------------

 SCF Done:  E(RAM1) =   2.81363093775     A.U. after   13 cycles

 Excitation energies and oscillator strengths:

 Excited State   1:      Singlet-A      5.5299 eV  224.21 nm  f=0.3105  <S**2>=0.000
      11 -> 17         0.10187
      13 -> 14         0.69072
 This state for optimization and/or second-order correction.
 Total Energy, E(CIS) =   3.01685243164
 Copying the excited state density for this state as the 1-particle RhoCI density.

 Excited State   2:      Singlet-A      6.7665 eV  183.23 nm  f=0.0091  <S**2>=0.000
      13 -> 15         0.61531
      13 -> 16         0.17105
      13 -> 17         0.24390

 Excited State   3:      Singlet-A      6.9558 eV  178.24 nm  f=0.0006  <S**2>=0.000
       9 -> 14        -0.13858
      12 -> 14         0.67841

 Excited State   4:      Singlet-A      7.0676 eV  175.43 nm  f=0.0016  <S**2>=0.000
      10 -> 15        -0.10427
      13 -> 15        -0.17674
      13 -> 16         0.60247
      13 -> 18         0.17097
      13 -> 19         0.16261
      13 -> 21        -0.10023

 Excited State   5:      Singlet-A      7.5936 eV  163.27 nm  f=0.0080  <S**2>=0.000
      10 -> 14        -0.10838
      11 -> 14         0.68539

 Excited State   6:      Singlet-A      8.0631 eV  153.77 nm  f=0.0001  <S**2>=0.000
      13 -> 16        -0.12493
      13 -> 18         0.45100
      13 -> 19        -0.19177
      13 -> 20         0.13617
      13 -> 21        -0.44452

 Excited State   7:      Singlet-A      8.1802 eV  151.57 nm  f=0.0126  <S**2>=0.000
      10 -> 16         0.12829
      13 -> 15        -0.19753
      13 -> 17         0.63724

 Excited State   8:      Singlet-A      8.6791 eV  142.85 nm  f=0.0914  <S**2>=0.000
      10 -> 14         0.67973
      11 -> 14         0.10721

 Excited State   9:      Singlet-A      8.8447 eV  140.18 nm  f=0.0001  <S**2>=0.000
      13 -> 16        -0.16325
      13 -> 18         0.13507
      13 -> 19         0.64073

 Excited State  10:      Singlet-A      9.1933 eV  134.86 nm  f=0.0056  <S**2>=0.000
      13 -> 18         0.48139
      13 -> 20        -0.13660
      13 -> 21         0.47394

 Excited State  11:      Singlet-A      9.3576 eV  132.50 nm  f=0.0712  <S**2>=0.000
       9 -> 16        -0.10275
       9 -> 18        -0.11035
      11 -> 15         0.27199
      11 -> 16         0.13522
      11 -> 17         0.33890
      12 -> 16         0.20525
      12 -> 18         0.29953
      12 -> 19        -0.11499
      12 -> 21        -0.15189
      13 -> 14        -0.10771
      13 -> 20         0.11172

 Excited State  12:      Singlet-A      9.5413 eV  129.95 nm  f=0.0965  <S**2>=0.000
      11 -> 15        -0.10640
      12 -> 15        -0.17251
      13 -> 20         0.62388
      13 -> 21         0.17829

 Excited State  13:      Singlet-A      9.5765 eV  129.47 nm  f=0.0618  <S**2>=0.000
      11 -> 15         0.16640
      11 -> 16        -0.10327
      12 -> 15         0.57618
      12 -> 17         0.14064
      13 -> 20         0.19703

 Excited State  14:      Singlet-A      9.9182 eV  125.01 nm  f=0.1327  <S**2>=0.000
      11 -> 15        -0.15843
      11 -> 16        -0.32767
      12 -> 16         0.52503
      12 -> 19         0.12472

 Excited State  15:      Singlet-A     10.0441 eV  123.44 nm  f=0.0020  <S**2>=0.000
       9 -> 14         0.62735
      10 -> 15        -0.18979
      12 -> 14         0.12496

 The electronic state is 1-A.
 Alpha  occ. eigenvalues --   -1.72352  -1.12867  -0.92771  -0.78876  -0.75791
 Alpha  occ. eigenvalues --   -0.66443  -0.64302  -0.55515  -0.50125  -0.43246
 Alpha  occ. eigenvalues --   -0.42782  -0.40659  -0.30080
 Alpha virt. eigenvalues --    0.11574   0.18391   0.19757   0.23523   0.26260
 Alpha virt. eigenvalues --    0.27342   0.28623   0.30118   0.37210   0.45606
 Alpha virt. eigenvalues --    0.50715

 Mulliken charges:
               1
     1  C   -0.120503
     2  C   -1.981307
     3  O    3.234099
     4  C   -1.965740
     5  C   -0.153973
     6  H    0.189647
     7  H    0.305379
     8  H    0.306496
     9  H    0.185901
 Sum of Mulliken charges =   0.00000

 Dipole moment (field-independent basis, Debye):
    X=              1.5057    Y=             -9.5742    Z=             -0.4924  Tot=              9.7044
 N-N= 1.041572686542D+02 E-N=-1.693842264125D+02  KE=-1.478687927682D+01
 Orbital energies and kinetic energies (alpha):
                                 1                 2
   1         O                -1.723525         -1.223007
   2         O                -1.128670         -0.981959
   3         O                -0.927710         -0.840283
   4         O                -0.788765         -0.596026
   5         O                -0.757909         -0.676676
   6         O                -0.664428         -0.581909
   7         O                -0.643018         -0.528344

 Normal termination of Gaussian 09 at Tue Dec 15 17:05:57 2015.
