 Gaussian 09, Revision D.01,
 Gaussian 09:  ES64L-G09RevD.01 24-Apr-2013

 ------------------------------------------------------------
 #P AM1(Input,print) CIS(Singlets,NStates=15) pop(full) force
 ------------------------------------------------------------

 -----------------
 AM1-Reparam Input
 -----------------
 Symbolic Z-matrix:
 Charge =  0 Multiplicity = 1

                         Standard orientation:
 ---------------------------------------------------------------------
 Center     Atomic      Atomic             Coordinates (Angstroms)
 Number     Number       Type             X           Y           Z
 ---------------------------------------------------------------------
      1          6           0       -0.635852    0.987878    0.013521
      2          6           0       -1.130008   -0.288040    0.007647
      3          8           0       -0.073227   -1.147976    0.000258
      4          6           0        1.100177   -0.403273   -0.007055
      5          6           0        0.726460    0.910716   -0.029787
      6          1           0        1.488692    1.726728    0.064265
      7          1           0        2.010116   -0.945801    0.059112
      8          1           0       -2.049912   -0.717208   -0.032770
      9          1           0       -1.227742    1.876404    0.001369
 ---------------------------------------------------------------------

 SCF Done:  E(RAM1) =  0.217480791725E-01 A.U. after   13 cycles

 Excitation energies and oscillator strengths:

 Excited State   1:      Singlet-A      4.3237 eV  286.76 nm  f=0.1160  <S**2>=0.000
      12 -> 15         0.17737
      13 -> 14         0.67507
 This state for optimization and/or second-order correction.
 Total Energy, E(CIS) =  0.180640046704
 Copying the excited state density for this state as the 1-particle RhoCI density.

 Excited State   2:      Singlet-A      4.7577 eV  260.60 nm  f=0.0006  <S**2>=0.000
      13 -> 15         0.13337
      13 -> 16         0.67819

 Excited State   3:      Singlet-A      5.0298 eV  246.50 nm  f=0.0094  <S**2>=0.000
      12 -> 14        -0.40558
      13 -> 15         0.55723
      13 -> 16        -0.13847

 Excited State   4:      Singlet-A      5.9203 eV  209.42 nm  f=0.0004  <S**2>=0.000
      12 -> 17        -0.16521
      12 -> 20         0.10297
      12 -> 23         0.11580
      13 -> 17         0.33701
      13 -> 18         0.40677
      13 -> 20        -0.24246
      13 -> 22        -0.26362
      13 -> 23        -0.11298

 Excited State   5:      Singlet-A      5.9745 eV  207.52 nm  f=0.0030  <S**2>=0.000
      12 -> 18        -0.17194
      12 -> 22         0.12243
      13 -> 17         0.38093
      13 -> 18        -0.29842
      13 -> 19        -0.26601
      13 -> 22         0.15354
      13 -> 23        -0.26771

 Excited State   6:      Singlet-A      6.0719 eV  204.19 nm  f=0.0122  <S**2>=0.000
       7 -> 16        -0.18979
      12 -> 15         0.10573
      12 -> 16         0.63401
      12 -> 22        -0.12142

 Excited State   7:      Singlet-A      6.2198 eV  199.34 nm  f=0.3456  <S**2>=0.000
      12 -> 14         0.52572
      12 -> 16        -0.11668
      13 -> 15         0.38192

 Excited State   8:      Singlet-A      6.6160 eV  187.40 nm  f=0.0248  <S**2>=0.000
      12 -> 15         0.30560
      13 -> 17         0.14026
      13 -> 18        -0.21718
      13 -> 19         0.53433

 Excited State   9:      Singlet-A      6.6927 eV  185.25 nm  f=0.1120  <S**2>=0.000
      12 -> 15         0.59188
      13 -> 14        -0.14536
      13 -> 18         0.11551
      13 -> 19        -0.27466

 Excited State  10:      Singlet-A      6.9185 eV  179.21 nm  f=0.0038  <S**2>=0.000
      10 -> 14         0.46175
      10 -> 15        -0.13074
      11 -> 14         0.42134
      11 -> 15         0.22610

 Excited State  11:      Singlet-A      7.2701 eV  170.54 nm  f=0.0010  <S**2>=0.000
      10 -> 14         0.38200
      10 -> 15        -0.18669
      11 -> 14        -0.37261
      11 -> 15        -0.12444
      12 -> 17         0.13333
      12 -> 19        -0.20032
      13 -> 17         0.12151
      13 -> 18         0.18484
      13 -> 20         0.13934

 Excited State  12:      Singlet-A      7.3213 eV  169.35 nm  f=0.0009  <S**2>=0.000
      10 -> 14         0.18304
      11 -> 14        -0.22364
      12 -> 18        -0.16803
      12 -> 19         0.38813
      12 -> 21        -0.14050
      13 -> 18        -0.20782
      13 -> 22        -0.31623

 Excited State  13:      Singlet-A      7.4710 eV  165.95 nm  f=0.0012  <S**2>=0.000
       7 -> 16        -0.10257
      11 -> 14         0.13143
      12 -> 17         0.26510
      12 -> 18         0.24001
      12 -> 19         0.15873
      12 -> 22        -0.18865
      13 -> 17         0.32964
      13 -> 20         0.21502
      13 -> 22        -0.14181
      13 -> 23         0.18625
      13 -> 24        -0.20548

 Excited State  14:      Singlet-A      7.6213 eV  162.68 nm  f=0.0008  <S**2>=0.000
       9 -> 15         0.17898
      12 -> 17         0.34393
      12 -> 18        -0.26451
      12 -> 21        -0.20968
      12 -> 23        -0.16686
      12 -> 24        -0.10236
      13 -> 18         0.17674
      13 -> 20         0.20628
      13 -> 21         0.19729
      13 -> 24         0.16853

 Excited State  15:      Singlet-A      7.7092 eV  160.83 nm  f=0.0014  <S**2>=0.000
      12 -> 19         0.29341
      12 -> 21        -0.20612
      12 -> 23        -0.22508
      13 -> 18         0.12155
      13 -> 20        -0.13092
      13 -> 21        -0.29397
      13 -> 22         0.37575

 The electronic state is 1-A.
 Alpha  occ. eigenvalues --   -1.56543  -1.24222  -1.10261  -0.83093  -0.81392
 Alpha  occ. eigenvalues --   -0.68734  -0.59930  -0.57001  -0.51220  -0.50280
 Alpha  occ. eigenvalues --   -0.49739  -0.40289  -0.34192
 Alpha virt. eigenvalues --    0.02484   0.06720   0.09550   0.14477   0.14582
 Alpha virt. eigenvalues --    0.15578   0.17796   0.18692   0.19344   0.20773
 Alpha virt. eigenvalues --    0.22139

 Mulliken charges:
               1
     1  C   -0.198040
     2  C   -0.088552
     3  O   -0.094568
     4  C   -0.110680
     5  C   -0.193291
     6  H    0.156496
     7  H    0.192575
     8  H    0.182524
     9  H    0.153536
 Sum of Mulliken charges =   0.00000

 Dipole moment (field-independent basis, Debye):
    X=              0.1325    Y=              0.3938    Z=              0.0947  Tot=              0.4262
 N-N= 1.037109704132D+02 E-N=-1.714578370367D+02  KE=-1.658268997209D+01
 Orbital energies and kinetic energies (alpha):
                                 1                 2
   1         O                -1.565430         -1.319007
   2         O                -1.242220         -1.051042
   3         O                -1.102609         -0.964443
   4         O                -0.830930         -0.734411
   5         O                -0.813919         -0.699036
   6         O                -0.687339         -0.604978
   7         O                -0.599296         -0.486944

 Normal termination of Gaussian 09 at Tue Dec 15 16:20:35 2015.
