 Gaussian 09, Revision D.01,
 Gaussian 09:  ES64L-G09RevD.01 24-Apr-2013

 ------------------------------------------------------------
 #P AM1(Input,print) CIS(Singlets,NStates=15) pop(full) force
 ------------------------------------------------------------

 -----------------
 AM1-Reparam Input
 -----------------
 Symbolic Z-matrix:
 Charge =  0 Multiplicity = 1

                         Standard orientation:
 ---------------------------------------------------------------------
 Center     Atomic      Atomic             Coordinates (Angstroms)
 Number     Number       Type             X           Y           Z
 ---------------------------------------------------------------------
      1          6           0       -0.885270    0.787392    0.015701
      2          6           0       -1.065905   -0.472591   -0.015346
      3          8           0        0.213108   -1.146504    0.022311
      4          6           0        1.169657   -0.156108   -0.021829
      5          6           0        0.536669    1.068398   -0.009674
      6          1           0        1.077165    1.969415    0.057703
      7          1           0        2.133243   -0.528447   -0.004625
      8          1           0       -1.874166   -1.175156   -0.029939
      9          1           0       -1.572016    1.543671   -0.014736
 ---------------------------------------------------------------------

 SCF Done:  E(RAM1) =  -3.71331889229     A.U. after   14 cycles

 Excitation energies and oscillator strengths:

 Excited State   1:      Singlet-A      6.5158 eV  190.28 nm  f=0.2618  <S**2>=0.000
      13 -> 14         0.68637
 This state for optimization and/or second-order correction.
 Total Energy, E(CIS) =  -3.47386896585
 Copying the excited state density for this state as the 1-particle RhoCI density.

 Excited State   2:      Singlet-A      6.9567 eV  178.22 nm  f=0.0031  <S**2>=0.000
      11 -> 14        -0.23961
      12 -> 14         0.65318

 Excited State   3:      Singlet-A      7.5644 eV  163.91 nm  f=0.0021  <S**2>=0.000
      13 -> 15         0.68440
      13 -> 16         0.12784

 Excited State   4:      Singlet-A      8.0027 eV  154.93 nm  f=0.0084  <S**2>=0.000
      13 -> 15        -0.12698
      13 -> 16         0.67277

 Excited State   5:      Singlet-A      8.4259 eV  147.15 nm  f=0.0009  <S**2>=0.000
       8 -> 14         0.15599
      10 -> 14         0.54359
      11 -> 14         0.37316
      13 -> 16        -0.12713

 Excited State   6:      Singlet-A      8.8682 eV  139.81 nm  f=0.0006  <S**2>=0.000
      10 -> 14        -0.38652
      11 -> 14         0.52529
      12 -> 14         0.22974
      13 -> 17        -0.10198

 Excited State   7:      Singlet-A      9.3184 eV  133.05 nm  f=0.0044  <S**2>=0.000
       9 -> 14         0.34886
      13 -> 17         0.58781

 Excited State   8:      Singlet-A      9.8516 eV  125.85 nm  f=0.0031  <S**2>=0.000
       8 -> 14        -0.17775
       9 -> 14        -0.37958
      12 -> 15         0.49281
      12 -> 16         0.14062
      13 -> 17         0.13814

 Excited State   9:      Singlet-A     10.0477 eV  123.40 nm  f=0.0349  <S**2>=0.000
       8 -> 14         0.25620
       9 -> 14         0.25026
      11 -> 15        -0.10255
      12 -> 15         0.40609
      12 -> 16        -0.29188
      13 -> 17        -0.16063
      13 -> 18         0.19887

 Excited State  10:      Singlet-A     10.0666 eV  123.16 nm  f=0.0013  <S**2>=0.000
      12 -> 15        -0.10506
      12 -> 16         0.12718
      13 -> 18         0.66442

 Excited State  11:      Singlet-A     10.2201 eV  121.31 nm  f=0.0248  <S**2>=0.000
       8 -> 14         0.52688
       9 -> 14        -0.11347
      10 -> 14        -0.10747
      12 -> 16         0.39259
      12 -> 17         0.13123

 Excited State  12:      Singlet-A     10.3686 eV  119.58 nm  f=0.0049  <S**2>=0.000
       9 -> 15         0.18276
      13 -> 19         0.65799

 Excited State  13:      Singlet-A     10.6049 eV  116.91 nm  f=0.3452  <S**2>=0.000
       8 -> 14        -0.26076
       9 -> 14         0.29783
      10 -> 15         0.25867
      11 -> 16        -0.21389
      12 -> 16         0.33962
      13 -> 17        -0.27088

 Excited State  14:      Singlet-A     10.9857 eV  112.86 nm  f=0.0152  <S**2>=0.000
       8 -> 14        -0.12143
      11 -> 17        -0.10882
      12 -> 17         0.66255

 Excited State  15:      Singlet-A     11.1993 eV  110.71 nm  f=0.0048  <S**2>=0.000
       9 -> 15        -0.32272
       9 -> 16        -0.19372
      10 -> 15         0.11953
      11 -> 15         0.49041
      11 -> 16         0.19459
      13 -> 19         0.12675

 The electronic state is 1-A.
 Alpha  occ. eigenvalues --   -3.19129  -1.29164  -1.02260  -0.99452  -0.97184
 Alpha  occ. eigenvalues --   -0.86459  -0.79488  -0.62234  -0.58483  -0.57876
 Alpha  occ. eigenvalues --   -0.55919  -0.50979  -0.43838
 Alpha virt. eigenvalues --   -0.00382   0.07595   0.09310   0.13616   0.17305
 Alpha virt. eigenvalues --    0.18817   0.23945   0.30511   0.39379   0.43398
 Alpha virt. eigenvalues --    0.45149

 Mulliken charges:
               1
     1  C   -0.310356
     2  C   -0.957650
     3  O    2.487634
     4  C   -0.985693
     5  C   -0.384135
     6  H    0.092161
     7  H   -0.018142
     8  H   -0.015129
     9  H    0.091311
 Sum of Mulliken charges =   0.00000

 Dipole moment (field-independent basis, Debye):
    X=              1.7662    Y=            -10.6342    Z=              0.4170  Tot=             10.7879
 N-N= 1.015442349827D+02 E-N=-1.645377266555D+02  KE=-2.112807840565D+01
 Orbital energies and kinetic energies (alpha):
                                 1                 2
   1         O                -3.191286         -2.391315
   2         O                -1.291643         -1.118025
   3         O                -1.022596         -0.907563
   4         O                -0.994516         -0.902527
   5         O                -0.971839         -0.897945
   6         O                -0.864589         -0.821747
   7         O                -0.794885         -0.639634

 Normal termination of Gaussian 09 at Fri Dec 11 13:41:36 2015.
