 Gaussian 09, Revision D.01,
 Gaussian 09:  ES64L-G09RevD.01 24-Apr-2013

 ------------------------------------------------------------
 #P AM1(Input,print) CIS(Singlets,NStates=15) pop(full) force
 ------------------------------------------------------------

 -----------------
 AM1-Reparam Input
 -----------------
 Symbolic Z-matrix:
 Charge =  0 Multiplicity = 1

                         Standard orientation:
 ---------------------------------------------------------------------
 Center     Atomic      Atomic             Coordinates (Angstroms)
 Number     Number       Type             X           Y           Z
 ---------------------------------------------------------------------
      1          6           0        0.657691    0.968838    0.044262
      2          6           0        1.142680   -0.235774   -0.032656
      3          8           0        0.098969   -1.115651    0.020825
      4          6           0       -1.072876   -0.403624   -0.016764
      5          6           0       -0.822255    0.845673   -0.004951
      6          1           0       -1.530414    1.715047   -0.027783
      7          1           0       -1.984058   -1.063644    0.006417
      8          1           0        2.122164   -0.697798   -0.032013
      9          1           0        1.169120    1.920926   -0.052563
 ---------------------------------------------------------------------

 SCF Done:  E(RAM1) =   2.88650224830     A.U. after   14 cycles

 Excitation energies and oscillator strengths:

 Excited State   1:      Singlet-A      4.8706 eV  254.56 nm  f=0.3493  <S**2>=0.000
      13 -> 14         0.69655
 This state for optimization and/or second-order correction.
 Total Energy, E(CIS) =   3.06549212745
 Copying the excited state density for this state as the 1-particle RhoCI density.

 Excited State   2:      Singlet-A      5.7514 eV  215.57 nm  f=0.0002  <S**2>=0.000
      13 -> 15         0.64537
      13 -> 16        -0.15294
      13 -> 18         0.18185

 Excited State   3:      Singlet-A      6.0490 eV  204.97 nm  f=0.0019  <S**2>=0.000
      13 -> 15         0.17209
      13 -> 16         0.63814
      13 -> 17        -0.16697
      13 -> 18        -0.10288

 Excited State   4:      Singlet-A      6.3023 eV  196.73 nm  f=0.0014  <S**2>=0.000
      12 -> 14         0.69744

 Excited State   5:      Singlet-A      7.0589 eV  175.64 nm  f=0.0010  <S**2>=0.000
      13 -> 15        -0.14843
      13 -> 16         0.11313
      13 -> 17        -0.11785
      13 -> 18         0.58393
      13 -> 20         0.12360
      13 -> 21        -0.28666

 Excited State   6:      Singlet-A      7.4116 eV  167.28 nm  f=0.0173  <S**2>=0.000
      11 -> 14        -0.16761
      13 -> 16         0.15678
      13 -> 17         0.64798

 Excited State   7:      Singlet-A      7.7749 eV  159.47 nm  f=0.0008  <S**2>=0.000
      11 -> 14         0.67541
      13 -> 17         0.16373

 Excited State   8:      Singlet-A      8.0921 eV  153.22 nm  f=0.0005  <S**2>=0.000
      13 -> 16        -0.10084
      13 -> 19         0.66803
      13 -> 20         0.12462

 Excited State   9:      Singlet-A      8.6372 eV  143.55 nm  f=0.0389  <S**2>=0.000
      10 -> 14         0.46536
      12 -> 15        -0.33240
      13 -> 18         0.15066
      13 -> 20        -0.15650
      13 -> 21         0.26309

 Excited State  10:      Singlet-A      8.6444 eV  143.43 nm  f=0.0208  <S**2>=0.000
      10 -> 14        -0.22931
      12 -> 15         0.22940
      13 -> 18         0.27611
      13 -> 19         0.14372
      13 -> 20        -0.19445
      13 -> 21         0.48091

 Excited State  11:      Singlet-A      8.8039 eV  140.83 nm  f=0.1162  <S**2>=0.000
       8 -> 16        -0.10212
      10 -> 14         0.34220
      11 -> 17         0.11728
      12 -> 15         0.34475
      12 -> 16        -0.32817
      12 -> 18         0.25357
      13 -> 20         0.17920

 Excited State  12:      Singlet-A      8.9373 eV  138.73 nm  f=0.1010  <S**2>=0.000
      12 -> 15        -0.13733
      13 -> 20         0.59704
      13 -> 21         0.30219

 Excited State  13:      Singlet-A      9.3317 eV  132.86 nm  f=0.0901  <S**2>=0.000
      10 -> 14         0.25169
      11 -> 15         0.19221
      11 -> 17        -0.10211
      12 -> 15         0.34496
      12 -> 16         0.42359
      12 -> 17        -0.10626
      12 -> 18        -0.18651

 Excited State  14:      Singlet-A      9.5412 eV  129.95 nm  f=0.0777  <S**2>=0.000
       9 -> 16         0.11114
      11 -> 15        -0.10830
      11 -> 16        -0.22557
      11 -> 17         0.25184
      12 -> 15        -0.10711
      12 -> 16         0.34636
      12 -> 18         0.36991
      12 -> 19         0.16796
      12 -> 21        -0.14770

 Excited State  15:      Singlet-A      9.8744 eV  125.56 nm  f=0.0002  <S**2>=0.000
       9 -> 14         0.68616

 The electronic state is 1-A.
 Alpha  occ. eigenvalues --   -1.72933  -1.11654  -0.93992  -0.79545  -0.75157
 Alpha  occ. eigenvalues --   -0.65471  -0.64434  -0.54592  -0.49727  -0.44145
 Alpha  occ. eigenvalues --   -0.43156  -0.38366  -0.26319
 Alpha virt. eigenvalues --    0.11366   0.17023   0.18414   0.25445   0.26994
 Alpha virt. eigenvalues --    0.28523   0.30083   0.30613   0.36391   0.45224
 Alpha virt. eigenvalues --    0.49575

 Mulliken charges:
               1
     1  C   -0.202417
     2  C   -1.911711
     3  O    3.214591
     4  C   -1.898158
     5  C   -0.158790
     6  H    0.181485
     7  H    0.293221
     8  H    0.295855
     9  H    0.185924
 Sum of Mulliken charges =   0.00000

 Dipole moment (field-independent basis, Debye):
    X=              0.6178    Y=            -10.7190    Z=              0.5314  Tot=             10.7500
 N-N= 1.042580289402D+02 E-N=-1.695790115961D+02  KE=-1.477421547901D+01
 Orbital energies and kinetic energies (alpha):
                                 1                 2
   1         O                -1.729329         -1.224114
   2         O                -1.116538         -0.969811
   3         O                -0.939920         -0.855122
   4         O                -0.795452         -0.595384
   5         O                -0.751572         -0.682997
   6         O                -0.654710         -0.552501
   7         O                -0.644345         -0.528426

 Normal termination of Gaussian 09 at Tue Dec 15 17:05:54 2015.
