 Gaussian 09, Revision D.01,
 Gaussian 09:  ES64L-G09RevD.01 24-Apr-2013

 ------------------------------------------------------------
 #P AM1(Input,print) CIS(Singlets,NStates=15) pop(full) force
 ------------------------------------------------------------

 -----------------
 AM1-Reparam Input
 -----------------
 Symbolic Z-matrix:
 Charge =  0 Multiplicity = 1

                         Standard orientation:
 ---------------------------------------------------------------------
 Center     Atomic      Atomic             Coordinates (Angstroms)
 Number     Number       Type             X           Y           Z
 ---------------------------------------------------------------------
      1          6           0        0.559627    1.015389   -0.006607
      2          6           0        1.137285   -0.187972   -0.011430
      3          8           0        0.185658   -1.112927   -0.013445
      4          6           0       -1.030920   -0.500435    0.009945
      5          6           0       -0.857226    0.843068    0.026187
      6          1           0       -1.665486    1.532788   -0.070999
      7          1           0       -1.887181   -1.162659   -0.006423
      8          1           0        2.129413   -0.494770    0.098703
      9          1           0        1.085399    2.007760   -0.022291
 ---------------------------------------------------------------------

 SCF Done:  E(RAM1) =   1.73447534345     A.U. after   13 cycles

 Excitation energies and oscillator strengths:

 Excited State   1:      Singlet-A      5.4338 eV  228.17 nm  f=0.3544  <S**2>=0.000
      13 -> 14         0.69301
 This state for optimization and/or second-order correction.
 Total Energy, E(CIS) =   1.93416451694
 Copying the excited state density for this state as the 1-particle RhoCI density.

 Excited State   2:      Singlet-A      7.0173 eV  176.68 nm  f=0.0009  <S**2>=0.000
      12 -> 14         0.70042

 Excited State   3:      Singlet-A      7.2475 eV  171.07 nm  f=0.0057  <S**2>=0.000
      13 -> 15         0.65474
      13 -> 16         0.13626
      13 -> 17        -0.16981

 Excited State   4:      Singlet-A      7.3015 eV  169.81 nm  f=0.0007  <S**2>=0.000
      13 -> 15        -0.12915
      13 -> 16         0.65575
      13 -> 18        -0.11010
      13 -> 19        -0.16153

 Excited State   5:      Singlet-A      7.9023 eV  156.90 nm  f=0.0066  <S**2>=0.000
      11 -> 14         0.69866

 Excited State   6:      Singlet-A      8.7941 eV  140.99 nm  f=0.0005  <S**2>=0.000
      13 -> 15        -0.10458
      13 -> 17        -0.43952
      13 -> 18         0.45319
      13 -> 21         0.24355

 Excited State   7:      Singlet-A      9.2514 eV  134.02 nm  f=0.0087  <S**2>=0.000
      10 -> 16         0.11178
      13 -> 15         0.10499
      13 -> 17         0.50854
      13 -> 18         0.41867
      13 -> 21         0.12468

 Excited State   8:      Singlet-A      9.4739 eV  130.87 nm  f=0.0955  <S**2>=0.000
      10 -> 14         0.67507

 Excited State   9:      Singlet-A      9.7352 eV  127.36 nm  f=0.0024  <S**2>=0.000
      13 -> 16         0.10500
      13 -> 18        -0.18349
      13 -> 19         0.65893

 Excited State  10:      Singlet-A      9.9360 eV  124.78 nm  f=0.0077  <S**2>=0.000
       8 -> 15        -0.12000
       9 -> 16         0.10018
       9 -> 19        -0.10083
      11 -> 15         0.17338
      11 -> 16         0.13221
      11 -> 17        -0.20491
      11 -> 18        -0.13971
      12 -> 15        -0.25209
      12 -> 16         0.33977
      12 -> 17         0.22604
      12 -> 18        -0.27554

 Excited State  11:      Singlet-A     10.2885 eV  120.51 nm  f=0.1486  <S**2>=0.000
      11 -> 15        -0.11028
      11 -> 16        -0.17982
      12 -> 15         0.28083
      12 -> 16         0.54458
      12 -> 17        -0.16512
      12 -> 19        -0.10332

 Excited State  12:      Singlet-A     10.5599 eV  117.41 nm  f=0.1973  <S**2>=0.000
      11 -> 15         0.42080
      11 -> 17        -0.14527
      12 -> 15         0.44179
      12 -> 16        -0.12395
      12 -> 18        -0.15726

 Excited State  13:      Singlet-A     10.6061 eV  116.90 nm  f=0.0419  <S**2>=0.000
      13 -> 18        -0.22035
      13 -> 20        -0.45302
      13 -> 21         0.45796

 Excited State  14:      Singlet-A     10.7982 eV  114.82 nm  f=0.0636  <S**2>=0.000
      13 -> 18        -0.12909
      13 -> 20         0.50879
      13 -> 21         0.43867

 Excited State  15:      Singlet-A     10.9316 eV  113.42 nm  f=0.0728  <S**2>=0.000
       8 -> 15         0.12133
       8 -> 16        -0.12889
       9 -> 15         0.16650
      10 -> 14         0.12338
      11 -> 15        -0.29125
      11 -> 16         0.23074
      11 -> 18         0.13993
      11 -> 19        -0.25052
      12 -> 15         0.18957
      12 -> 17         0.30331
      12 -> 18        -0.11224
      12 -> 20        -0.12220

 The electronic state is 1-A.
 Alpha  occ. eigenvalues --   -1.92296  -1.18049  -0.93867  -0.82793  -0.78444
 Alpha  occ. eigenvalues --   -0.70092  -0.68903  -0.57749  -0.55408  -0.47798
 Alpha  occ. eigenvalues --   -0.44849  -0.42073  -0.30747
 Alpha virt. eigenvalues --    0.10332   0.19005   0.19071   0.26511   0.28309
 Alpha virt. eigenvalues --    0.29825   0.32362   0.34854   0.34945   0.43255
 Alpha virt. eigenvalues --    0.47619

 Mulliken charges:
               1
     1  C   -0.193551
     2  C   -2.028375
     3  O    3.302978
     4  C   -2.024350
     5  C   -0.155230
     6  H    0.210696
     7  H    0.331488
     8  H    0.341379
     9  H    0.214964
 Sum of Mulliken charges =   0.00000

 Dipole moment (field-independent basis, Debye):
    X=              1.7229    Y=            -10.1462    Z=             -0.0809  Tot=             10.2918
 N-N= 1.043107875700D+02 E-N=-1.699583942821D+02  KE=-1.553288688743D+01
 Orbital energies and kinetic energies (alpha):
                                 1                 2
   1         O                -1.922956         -1.394343
   2         O                -1.180492         -1.045432
   3         O                -0.938666         -0.891698
   4         O                -0.827933         -0.573456
   5         O                -0.784441         -0.702165
   6         O                -0.700916         -0.578590
   7         O                -0.689030         -0.542353

 Normal termination of Gaussian 09 at Tue Dec 15 17:09:38 2015.
