 Gaussian 09, Revision D.01,
 Gaussian 09:  ES64L-G09RevD.01 24-Apr-2013

 -------------------------------------------------------
 #P B3LYP/3-21G CIS(Singlets,NStates=15) pop(full) force
 -------------------------------------------------------

 --------
 FuranDFT
 --------
 Symbolic Z-matrix:
 Charge =  0 Multiplicity = 1

                         Standard orientation:
 ---------------------------------------------------------------------
 Center     Atomic      Atomic             Coordinates (Angstroms)
 Number     Number       Type             X           Y           Z
 ---------------------------------------------------------------------
      1          6           0       -1.130919    0.287243   -0.029313
      2          6           0       -0.637332   -0.884118    0.006210
      3          8           0        0.735099   -0.927321   -0.005206
      4          6           0        1.033423    0.377811   -0.009964
      5          6           0       -0.047682    1.198774    0.038390
      6          1           0        0.041450    2.270713   -0.035986
      7          1           0        2.146735    0.537052   -0.008008
      8          1           0       -1.150029   -1.903191    0.061767
      9          1           0       -2.223890    0.635741   -0.008065
 ---------------------------------------------------------------------

 SCF Done:  E(RB3LYP) =  -228.723284059     A.U. after   14 cycles

 Excitation energies and oscillator strengths:

 Excited State   1:      Singlet-A      7.4217 eV  167.06 nm  f=0.2038  <S**2>=0.000
      18 -> 19         0.68044
 This state for optimization and/or second-order correction.
 Total Energy, E(CIS) =  -228.450542228
 Copying the excited state density for this state as the 1-particle RhoCI density.

 Excited State   2:      Singlet-A      7.6785 eV  161.47 nm  f=0.0011  <S**2>=0.000
      17 -> 19         0.50665
      18 -> 20         0.48123

 Excited State   3:      Singlet-A      8.1248 eV  152.60 nm  f=0.0016  <S**2>=0.000
      18 -> 21         0.69833

 Excited State   4:      Singlet-A      9.2784 eV  133.63 nm  f=0.0043  <S**2>=0.000
      16 -> 19        -0.13080
      17 -> 21        -0.15913
      18 -> 22         0.56895
      18 -> 23        -0.33874

 Excited State   5:      Singlet-A      9.3350 eV  132.82 nm  f=0.0069  <S**2>=0.000
      16 -> 19         0.65698
      17 -> 21        -0.10912
      18 -> 22         0.16862
      18 -> 23         0.10209

 Excited State   6:      Singlet-A      9.4377 eV  131.37 nm  f=0.0061  <S**2>=0.000
      17 -> 20         0.10380
      17 -> 21         0.38106
      18 -> 22         0.36228
      18 -> 23         0.42462

 Excited State   7:      Singlet-A      9.6247 eV  128.82 nm  f=0.0079  <S**2>=0.000
      16 -> 19         0.17034
      17 -> 20         0.13077
      17 -> 21         0.50357
      18 -> 23        -0.41403

 Excited State   8:      Singlet-A      9.8117 eV  126.36 nm  f=0.2496  <S**2>=0.000
      15 -> 19         0.18915
      17 -> 19         0.29075
      17 -> 20         0.41931
      17 -> 21        -0.22782
      18 -> 20        -0.32093

 Excited State   9:      Singlet-A     10.0505 eV  123.36 nm  f=0.0164  <S**2>=0.000
      15 -> 19         0.64276
      17 -> 20        -0.16270
      18 -> 24        -0.17096

 Excited State  10:      Singlet-A     10.2419 eV  121.06 nm  f=0.0184  <S**2>=0.000
      15 -> 19         0.15020
      18 -> 24         0.66574

 Excited State  11:      Singlet-A     10.3846 eV  119.39 nm  f=0.3490  <S**2>=0.000
      14 -> 19         0.18466
      17 -> 19        -0.28381
      17 -> 20         0.46040
      18 -> 20         0.29056
      18 -> 24        -0.10373

 Excited State  12:      Singlet-A     10.4216 eV  118.97 nm  f=0.0360  <S**2>=0.000
      14 -> 19         0.65161
      17 -> 20        -0.12021
      17 -> 22         0.10819

 Excited State  13:      Singlet-A     10.7119 eV  115.74 nm  f=0.0015  <S**2>=0.000
      14 -> 19        -0.11794
      17 -> 22         0.68694

 Excited State  14:      Singlet-A     10.9783 eV  112.94 nm  f=0.0033  <S**2>=0.000
      13 -> 19         0.56073
      16 -> 20        -0.33810
      17 -> 23         0.14944
      18 -> 25         0.18401

 Excited State  15:      Singlet-A     11.0593 eV  112.11 nm  f=0.0026  <S**2>=0.000
      13 -> 19        -0.10270
      16 -> 20         0.10152
      17 -> 23         0.67903

 The electronic state is 1-A.
 Alpha  occ. eigenvalues --  -19.11833 -10.17750 -10.17149 -10.12606 -10.12394
 Alpha  occ. eigenvalues --   -1.14372  -0.82919  -0.74655  -0.60906  -0.55955
 Alpha  occ. eigenvalues --   -0.54278  -0.45907  -0.43059  -0.41313  -0.39629
 Alpha  occ. eigenvalues --   -0.37412  -0.28965  -0.23578
 Alpha virt. eigenvalues --    0.02683   0.09077   0.10899   0.14777   0.16009
 Alpha virt. eigenvalues --    0.18064   0.22115   0.24374   0.35526   0.44528
 Alpha virt. eigenvalues --    0.47439   0.67351   0.69577   0.71386   0.76134

 Mulliken charges:
               1
     1  C   -0.242327
     2  C    0.091663
     3  O   -0.476168
     4  C    0.086656
     5  C   -0.249053
     6  H    0.191976
     7  H    0.204886
     8  H    0.202665
     9  H    0.189701
 Sum of Mulliken charges =   0.00000

 Dipole moment (field-independent basis, Debye):
    X=             -0.5013    Y=              0.6716    Z=             -0.0022  Tot=              0.8380
 Quadrupole moment (field-independent basis, Debye-Ang):
   XX=            -25.5074   YY=            -26.7925   ZZ=            -31.7077
   XY=              1.8634   XZ=             -0.0977   YZ=             -0.2782

 Normal termination of Gaussian 09 at Tue Dec 15 16:12:08 2015.
