 Gaussian 09, Revision D.01,
 Gaussian 09:  ES64L-G09RevD.01 24-Apr-2013

 ------------------------------------------------------------
 #P AM1(Input,print) CIS(Singlets,NStates=15) pop(full) force
 ------------------------------------------------------------

 -----------------
 AM1-Reparam Input
 -----------------
 Symbolic Z-matrix:
 Charge =  0 Multiplicity = 1

                         Standard orientation:
 ---------------------------------------------------------------------
 Center     Atomic      Atomic             Coordinates (Angstroms)
 Number     Number       Type             X           Y           Z
 ---------------------------------------------------------------------
      1          6           0       -0.580822    0.998465   -0.038253
      2          6           0       -1.094022   -0.221458    0.050986
      3          8           0       -0.151048   -1.125212   -0.037750
      4          6           0        1.033067   -0.491337    0.032976
      5          6           0        0.801596    0.893040    0.012313
      6          1           0        1.655578    1.614624   -0.044816
      7          1           0        1.897739   -1.124745   -0.014281
      8          1           0       -2.165750   -0.502364   -0.007960
      9          1           0       -1.138090    1.941924    0.020924
 ---------------------------------------------------------------------

 SCF Done:  E(RAM1) =   2.58823575495     A.U. after   13 cycles

 Excitation energies and oscillator strengths:

 Excited State   1:      Singlet-A      5.3026 eV  233.82 nm  f=0.3378  <S**2>=0.000
      13 -> 14         0.69675
 This state for optimization and/or second-order correction.
 Total Energy, E(CIS) =   2.78310394978
 Copying the excited state density for this state as the 1-particle RhoCI density.

 Excited State   2:      Singlet-A      6.4142 eV  193.30 nm  f=0.0013  <S**2>=0.000
      10 -> 15         0.10419
      13 -> 15         0.65983
      13 -> 16        -0.12580
      13 -> 19        -0.13437

 Excited State   3:      Singlet-A      6.6322 eV  186.94 nm  f=0.0049  <S**2>=0.000
      12 -> 14        -0.15255
      13 -> 15         0.12204
      13 -> 16         0.64583

 Excited State   4:      Singlet-A      6.7404 eV  183.94 nm  f=0.0006  <S**2>=0.000
      12 -> 14         0.67733
      13 -> 16         0.12535

 Excited State   5:      Singlet-A      7.2949 eV  169.96 nm  f=0.0033  <S**2>=0.000
      11 -> 14         0.68890

 Excited State   6:      Singlet-A      8.0881 eV  153.29 nm  f=0.0003  <S**2>=0.000
      13 -> 17         0.67224
      13 -> 21         0.12846

 Excited State   7:      Singlet-A      8.4058 eV  147.50 nm  f=0.1151  <S**2>=0.000
      10 -> 14         0.69315

 Excited State   8:      Singlet-A      9.2236 eV  134.42 nm  f=0.0113  <S**2>=0.000
      10 -> 15         0.27119
      10 -> 16        -0.21483
      11 -> 15        -0.18693
      12 -> 16        -0.16913
      12 -> 17         0.13062
      13 -> 18         0.50195

 Excited State   9:      Singlet-A      9.3228 eV  132.99 nm  f=0.0334  <S**2>=0.000
       8 -> 16         0.10315
       9 -> 15         0.12642
      10 -> 15         0.11548
      10 -> 16        -0.14671
      11 -> 15         0.23293
      11 -> 16         0.26248
      11 -> 18        -0.19146
      12 -> 16         0.27791
      12 -> 17        -0.27702
      13 -> 18         0.25557

 Excited State  10:      Singlet-A      9.4660 eV  130.98 nm  f=0.1050  <S**2>=0.000
      10 -> 15        -0.13506
      10 -> 16        -0.23100
      11 -> 15         0.10266
      12 -> 15         0.50763
      12 -> 19        -0.11053
      13 -> 19        -0.32840

 Excited State  11:      Singlet-A      9.5062 eV  130.42 nm  f=0.0936  <S**2>=0.000
      10 -> 15         0.15300
      10 -> 16         0.27000
      12 -> 15         0.41954
      13 -> 19         0.41361

 Excited State  12:      Singlet-A      9.8737 eV  125.57 nm  f=0.1491  <S**2>=0.000
      10 -> 16         0.11827
      11 -> 15        -0.20517
      11 -> 16         0.55464
      11 -> 19         0.16606
      12 -> 16        -0.25391

 Excited State  13:      Singlet-A     10.0764 eV  123.04 nm  f=0.0003  <S**2>=0.000
      10 -> 15         0.50842
      10 -> 16         0.12305
      11 -> 15        -0.10814
      12 -> 16         0.10542
      13 -> 15        -0.17342
      13 -> 18        -0.19756
      13 -> 19        -0.30389

 Excited State  14:      Singlet-A     10.2510 eV  120.95 nm  f=0.0006  <S**2>=0.000
      10 -> 15        -0.16134
      10 -> 16         0.46687
      13 -> 16         0.16349
      13 -> 18         0.33821
      13 -> 19        -0.27004

 Excited State  15:      Singlet-A     10.2937 eV  120.45 nm  f=0.0195  <S**2>=0.000
       8 -> 15        -0.12018
       8 -> 16         0.20130
       9 -> 15        -0.16393
      10 -> 15        -0.14168
      11 -> 15        -0.19967
      11 -> 17         0.22357
      11 -> 19         0.10560
      12 -> 16         0.39365
      12 -> 17         0.24476
      12 -> 18         0.10427

 The electronic state is 1-A.
 Alpha  occ. eigenvalues --   -1.86123  -1.13760  -0.88110  -0.79903  -0.74291
 Alpha  occ. eigenvalues --   -0.66736  -0.64264  -0.56158  -0.54522  -0.44693
 Alpha  occ. eigenvalues --   -0.44403  -0.43126  -0.31285
 Alpha virt. eigenvalues --    0.08829   0.15823   0.17051   0.24765   0.26857
 Alpha virt. eigenvalues --    0.28795   0.34763   0.39873   0.50873   0.58228
 Alpha virt. eigenvalues --    0.62674

 Mulliken charges:
               1
     1  C   -0.206830
     2  C   -2.028646
     3  O    3.425921
     4  C   -2.007587
     5  C   -0.157755
     6  H    0.195818
     7  H    0.266135
     8  H    0.309196
     9  H    0.203747
 Sum of Mulliken charges =   0.00000

 Dipole moment (field-independent basis, Debye):
    X=             -1.9243    Y=            -10.3821    Z=             -1.3228  Tot=             10.6415
 N-N= 1.045560206798D+02 E-N=-1.706145431235D+02  KE=-1.437354560491D+01
 Orbital energies and kinetic energies (alpha):
                                 1                 2
   1         O                -1.861229         -1.284707
   2         O                -1.137603         -0.970327
   3         O                -0.881097         -0.786773
   4         O                -0.799031         -0.530007
   5         O                -0.742912         -0.622774
   6         O                -0.667355         -0.540893
   7         O                -0.642638         -0.507500

 Normal termination of Gaussian 09 at Tue Dec 15 17:07:45 2015.
