 Gaussian 09, Revision D.01,
 Gaussian 09:  ES64L-G09RevD.01 24-Apr-2013

 ------------------------------------------------------------
 #P AM1(Input,print) CIS(Singlets,NStates=15) pop(full) force
 ------------------------------------------------------------

 -----------------
 AM1-Reparam Input
 -----------------
 Symbolic Z-matrix:
 Charge =  0 Multiplicity = 1

                         Standard orientation:
 ---------------------------------------------------------------------
 Center     Atomic      Atomic             Coordinates (Angstroms)
 Number     Number       Type             X           Y           Z
 ---------------------------------------------------------------------
      1          6           0        0.269649    1.157506   -0.027083
      2          6           0        1.157473    0.128801    0.036511
      3          8           0        0.480125   -1.103581   -0.017696
      4          6           0       -0.879646   -0.711124    0.014942
      5          6           0       -1.066506    0.611417   -0.011165
      6          1           0       -1.941303    1.097651    0.039832
      7          1           0       -1.572960   -1.579756    0.011849
      8          1           0        2.206221    0.002054   -0.027439
      9          1           0        0.581217    2.189097    0.038100
 ---------------------------------------------------------------------

 SCF Done:  E(RAM1) =   1.74713812873     A.U. after   14 cycles

 Excitation energies and oscillator strengths:

 Excited State   1:      Singlet-A      5.2499 eV  236.17 nm  f=0.3329  <S**2>=0.000
      13 -> 14         0.69408
 This state for optimization and/or second-order correction.
 Total Energy, E(CIS) =   1.94006822070
 Copying the excited state density for this state as the 1-particle RhoCI density.

 Excited State   2:      Singlet-A      6.0062 eV  206.43 nm  f=0.0007  <S**2>=0.000
      11 -> 15         0.12843
      13 -> 15         0.66602
      13 -> 17         0.13030
      13 -> 19         0.11188

 Excited State   3:      Singlet-A      6.3158 eV  196.31 nm  f=0.0007  <S**2>=0.000
      11 -> 16        -0.12411
      13 -> 16         0.65062
      13 -> 17         0.15208
      13 -> 19        -0.12551

 Excited State   4:      Singlet-A      7.0622 eV  175.56 nm  f=0.0011  <S**2>=0.000
      12 -> 14         0.66977
      13 -> 19        -0.12358
      13 -> 20        -0.13641

 Excited State   5:      Singlet-A      7.3754 eV  168.10 nm  f=0.0129  <S**2>=0.000
      12 -> 14         0.16728
      13 -> 15        -0.12999
      13 -> 17         0.42211
      13 -> 19         0.33863
      13 -> 20         0.37844

 Excited State   6:      Singlet-A      7.5876 eV  163.40 nm  f=0.0169  <S**2>=0.000
      12 -> 14        -0.10587
      13 -> 16        -0.17334
      13 -> 17         0.51957
      13 -> 19        -0.27260
      13 -> 20        -0.28857

 Excited State   7:      Singlet-A      8.2119 eV  150.98 nm  f=0.0012  <S**2>=0.000
      10 -> 14         0.64062
      11 -> 14         0.13094
      13 -> 18        -0.16470
      13 -> 19         0.12455
      13 -> 20        -0.12361

 Excited State   8:      Singlet-A      8.2274 eV  150.70 nm  f=0.0007  <S**2>=0.000
      10 -> 14         0.22371
      13 -> 16        -0.10320
      13 -> 18         0.52354
      13 -> 19        -0.26691
      13 -> 20         0.21947
      13 -> 21         0.17275

 Excited State   9:      Singlet-A      8.5893 eV  144.35 nm  f=0.0090  <S**2>=0.000
      13 -> 18         0.42087
      13 -> 19         0.38906
      13 -> 20        -0.32536
      13 -> 21        -0.23172

 Excited State  10:      Singlet-A      8.6258 eV  143.74 nm  f=0.0725  <S**2>=0.000
      10 -> 14        -0.13022
      11 -> 14         0.64288
      12 -> 15         0.14313
      13 -> 22         0.12689

 Excited State  11:      Singlet-A      9.0681 eV  136.73 nm  f=0.0771  <S**2>=0.000
      13 -> 19         0.12705
      13 -> 20        -0.26423
      13 -> 21         0.62562

 Excited State  12:      Singlet-A      9.2769 eV  133.65 nm  f=0.1257  <S**2>=0.000
       8 -> 15         0.14022
       8 -> 16         0.10450
       9 -> 15         0.17298
      10 -> 16        -0.10046
      10 -> 17        -0.17206
      11 -> 14        -0.10259
      12 -> 15         0.44784
      12 -> 16        -0.28743
      12 -> 19         0.14272
      12 -> 20         0.16281

 Excited State  13:      Singlet-A      9.6060 eV  129.07 nm  f=0.0048  <S**2>=0.000
       7 -> 15        -0.11593
      11 -> 15         0.61273
      11 -> 16         0.20895
      11 -> 17         0.13291
      13 -> 15        -0.12975

 Excited State  14:      Singlet-A      9.7786 eV  126.79 nm  f=0.1532  <S**2>=0.000
       8 -> 16        -0.13647
      10 -> 17         0.12181
      11 -> 14        -0.16458
      11 -> 16        -0.18586
      12 -> 15         0.35637
      12 -> 16         0.37025
      12 -> 18         0.13429
      12 -> 20        -0.22304

 Excited State  15:      Singlet-A      9.8308 eV  126.12 nm  f=0.0445  <S**2>=0.000
       7 -> 16         0.10286
      10 -> 17         0.10854
      11 -> 15        -0.23002
      11 -> 16         0.53423
      12 -> 15         0.10579
      12 -> 17        -0.14572
      12 -> 20        -0.14088
      13 -> 16         0.11409

 The electronic state is 1-A.
 Alpha  occ. eigenvalues --   -1.89072  -1.21821  -0.98084  -0.81434  -0.80778
 Alpha  occ. eigenvalues --   -0.68312  -0.61438  -0.52342  -0.51490  -0.43143
 Alpha  occ. eigenvalues --   -0.41134  -0.39404  -0.26074
 Alpha virt. eigenvalues --    0.13737   0.18234   0.19460   0.26388   0.28987
 Alpha virt. eigenvalues --    0.29632   0.30901   0.31172   0.33473   0.43192
 Alpha virt. eigenvalues --    0.46547

 Mulliken charges:
               1
     1  C   -0.147473
     2  C   -1.898488
     3  O    3.165268
     4  C   -1.897730
     5  C   -0.116663
     6  H    0.172817
     7  H    0.277548
     8  H    0.273763
     9  H    0.170958
 Sum of Mulliken charges =   0.00000

 Dipole moment (field-independent basis, Debye):
    X=              4.3602    Y=            -10.8131    Z=             -0.6180  Tot=             11.6754
 N-N= 1.033731984730D+02 E-N=-1.684680103346D+02  KE=-1.569363057382D+01
 Orbital energies and kinetic energies (alpha):
                                 1                 2
   1         O                -1.890718         -1.330173
   2         O                -1.218208         -1.115085
   3         O                -0.980839         -0.923974
   4         O                -0.814337         -0.634423
   5         O                -0.807778         -0.695667
   6         O                -0.683115         -0.589446
   7         O                -0.614377         -0.508227

 Normal termination of Gaussian 09 at Tue Dec 15 17:06:59 2015.
