 Gaussian 09, Revision D.01,
 Gaussian 09:  ES64L-G09RevD.01 24-Apr-2013

 ------------------------------------------------------------
 #P AM1(Input,print) CIS(Singlets,NStates=15) pop(full) force
 ------------------------------------------------------------

 -----------------
 AM1-Reparam Input
 -----------------
 Symbolic Z-matrix:
 Charge =  0 Multiplicity = 1

                         Standard orientation:
 ---------------------------------------------------------------------
 Center     Atomic      Atomic             Coordinates (Angstroms)
 Number     Number       Type             X           Y           Z
 ---------------------------------------------------------------------
      1          6           0       -1.157311    0.290330   -0.028214
      2          6           0       -0.572330   -0.964085    0.039219
      3          8           0        0.763191   -0.880420   -0.007601
      4          6           0        1.032317    0.418708   -0.009386
      5          6           0       -0.081540    1.193798    0.014300
      6          1           0       -0.168388    2.210029    0.033333
      7          1           0        2.082468    0.696339   -0.010745
      8          1           0       -1.054420   -1.966954   -0.042835
      9          1           0       -2.292005    0.471443   -0.014456
 ---------------------------------------------------------------------

 SCF Done:  E(RAM1) =   2.03382166318     A.U. after   14 cycles

 Excitation energies and oscillator strengths:

 Excited State   1:      Singlet-A      5.5659 eV  222.76 nm  f=0.3372  <S**2>=0.000
      13 -> 14         0.69357
 This state for optimization and/or second-order correction.
 Total Energy, E(CIS) =   2.23836544012
 Copying the excited state density for this state as the 1-particle RhoCI density.

 Excited State   2:      Singlet-A      6.9096 eV  179.44 nm  f=0.0133  <S**2>=0.000
      13 -> 15         0.65117
      13 -> 17         0.22518

 Excited State   3:      Singlet-A      6.9517 eV  178.35 nm  f=0.0003  <S**2>=0.000
      12 -> 14         0.67915

 Excited State   4:      Singlet-A      7.0563 eV  175.71 nm  f=0.0002  <S**2>=0.000
      12 -> 14        -0.11995
      13 -> 16         0.61616
      13 -> 18         0.28076

 Excited State   5:      Singlet-A      7.7206 eV  160.59 nm  f=0.0092  <S**2>=0.000
      10 -> 14         0.59098
      11 -> 14         0.36997

 Excited State   6:      Singlet-A      8.2460 eV  150.36 nm  f=0.0001  <S**2>=0.000
      11 -> 15         0.10996
      13 -> 16        -0.19819
      13 -> 18         0.37449
      13 -> 19         0.16252
      13 -> 20         0.48875
      13 -> 21         0.16846

 Excited State   7:      Singlet-A      8.7161 eV  142.25 nm  f=0.1185  <S**2>=0.000
      10 -> 14        -0.36372
      11 -> 14         0.59125

 Excited State   8:      Singlet-A      8.7491 eV  141.71 nm  f=0.0202  <S**2>=0.000
      11 -> 16         0.16229
      13 -> 15        -0.18313
      13 -> 17         0.64640

 Excited State   9:      Singlet-A      9.1217 eV  135.92 nm  f=0.0008  <S**2>=0.000
      11 -> 15         0.12466
      13 -> 16        -0.16484
      13 -> 18         0.44681
      13 -> 19        -0.37028
      13 -> 20        -0.32514

 Excited State  10:      Singlet-A      9.5143 eV  130.31 nm  f=0.0032  <S**2>=0.000
       8 -> 15        -0.10729
      10 -> 15        -0.25188
      10 -> 17        -0.20670
      11 -> 15        -0.15314
      11 -> 17        -0.12434
      12 -> 16         0.27527
      12 -> 18         0.22894
      12 -> 19         0.12330
      12 -> 20         0.17850
      13 -> 19        -0.24673
      13 -> 20         0.13038

 Excited State  11:      Singlet-A      9.6103 eV  129.01 nm  f=0.0240  <S**2>=0.000
      10 -> 15        -0.11520
      12 -> 16         0.11717
      12 -> 18         0.10484
      13 -> 18         0.21020
      13 -> 19         0.50095
      13 -> 20        -0.28182
      13 -> 21        -0.15762

 Excited State  12:      Singlet-A     10.0135 eV  123.82 nm  f=0.0052  <S**2>=0.000
      10 -> 15         0.10690
      10 -> 16         0.19962
      10 -> 18         0.11323
      11 -> 15        -0.27598
      12 -> 15         0.49459
      12 -> 16         0.13110
      12 -> 17         0.19342

 Excited State  13:      Singlet-A     10.0943 eV  122.83 nm  f=0.1771  <S**2>=0.000
      11 -> 15         0.41332
      11 -> 16         0.12368
      11 -> 17         0.13121
      12 -> 16         0.42716
      12 -> 17         0.10324
      12 -> 18         0.18597

 Excited State  14:      Singlet-A     10.1517 eV  122.13 nm  f=0.0564  <S**2>=0.000
      10 -> 15        -0.32162
      10 -> 17        -0.11296
      11 -> 15         0.14408
      11 -> 16         0.15464
      12 -> 15         0.22735
      12 -> 16        -0.12576
      13 -> 20        -0.15032
      13 -> 21         0.43977

 Excited State  15:      Singlet-A     10.2019 eV  121.53 nm  f=0.0685  <S**2>=0.000
      10 -> 15         0.30626
      11 -> 15        -0.22427
      12 -> 15        -0.15728
      12 -> 16         0.15499
      13 -> 20        -0.13575
      13 -> 21         0.47925

 The electronic state is 1-A.
 Alpha  occ. eigenvalues --   -1.94653  -1.20570  -0.94702  -0.82273  -0.78300
 Alpha  occ. eigenvalues --   -0.68422  -0.65507  -0.53925  -0.53560  -0.43718
 Alpha  occ. eigenvalues --   -0.43513  -0.41530  -0.30125
 Alpha virt. eigenvalues --    0.11421   0.18838   0.19450   0.25523   0.27039
 Alpha virt. eigenvalues --    0.28811   0.29962   0.31847   0.37920   0.46915
 Alpha virt. eigenvalues --    0.51015

 Mulliken charges:
               1
     1  C   -0.190245
     2  C   -2.034760
     3  O    3.174744
     4  C   -2.018088
     5  C   -0.190582
     6  H    0.247670
     7  H    0.374939
     8  H    0.380821
     9  H    0.255501
 Sum of Mulliken charges =   0.00000

 Dipole moment (field-independent basis, Debye):
    X=              6.3560    Y=             -7.5890    Z=             -0.4563  Tot=              9.9096
 N-N= 1.046669438187D+02 E-N=-1.703363331770D+02  KE=-1.551398821803D+01
 Orbital energies and kinetic energies (alpha):
                                 1                 2
   1         O                -1.946527         -1.411579
   2         O                -1.205695         -1.078718
   3         O                -0.947015         -0.861471
   4         O                -0.822727         -0.604697
   5         O                -0.782999         -0.665693
   6         O                -0.684219         -0.573651
   7         O                -0.655073         -0.527463

 Normal termination of Gaussian 09 at Tue Dec 15 17:07:11 2015.
