 Gaussian 09, Revision D.01,
 Gaussian 09:  ES64L-G09RevD.01 24-Apr-2013

 ------------------------------------------------------------
 #P AM1(Input,print) CIS(Singlets,NStates=15) pop(full) force
 ------------------------------------------------------------

 -----------------
 AM1-Reparam Input
 -----------------
 Symbolic Z-matrix:
 Charge =  0 Multiplicity = 1

                         Standard orientation:
 ---------------------------------------------------------------------
 Center     Atomic      Atomic             Coordinates (Angstroms)
 Number     Number       Type             X           Y           Z
 ---------------------------------------------------------------------
      1          6           0       -0.885270    0.787392    0.015701
      2          6           0       -1.065905   -0.472591   -0.015346
      3          8           0        0.213108   -1.146504    0.022311
      4          6           0        1.169657   -0.156108   -0.021829
      5          6           0        0.536669    1.068398   -0.009674
      6          1           0        1.077165    1.969415    0.057703
      7          1           0        2.133243   -0.528447   -0.004625
      8          1           0       -1.874166   -1.175156   -0.029939
      9          1           0       -1.572016    1.543671   -0.014736
 ---------------------------------------------------------------------

 SCF Done:  E(RAM1) =  -5.89774783224     A.U. after   14 cycles

 Excitation energies and oscillator strengths:

 Excited State   1:      Singlet-A      6.8477 eV  181.06 nm  f=0.3190  <S**2>=0.000
      13 -> 14         0.68376
 This state for optimization and/or second-order correction.
 Total Energy, E(CIS) =  -5.64609809292
 Copying the excited state density for this state as the 1-particle RhoCI density.

 Excited State   2:      Singlet-A      7.2825 eV  170.25 nm  f=0.0004  <S**2>=0.000
      12 -> 14         0.59801
      13 -> 15        -0.29515
      13 -> 16        -0.14799
      13 -> 18        -0.15624

 Excited State   3:      Singlet-A      7.3179 eV  169.43 nm  f=0.0091  <S**2>=0.000
      12 -> 14         0.36624
      13 -> 15         0.51018
      13 -> 16         0.16707
      13 -> 18         0.24835

 Excited State   4:      Singlet-A      7.6417 eV  162.25 nm  f=0.0007  <S**2>=0.000
      13 -> 15        -0.26970
      13 -> 16         0.61554
      13 -> 21        -0.16331

 Excited State   5:      Singlet-A      8.5069 eV  145.75 nm  f=0.0274  <S**2>=0.000
      13 -> 15        -0.24166
      13 -> 16        -0.17767
      13 -> 18         0.61863

 Excited State   6:      Singlet-A      8.6020 eV  144.13 nm  f=0.1034  <S**2>=0.000
      10 -> 14         0.16339
      13 -> 17         0.66802

 Excited State   7:      Singlet-A      8.6801 eV  142.84 nm  f=0.0040  <S**2>=0.000
      11 -> 14         0.68906

 Excited State   8:      Singlet-A      9.5059 eV  130.43 nm  f=0.0910  <S**2>=0.000
       9 -> 15         0.13179
      10 -> 14         0.10080
      11 -> 18         0.11831
      12 -> 15        -0.40920
      12 -> 16         0.43229
      12 -> 21        -0.18650
      12 -> 22        -0.10681

 Excited State   9:      Singlet-A      9.6026 eV  129.12 nm  f=0.0084  <S**2>=0.000
      13 -> 19         0.19405
      13 -> 20         0.43359
      13 -> 21         0.43304
      13 -> 22         0.12171
      13 -> 23         0.18389

 Excited State  10:      Singlet-A      9.7165 eV  127.60 nm  f=0.0013  <S**2>=0.000
      13 -> 16         0.11404
      13 -> 19        -0.37349
      13 -> 20        -0.33568
      13 -> 21         0.43647
      13 -> 22         0.17663

 Excited State  11:      Singlet-A      9.8457 eV  125.93 nm  f=0.0011  <S**2>=0.000
      12 -> 15        -0.30843
      12 -> 16        -0.21346
      12 -> 18        -0.17453
      13 -> 19         0.44099
      13 -> 20        -0.26670
      13 -> 22         0.12825

 Excited State  12:      Singlet-A      9.8590 eV  125.76 nm  f=0.0011  <S**2>=0.000
      11 -> 16        -0.10413
      12 -> 15         0.37297
      12 -> 16         0.24391
      12 -> 18         0.19426
      12 -> 21        -0.10022
      13 -> 19         0.33093
      13 -> 20        -0.27923
      13 -> 22         0.11189

 Excited State  13:      Singlet-A     10.4543 eV  118.60 nm  f=0.0899  <S**2>=0.000
       9 -> 16        -0.18779
      10 -> 14         0.26279
      12 -> 16        -0.18946
      12 -> 18         0.47765
      12 -> 20        -0.11033
      12 -> 21         0.14155
      13 -> 22         0.15633

 Excited State  14:      Singlet-A     10.5087 eV  117.98 nm  f=0.0098  <S**2>=0.000
      12 -> 18        -0.11486
      13 -> 21        -0.25251
      13 -> 22         0.59115
      13 -> 23         0.14758

 Excited State  15:      Singlet-A     10.5607 eV  117.40 nm  f=0.1859  <S**2>=0.000
      11 -> 15         0.26328
      11 -> 16         0.12526
      11 -> 18         0.35082
      11 -> 20        -0.17472
      12 -> 15         0.11698
      12 -> 16        -0.18281
      12 -> 17        -0.21643
      12 -> 19         0.23907
      12 -> 20        -0.16858
      12 -> 22        -0.12677

 The electronic state is 1-A.
 Alpha  occ. eigenvalues --   -3.78010  -1.40159  -1.08225  -1.05299  -0.96039
 Alpha  occ. eigenvalues --   -0.94091  -0.81325  -0.62030  -0.58824  -0.54578
 Alpha  occ. eigenvalues --   -0.49445  -0.44898  -0.36640
 Alpha virt. eigenvalues --    0.10057   0.13589   0.14557   0.18682   0.19123
 Alpha virt. eigenvalues --    0.22992   0.23378   0.26395   0.29334   0.30448
 Alpha virt. eigenvalues --    0.35687

 Mulliken charges:
               1
     1  C   -0.168531
     2  C   -1.692326
     3  O    2.799509
     4  C   -1.749294
     5  C   -0.353834
     6  H    0.248765
     7  H    0.352759
     8  H    0.335194
     9  H    0.227760
 Sum of Mulliken charges =   0.00000

 Dipole moment (field-independent basis, Debye):
    X=              1.6464    Y=            -10.8696    Z=              0.5671  Tot=             11.0082
 N-N= 1.048429717125D+02 E-N=-1.703467768450D+02  KE=-2.494342349604D+01
 Orbital energies and kinetic energies (alpha):
                                 1                 2
   1         O                -3.780097         -3.061777
   2         O                -1.401586         -1.387439
   3         O                -1.082252         -1.131898
   4         O                -1.052993         -1.058175
   5         O                -0.960390         -0.963561
   6         O                -0.940914         -0.854261
   7         O                -0.813251         -0.830221

 Normal termination of Gaussian 09 at Fri Dec 11 13:41:23 2015.
