 Gaussian 09, Revision D.01,
 Gaussian 09:  ES64L-G09RevD.01 24-Apr-2013

 ------------------------------------------------------------
 #P AM1(Input,print) CIS(Singlets,NStates=15) pop(full) force
 ------------------------------------------------------------

 -----------------
 AM1-Reparam Input
 -----------------
 Symbolic Z-matrix:
 Charge =  0 Multiplicity = 1

                         Standard orientation:
 ---------------------------------------------------------------------
 Center     Atomic      Atomic             Coordinates (Angstroms)
 Number     Number       Type             X           Y           Z
 ---------------------------------------------------------------------
      1          6           0        1.167013   -0.258812   -0.004737
      2          6           0        0.108758   -1.117973   -0.004070
      3          8           0       -1.113809   -0.441459    0.003735
      4          6           0       -0.706110    0.856629    0.002176
      5          6           0        0.623408    0.998950   -0.000937
      6          1           0        1.147896    1.909734    0.006692
      7          1           0       -1.591595    1.537298   -0.015170
      8          1           0       -0.026602   -2.201753    0.001494
      9          1           0        2.222362   -0.586368    0.022516
 ---------------------------------------------------------------------

 SCF Done:  E(RAM1) =   1.74287706310     A.U. after   14 cycles

 Excitation energies and oscillator strengths:

 Excited State   1:      Singlet-A      5.6447 eV  219.65 nm  f=0.3131  <S**2>=0.000
      10 -> 17        -0.11708
      13 -> 14         0.69076
 This state for optimization and/or second-order correction.
 Total Energy, E(CIS) =   1.95031735043
 Copying the excited state density for this state as the 1-particle RhoCI density.

 Excited State   2:      Singlet-A      6.0988 eV  203.29 nm  f=0.0004  <S**2>=0.000
      11 -> 15         0.14802
      13 -> 15         0.67079
      13 -> 17        -0.11725

 Excited State   3:      Singlet-A      6.5097 eV  190.46 nm  f=0.0005  <S**2>=0.000
      11 -> 16        -0.15622
      13 -> 16         0.65390
      13 -> 17        -0.14567

 Excited State   4:      Singlet-A      7.3934 eV  167.70 nm  f=0.0001  <S**2>=0.000
      12 -> 14         0.67530
      13 -> 21         0.16821

 Excited State   5:      Singlet-A      7.6479 eV  162.12 nm  f=0.0289  <S**2>=0.000
      10 -> 14         0.11457
      13 -> 15         0.10388
      13 -> 16         0.13296
      13 -> 17         0.66070

 Excited State   6:      Singlet-A      7.9684 eV  155.59 nm  f=0.0008  <S**2>=0.000
      12 -> 14        -0.16582
      13 -> 19         0.23852
      13 -> 21         0.61244

 Excited State   7:      Singlet-A      8.1625 eV  151.89 nm  f=0.0011  <S**2>=0.000
      10 -> 14         0.68586
      13 -> 17        -0.10517

 Excited State   8:      Singlet-A      8.4644 eV  146.48 nm  f=0.0005  <S**2>=0.000
      13 -> 18         0.53470
      13 -> 19        -0.33010
      13 -> 20         0.17442
      13 -> 21         0.22339

 Excited State   9:      Singlet-A      8.7221 eV  142.15 nm  f=0.0037  <S**2>=0.000
      13 -> 18         0.43178
      13 -> 19         0.45467
      13 -> 20        -0.27167
      13 -> 21        -0.14098

 Excited State  10:      Singlet-A      8.7548 eV  141.62 nm  f=0.0479  <S**2>=0.000
      11 -> 14         0.65322
      12 -> 15        -0.15536

 Excited State  11:      Singlet-A      9.1940 eV  134.85 nm  f=0.0894  <S**2>=0.000
      11 -> 15        -0.19364
      13 -> 19         0.28863
      13 -> 20         0.58947

 Excited State  12:      Singlet-A      9.2303 eV  134.32 nm  f=0.0708  <S**2>=0.000
       9 -> 15        -0.22709
       9 -> 16        -0.10499
      10 -> 15         0.11448
      10 -> 17        -0.20840
      11 -> 15         0.11696
      12 -> 15         0.40629
      12 -> 16        -0.29112
      12 -> 18        -0.13367
      12 -> 21         0.16565

 Excited State  13:      Singlet-A      9.2867 eV  133.51 nm  f=0.0031  <S**2>=0.000
       7 -> 15        -0.12129
      11 -> 15         0.60571
      11 -> 17        -0.10296
      13 -> 15        -0.16260
      13 -> 19         0.13169
      13 -> 20         0.13997

 Excited State  14:      Singlet-A      9.6550 eV  128.42 nm  f=0.1734  <S**2>=0.000
       8 -> 16         0.10049
      10 -> 15        -0.23793
      10 -> 17         0.24992
      11 -> 14         0.17544
      12 -> 15         0.44171
      12 -> 16         0.22422
      12 -> 18         0.11218
      12 -> 21        -0.10028

 Excited State  15:      Singlet-A      9.7128 eV  127.65 nm  f=0.0028  <S**2>=0.000
       7 -> 16         0.11207
      11 -> 16         0.63587
      13 -> 16         0.18612

 The electronic state is 1-A.
 Alpha  occ. eigenvalues --   -1.90605  -1.24034  -0.97590  -0.81720  -0.80725
 Alpha  occ. eigenvalues --   -0.67893  -0.62889  -0.52168  -0.51278  -0.41946
 Alpha  occ. eigenvalues --   -0.40748  -0.39935  -0.27382
 Alpha virt. eigenvalues --    0.14883   0.17049   0.19159   0.25818   0.28291
 Alpha virt. eigenvalues --    0.29762   0.30606   0.31786   0.35522   0.45379
 Alpha virt. eigenvalues --    0.48449

 Mulliken charges:
               1
     1  C   -0.095109
     2  C   -1.916757
     3  O    3.159180
     4  C   -1.901420
     5  C   -0.130134
     6  H    0.168461
     7  H    0.275330
     8  H    0.274323
     9  H    0.166124
 Sum of Mulliken charges =   0.00000

 Dipole moment (field-independent basis, Debye):
    X=            -10.5862    Y=             -4.0233    Z=              0.0664  Tot=             11.3251
 N-N= 1.040486507606D+02 E-N=-1.696800703959D+02  KE=-1.575321220638D+01
 Orbital energies and kinetic energies (alpha):
                                 1                 2
   1         O                -1.906047         -1.366504
   2         O                -1.240343         -1.130708
   3         O                -0.975900         -0.909656
   4         O                -0.817198         -0.653962
   5         O                -0.807248         -0.668486
   6         O                -0.678929         -0.597027
   7         O                -0.628890         -0.520162

 Normal termination of Gaussian 09 at Tue Dec 15 17:06:52 2015.
