 Gaussian 09, Revision D.01,
 Gaussian 09:  ES64L-G09RevD.01 24-Apr-2013

 ------------------------------------------------------------
 #P AM1(Input,print) CIS(Singlets,NStates=15) pop(full) force
 ------------------------------------------------------------

 -----------------
 AM1-Reparam Input
 -----------------
 Symbolic Z-matrix:
 Charge =  0 Multiplicity = 1

                         Standard orientation:
 ---------------------------------------------------------------------
 Center     Atomic      Atomic             Coordinates (Angstroms)
 Number     Number       Type             X           Y           Z
 ---------------------------------------------------------------------
      1          6           0       -0.600845    1.011082   -0.011114
      2          6           0       -1.134477   -0.269980   -0.037861
      3          8           0       -0.093479   -1.155839    0.034801
      4          6           0        1.096304   -0.450574   -0.034439
      5          6           0        0.759577    0.910126    0.013513
      6          1           0        1.468851    1.740545    0.047492
      7          1           0        1.958711   -0.939815   -0.005863
      8          1           0       -2.157857   -0.646201    0.045303
      9          1           0       -1.245235    1.888258    0.054067
 ---------------------------------------------------------------------

 SCF Done:  E(RAM1) =   1.10254880355     A.U. after   14 cycles

 Excitation energies and oscillator strengths:

 Excited State   1:      Singlet-A      5.8068 eV  213.52 nm  f=0.1592  <S**2>=0.000
      12 -> 15         0.16234
      13 -> 14         0.66855
 This state for optimization and/or second-order correction.
 Total Energy, E(CIS) =   1.31594442975
 Copying the excited state density for this state as the 1-particle RhoCI density.

 Excited State   2:      Singlet-A      6.6620 eV  186.11 nm  f=0.0050  <S**2>=0.000
      13 -> 15         0.26248
      13 -> 16         0.62555
      13 -> 20         0.11970

 Excited State   3:      Singlet-A      7.0250 eV  176.49 nm  f=0.0007  <S**2>=0.000
      12 -> 14        -0.45607
      13 -> 15         0.47305
      13 -> 16        -0.22549

 Excited State   4:      Singlet-A      7.4550 eV  166.31 nm  f=0.0007  <S**2>=0.000
      12 -> 16        -0.18770
      13 -> 17         0.62992
      13 -> 18         0.11333
      13 -> 21        -0.13798

 Excited State   5:      Singlet-A      7.6542 eV  161.98 nm  f=0.0161  <S**2>=0.000
      10 -> 14         0.60856
      11 -> 14         0.21639
      11 -> 15         0.11850
      12 -> 14        -0.15028
      13 -> 15        -0.12314

 Excited State   6:      Singlet-A      7.6937 eV  161.15 nm  f=0.0010  <S**2>=0.000
       9 -> 14         0.19302
      10 -> 14        -0.22719
      11 -> 14         0.63109

 Excited State   7:      Singlet-A      7.9928 eV  155.12 nm  f=0.2210  <S**2>=0.000
      10 -> 14         0.23696
      11 -> 16         0.10439
      12 -> 14         0.49428
      13 -> 15         0.38017
      13 -> 16        -0.11226

 Excited State   8:      Singlet-A      8.1820 eV  151.53 nm  f=0.0091  <S**2>=0.000
      12 -> 15         0.29452
      12 -> 16         0.54220
      13 -> 17         0.14753
      13 -> 18         0.22415

 Excited State   9:      Singlet-A      8.4776 eV  146.25 nm  f=0.0271  <S**2>=0.000
       9 -> 15        -0.23658
      10 -> 14        -0.11162
      11 -> 15         0.62117
      13 -> 15         0.11112

 Excited State  10:      Singlet-A      8.5380 eV  145.21 nm  f=0.2429  <S**2>=0.000
      12 -> 15         0.59098
      12 -> 16        -0.27453
      13 -> 14        -0.14188
      13 -> 18        -0.13553

 Excited State  11:      Singlet-A      8.6704 eV  143.00 nm  f=0.0092  <S**2>=0.000
      12 -> 16        -0.22677
      13 -> 17        -0.15733
      13 -> 18         0.59890
      13 -> 24        -0.18311

 Excited State  12:      Singlet-A      8.7347 eV  141.94 nm  f=0.0028  <S**2>=0.000
      13 -> 19         0.59849
      13 -> 20         0.29657
      13 -> 22         0.12674

 Excited State  13:      Singlet-A      9.0540 eV  136.94 nm  f=0.0020  <S**2>=0.000
       7 -> 16         0.10655
      12 -> 17         0.62521
      13 -> 19        -0.18396
      13 -> 20         0.18103

 Excited State  14:      Singlet-A      9.2148 eV  134.55 nm  f=0.0493  <S**2>=0.000
       9 -> 16        -0.21974
      10 -> 16        -0.31135
      10 -> 17         0.10778
      10 -> 19         0.13846
      11 -> 16         0.46670
      11 -> 18         0.11688
      11 -> 20         0.13321

 Excited State  15:      Singlet-A      9.3472 eV  132.64 nm  f=0.0895  <S**2>=0.000
       9 -> 16        -0.11074
       9 -> 17        -0.19301
      10 -> 15         0.14989
      10 -> 16         0.37266
      10 -> 17         0.21810
      10 -> 19        -0.14728
      11 -> 16         0.29907
      11 -> 18        -0.19254

 The electronic state is 1-A.
 Alpha  occ. eigenvalues --   -1.81574  -1.19464  -0.98459  -0.86642  -0.81965
 Alpha  occ. eigenvalues --   -0.74183  -0.70620  -0.61689  -0.56370  -0.51239
 Alpha  occ. eigenvalues --   -0.50691  -0.46549  -0.39916
 Alpha virt. eigenvalues --    0.03676   0.08786   0.09637   0.12321   0.17984
 Alpha virt. eigenvalues --    0.18667   0.19610   0.21923   0.26212   0.26835
 Alpha virt. eigenvalues --    0.27198

 Mulliken charges:
               1
     1  C   -0.127726
     2  C   -1.280468
     3  O    2.163522
     4  C   -1.270193
     5  C   -0.110718
     6  H    0.117025
     7  H    0.182490
     8  H    0.207704
     9  H    0.118364
 Sum of Mulliken charges =   0.00000

 Dipole moment (field-independent basis, Debye):
    X=             -0.9026    Y=             -6.7359    Z=              0.8313  Tot=              6.8467
 N-N= 1.041323100059D+02 E-N=-1.707081241965D+02  KE=-1.496421875661D+01
 Orbital energies and kinetic energies (alpha):
                                 1                 2
   1         O                -1.815745         -1.226285
   2         O                -1.194640         -0.971792
   3         O                -0.984586         -0.812288
   4         O                -0.866421         -0.627153
   5         O                -0.819647         -0.670811
   6         O                -0.741828         -0.603275
   7         O                -0.706196         -0.514315

 Normal termination of Gaussian 09 at Tue Dec 15 17:05:35 2015.
