 Gaussian 09, Revision D.01,
 Gaussian 09:  ES64L-G09RevD.01 24-Apr-2013

 ------------------------------------------------------------
 #P AM1(Input,print) CIS(Singlets,NStates=15) pop(full) force
 ------------------------------------------------------------

 -----------------
 AM1-Reparam Input
 -----------------
 Symbolic Z-matrix:
 Charge =  0 Multiplicity = 1

                         Standard orientation:
 ---------------------------------------------------------------------
 Center     Atomic      Atomic             Coordinates (Angstroms)
 Number     Number       Type             X           Y           Z
 ---------------------------------------------------------------------
      1          6           0       -1.032729    0.572104    0.000414
      2          6           0       -0.867807   -0.779098    0.021517
      3          8           0        0.523989   -1.052383   -0.018254
      4          6           0        1.173568    0.160036    0.029286
      5          6           0        0.178627    1.165936   -0.031989
      6          1           0        0.403013    2.173500    0.036660
      7          1           0        2.222840    0.172623    0.001934
      8          1           0       -1.443409   -1.672987   -0.025621
      9          1           0       -2.084308    1.032058    0.017688
 ---------------------------------------------------------------------

 SCF Done:  E(RAM1) =  0.238136574077E-01 A.U. after   14 cycles

 Excitation energies and oscillator strengths:

 Excited State   1:      Singlet-A      4.1107 eV  301.62 nm  f=0.1251  <S**2>=0.000
      12 -> 15         0.15680
      13 -> 14         0.67846
 This state for optimization and/or second-order correction.
 Total Energy, E(CIS) =  0.174878023074
 Copying the excited state density for this state as the 1-particle RhoCI density.

 Excited State   2:      Singlet-A      4.6050 eV  269.24 nm  f=0.0003  <S**2>=0.000
      13 -> 16         0.69152

 Excited State   3:      Singlet-A      4.9031 eV  252.87 nm  f=0.0141  <S**2>=0.000
      12 -> 14        -0.39060
      13 -> 15         0.58393

 Excited State   4:      Singlet-A      5.5765 eV  222.33 nm  f=0.0006  <S**2>=0.000
      12 -> 17         0.13256
      13 -> 17         0.54673
      13 -> 20        -0.23266
      13 -> 21         0.24293
      13 -> 22        -0.12025
      13 -> 23        -0.11918

 Excited State   5:      Singlet-A      5.9262 eV  209.21 nm  f=0.0028  <S**2>=0.000
      12 -> 18        -0.16849
      12 -> 19         0.10506
      12 -> 23        -0.10888
      13 -> 18         0.48414
      13 -> 19        -0.30958
      13 -> 21         0.10822
      13 -> 23         0.24810

 Excited State   6:      Singlet-A      6.1217 eV  202.53 nm  f=0.2302  <S**2>=0.000
       7 -> 16         0.11284
      12 -> 14         0.45224
      12 -> 16        -0.37094
      13 -> 15         0.30568

 Excited State   7:      Singlet-A      6.1388 eV  201.97 nm  f=0.1089  <S**2>=0.000
       7 -> 16        -0.17511
      12 -> 14         0.30932
      12 -> 16         0.53166
      12 -> 21        -0.10960
      13 -> 15         0.21385

 Excited State   8:      Singlet-A      6.4954 eV  190.88 nm  f=0.0015  <S**2>=0.000
      13 -> 18         0.32368
      13 -> 19         0.58158
      13 -> 22         0.10015

 Excited State   9:      Singlet-A      6.7231 eV  184.42 nm  f=0.1151  <S**2>=0.000
      10 -> 14         0.13708
      11 -> 14         0.16198
      12 -> 15         0.63894
      13 -> 14        -0.13061

 Excited State  10:      Singlet-A      6.7691 eV  183.16 nm  f=0.0163  <S**2>=0.000
      10 -> 14         0.44072
      11 -> 14         0.41775
      11 -> 15         0.22369
      12 -> 15        -0.22266

 Excited State  11:      Singlet-A      7.1516 eV  173.37 nm  f=0.0012  <S**2>=0.000
      10 -> 14        -0.28287
      10 -> 15         0.18411
      11 -> 14         0.36251
      12 -> 17         0.23015
      12 -> 19         0.14528
      13 -> 17        -0.23920
      13 -> 20        -0.16143
      13 -> 21         0.16758

 Excited State  12:      Singlet-A      7.2159 eV  171.82 nm  f=0.0004  <S**2>=0.000
      10 -> 14         0.27564
      10 -> 15        -0.13090
      11 -> 14        -0.26513
      12 -> 17         0.12285
      12 -> 18         0.14702
      12 -> 19         0.19105
      13 -> 17        -0.23029
      13 -> 21         0.38282

 Excited State  13:      Singlet-A      7.3855 eV  167.88 nm  f=0.0004  <S**2>=0.000
      10 -> 14         0.12511
      12 -> 17         0.25579
      12 -> 19        -0.21668
      12 -> 21         0.14568
      13 -> 17        -0.13686
      13 -> 18         0.25993
      13 -> 20        -0.22657
      13 -> 21        -0.23530
      13 -> 23        -0.24474
      13 -> 24        -0.19577

 Excited State  14:      Singlet-A      7.4761 eV  165.84 nm  f=0.0084  <S**2>=0.000
      11 -> 14         0.11230
      12 -> 17        -0.19367
      12 -> 18         0.17522
      12 -> 19        -0.27005
      13 -> 18         0.15239
      13 -> 20         0.36507
      13 -> 21         0.26189
      13 -> 23        -0.22267
      13 -> 24        -0.16851

 Excited State  15:      Singlet-A      7.5883 eV  163.39 nm  f=0.0086  <S**2>=0.000
       9 -> 15        -0.12432
      12 -> 18         0.30031
      12 -> 20        -0.15259
      12 -> 22         0.16404
      12 -> 23         0.16833
      12 -> 24        -0.10679
      13 -> 17         0.10364
      13 -> 19        -0.10328
      13 -> 22         0.35252
      13 -> 23         0.24613
      13 -> 24        -0.24042

 The electronic state is 1-A.
 Alpha  occ. eigenvalues --   -1.54145  -1.24252  -1.08564  -0.83220  -0.80597
 Alpha  occ. eigenvalues --   -0.68007  -0.58822  -0.56523  -0.51490  -0.50277
 Alpha  occ. eigenvalues --   -0.49355  -0.40519  -0.33527
 Alpha virt. eigenvalues --    0.01979   0.06767   0.09479   0.13506   0.14476
 Alpha virt. eigenvalues --    0.15770   0.17307   0.18954   0.19053   0.20956
 Alpha virt. eigenvalues --    0.21755

 Mulliken charges:
               1
     1  C   -0.173158
     2  C   -0.116903
     3  O   -0.101466
     4  C   -0.098206
     5  C   -0.199117
     6  H    0.147936
     7  H    0.190140
     8  H    0.189166
     9  H    0.161607
 Sum of Mulliken charges =   0.00000

 Dipole moment (field-independent basis, Debye):
    X=             -0.2511    Y=              0.3735    Z=              0.0080  Tot=              0.4501
 N-N= 1.031518409755D+02 E-N=-1.705606978306D+02  KE=-1.650937185630D+01
 Orbital energies and kinetic energies (alpha):
                                 1                 2
   1         O                -1.541446         -1.302005
   2         O                -1.242523         -1.051652
   3         O                -1.085643         -0.953581
   4         O                -0.832196         -0.735482
   5         O                -0.805965         -0.696937
   6         O                -0.680075         -0.601395
   7         O                -0.588224         -0.479248

 Normal termination of Gaussian 09 at Tue Dec 15 16:26:29 2015.
