 Gaussian 09, Revision D.01,
 Gaussian 09:  ES64L-G09RevD.01 24-Apr-2013

 ------------------------------------------------------------
 #P AM1(Input,print) CIS(Singlets,NStates=15) pop(full) force
 ------------------------------------------------------------

 -----------------
 AM1-Reparam Input
 -----------------
 Symbolic Z-matrix:
 Charge =  0 Multiplicity = 1

                         Standard orientation:
 ---------------------------------------------------------------------
 Center     Atomic      Atomic             Coordinates (Angstroms)
 Number     Number       Type             X           Y           Z
 ---------------------------------------------------------------------
      1          6           0        0.793690    0.909031   -0.010062
      2          6           0        1.055359   -0.510029    0.011774
      3          8           0       -0.149891   -1.129275   -0.013064
      4          6           0       -1.121935   -0.230682   -0.006400
      5          6           0       -0.571771    1.008855    0.009104
      6          1           0       -1.136870    2.020088    0.001615
      7          1           0       -2.183792   -0.585309    0.049894
      8          1           0        1.969325   -1.125736    0.039170
      9          1           0        1.618412    1.662100   -0.012663
 ---------------------------------------------------------------------

 SCF Done:  E(RAM1) =   2.55602656360     A.U. after   13 cycles

 Excitation energies and oscillator strengths:

 Excited State   1:      Singlet-A      5.4580 eV  227.16 nm  f=0.3401  <S**2>=0.000
      13 -> 14         0.69622
 This state for optimization and/or second-order correction.
 Total Energy, E(CIS) =   2.75660451729
 Copying the excited state density for this state as the 1-particle RhoCI density.

 Excited State   2:      Singlet-A      6.6659 eV  186.00 nm  f=0.0021  <S**2>=0.000
      11 -> 15         0.11121
      12 -> 14        -0.25449
      13 -> 15         0.61566
      13 -> 19        -0.11583

 Excited State   3:      Singlet-A      6.7445 eV  183.83 nm  f=0.0032  <S**2>=0.000
      12 -> 14         0.52210
      13 -> 15         0.12475
      13 -> 16        -0.42998

 Excited State   4:      Singlet-A      6.8233 eV  181.71 nm  f=0.0016  <S**2>=0.000
      10 -> 14         0.15379
      12 -> 14         0.37188
      13 -> 15         0.23614
      13 -> 16         0.50027

 Excited State   5:      Singlet-A      7.3392 eV  168.94 nm  f=0.0028  <S**2>=0.000
      10 -> 14         0.62120
      11 -> 14         0.27501
      12 -> 14        -0.12489
      13 -> 16        -0.10739

 Excited State   6:      Singlet-A      8.2065 eV  151.08 nm  f=0.0002  <S**2>=0.000
      11 -> 16        -0.10040
      13 -> 17         0.66206
      13 -> 18        -0.11332
      13 -> 21         0.13086

 Excited State   7:      Singlet-A      8.3964 eV  147.66 nm  f=0.1062  <S**2>=0.000
      10 -> 14        -0.27862
      11 -> 14         0.64144

 Excited State   8:      Singlet-A      9.2748 eV  133.68 nm  f=0.1460  <S**2>=0.000
       9 -> 15        -0.11830
      10 -> 15        -0.24949
      10 -> 16        -0.14753
      10 -> 17        -0.13141
      10 -> 18         0.18242
      12 -> 15         0.18622
      12 -> 16         0.36925
      12 -> 17        -0.30921
      12 -> 18        -0.12064

 Excited State   9:      Singlet-A      9.2917 eV  133.44 nm  f=0.0059  <S**2>=0.000
       7 -> 15        -0.10671
      10 -> 15        -0.10344
      10 -> 16         0.10327
      11 -> 15         0.28967
      11 -> 16        -0.25777
      13 -> 18         0.54296

 Excited State  10:      Singlet-A      9.5413 eV  129.95 nm  f=0.1217  <S**2>=0.000
      10 -> 15         0.10075
      12 -> 15         0.63131
      12 -> 16        -0.16012
      12 -> 19        -0.14873

 Excited State  11:      Singlet-A      9.5579 eV  129.72 nm  f=0.0005  <S**2>=0.000
       7 -> 16         0.10392
      10 -> 16        -0.11533
      11 -> 15         0.23036
      11 -> 16         0.40950
      13 -> 17         0.13041
      13 -> 19         0.45061

 Excited State  12:      Singlet-A      9.9800 eV  124.23 nm  f=0.1418  <S**2>=0.000
      10 -> 15        -0.14566
      10 -> 16         0.57597
      10 -> 19         0.16399
      11 -> 16         0.22207
      12 -> 17        -0.10539

 Excited State  13:      Singlet-A     10.1593 eV  122.04 nm  f=0.0014  <S**2>=0.000
      10 -> 15        -0.20211
      11 -> 15         0.48173
      13 -> 15        -0.19009
      13 -> 18        -0.26218
      13 -> 19        -0.29406

 Excited State  14:      Singlet-A     10.2862 eV  120.53 nm  f=0.0652  <S**2>=0.000
       8 -> 16        -0.20090
       9 -> 16         0.10133
      10 -> 17        -0.13390
      11 -> 16         0.10980
      12 -> 16         0.34128
      12 -> 17         0.42912
      12 -> 19         0.11304
      12 -> 20        -0.12378

 Excited State  15:      Singlet-A     10.3938 eV  119.29 nm  f=0.0043  <S**2>=0.000
       9 -> 14        -0.13012
      10 -> 16         0.20448
      11 -> 16        -0.36375
      13 -> 16        -0.16128
      13 -> 18        -0.29718
      13 -> 19         0.36640

 The electronic state is 1-A.
 Alpha  occ. eigenvalues --   -1.84837  -1.12271  -0.86248  -0.78907  -0.74092
 Alpha  occ. eigenvalues --   -0.65469  -0.63608  -0.56496  -0.54889  -0.44754
 Alpha  occ. eigenvalues --   -0.44448  -0.43086  -0.32119
 Alpha virt. eigenvalues --    0.08758   0.15870   0.16964   0.23951   0.26270
 Alpha virt. eigenvalues --    0.28541   0.33807   0.39155   0.50445   0.57491
 Alpha virt. eigenvalues --    0.62581

 Mulliken charges:
               1
     1  C   -0.160444
     2  C   -2.034804
     3  O    3.434001
     4  C   -2.027518
     5  C   -0.189747
     6  H    0.210195
     7  H    0.296104
     8  H    0.276146
     9  H    0.196066
 Sum of Mulliken charges =   0.00000

 Dipole moment (field-independent basis, Debye):
    X=             -1.8520    Y=            -10.0878    Z=             -0.0871  Tot=             10.2568
 N-N= 1.037844251887D+02 E-N=-1.693383205382D+02  KE=-1.429399228487D+01
 Orbital energies and kinetic energies (alpha):
                                 1                 2
   1         O                -1.848373         -1.266076
   2         O                -1.122712         -0.957083
   3         O                -0.862477         -0.751703
   4         O                -0.789069         -0.542682
   5         O                -0.740920         -0.617538
   6         O                -0.654693         -0.558452
   7         O                -0.636077         -0.497596

 Normal termination of Gaussian 09 at Tue Dec 15 17:07:33 2015.
