 Gaussian 09, Revision D.01,
 Gaussian 09:  ES64L-G09RevD.01 24-Apr-2013

 ------------------------------------------------------------
 #P AM1(Input,print) CIS(Singlets,NStates=15) pop(full) force
 ------------------------------------------------------------

 -----------------
 AM1-Reparam Input
 -----------------
 Symbolic Z-matrix:
 Charge =  0 Multiplicity = 1

                         Standard orientation:
 ---------------------------------------------------------------------
 Center     Atomic      Atomic             Coordinates (Angstroms)
 Number     Number       Type             X           Y           Z
 ---------------------------------------------------------------------
      1          6           0        1.041420    0.649805   -0.038434
      2          6           0        0.885524   -0.662698    0.043344
      3          8           0       -0.430291   -1.099748   -0.015550
      4          6           0       -1.099306    0.047668   -0.016891
      5          6           0       -0.381449    1.131555    0.027832
      6          1           0       -0.679998    2.150430    0.006740
      7          1           0       -2.171500   -0.081625    0.031763
      8          1           0        1.677080   -1.468754   -0.000150
      9          1           0        1.939605    1.199960   -0.009059
 ---------------------------------------------------------------------

 SCF Done:  E(RAM1) =   1.12678473090     A.U. after   14 cycles

 Excitation energies and oscillator strengths:

 Excited State   1:      Singlet-A      5.2331 eV  236.92 nm  f=0.2232  <S**2>=0.000
      13 -> 14         0.68587
 This state for optimization and/or second-order correction.
 Total Energy, E(CIS) =   1.31909605195
 Copying the excited state density for this state as the 1-particle RhoCI density.

 Excited State   2:      Singlet-A      6.1405 eV  201.91 nm  f=0.0022  <S**2>=0.000
      13 -> 15         0.57564
      13 -> 16         0.34375
      13 -> 18         0.11401
      13 -> 19         0.11473

 Excited State   3:      Singlet-A      6.3610 eV  194.91 nm  f=0.0022  <S**2>=0.000
      13 -> 16        -0.17979
      13 -> 17         0.64541
      13 -> 18        -0.13179
      13 -> 19         0.13400

 Excited State   4:      Singlet-A      6.7104 eV  184.77 nm  f=0.0314  <S**2>=0.000
      12 -> 14        -0.35859
      13 -> 15        -0.31062
      13 -> 16         0.48572
      13 -> 17         0.15049

 Excited State   5:      Singlet-A      7.0649 eV  175.49 nm  f=0.0044  <S**2>=0.000
      11 -> 14         0.67108
      12 -> 14         0.16083

 Excited State   6:      Singlet-A      7.8007 eV  158.94 nm  f=0.0014  <S**2>=0.000
      13 -> 15        -0.11455
      13 -> 18         0.65085
      13 -> 24         0.15419

 Excited State   7:      Singlet-A      8.0507 eV  154.00 nm  f=0.2899  <S**2>=0.000
      10 -> 14         0.11144
      11 -> 14        -0.18007
      11 -> 19         0.10173
      12 -> 14         0.55876
      13 -> 15        -0.17101
      13 -> 16         0.27136

 Excited State   8:      Singlet-A      8.1830 eV  151.51 nm  f=0.0113  <S**2>=0.000
      10 -> 14         0.65621
      11 -> 16         0.10773
      13 -> 20         0.11461

 Excited State   9:      Singlet-A      8.3812 eV  147.93 nm  f=0.0004  <S**2>=0.000
      13 -> 17        -0.11849
      13 -> 19         0.40255
      13 -> 20         0.51187
      13 -> 23         0.12279

 Excited State  10:      Singlet-A      8.6823 eV  142.80 nm  f=0.0354  <S**2>=0.000
       8 -> 17         0.11004
       9 -> 15         0.14604
      11 -> 15         0.18260
      11 -> 16         0.14569
      11 -> 17        -0.10822
      11 -> 18         0.16408
      12 -> 15        -0.37975
      12 -> 16         0.38744
      12 -> 17        -0.14810

 Excited State  11:      Singlet-A      8.7375 eV  141.90 nm  f=0.0026  <S**2>=0.000
      12 -> 15         0.34244
      12 -> 16         0.29811
      13 -> 19        -0.32832
      13 -> 20         0.36414
      13 -> 21         0.13265

 Excited State  12:      Singlet-A      8.8439 eV  140.19 nm  f=0.0046  <S**2>=0.000
      11 -> 17        -0.13524
      12 -> 15         0.14583
      12 -> 16         0.21595
      12 -> 17         0.54719
      13 -> 19         0.16026
      13 -> 20        -0.13253
      13 -> 21         0.11658

 Excited State  13:      Singlet-A      8.9459 eV  138.59 nm  f=0.0117  <S**2>=0.000
       9 -> 15        -0.14053
       9 -> 16         0.22260
      10 -> 14         0.17070
      11 -> 15         0.39001
      11 -> 16        -0.37394
      12 -> 15         0.15729
      13 -> 19         0.10247
      13 -> 21        -0.12783

 Excited State  14:      Singlet-A      9.0453 eV  137.07 nm  f=0.0015  <S**2>=0.000
      11 -> 15         0.15633
      11 -> 16        -0.11971
      12 -> 15        -0.22878
      12 -> 16        -0.18670
      13 -> 19        -0.18035
      13 -> 21         0.53258

 Excited State  15:      Singlet-A      9.2218 eV  134.45 nm  f=0.0058  <S**2>=0.000
      12 -> 15         0.23177
      12 -> 16         0.12742
      12 -> 17        -0.30980
      13 -> 17        -0.12307
      13 -> 19         0.34232
      13 -> 20        -0.19270
      13 -> 21         0.34367
      13 -> 22         0.10889

 The electronic state is 1-A.
 Alpha  occ. eigenvalues --   -1.82513  -1.19709  -0.98929  -0.87832  -0.79391
 Alpha  occ. eigenvalues --   -0.74283  -0.71901  -0.58413  -0.54948  -0.52697
 Alpha  occ. eigenvalues --   -0.48837  -0.47279  -0.36152
 Alpha virt. eigenvalues --    0.03835   0.09878   0.10354   0.10973   0.18833
 Alpha virt. eigenvalues --    0.19582   0.21827   0.22182   0.27193   0.28175
 Alpha virt. eigenvalues --    0.28348

 Mulliken charges:
               1
     1  C   -0.094707
     2  C   -1.226192
     3  O    2.086211
     4  C   -1.196924
     5  C   -0.174431
     6  H    0.104526
     7  H    0.200153
     8  H    0.205273
     9  H    0.096090
 Sum of Mulliken charges =   0.00000

 Dipole moment (field-independent basis, Debye):
    X=             -2.8108    Y=             -7.2278    Z=             -0.2532  Tot=              7.7592
 N-N= 1.045379996888D+02 E-N=-1.715758314095D+02  KE=-1.498892707824D+01
 Orbital energies and kinetic energies (alpha):
                                 1                 2
   1         O                -1.825130         -1.248288
   2         O                -1.197087         -0.980370
   3         O                -0.989294         -0.838717
   4         O                -0.878319         -0.615239
   5         O                -0.793911         -0.673014
   6         O                -0.742828         -0.576606
   7         O                -0.719008         -0.516845

 Normal termination of Gaussian 09 at Tue Dec 15 17:05:39 2015.
