 Gaussian 09, Revision D.01,
 Gaussian 09:  ES64L-G09RevD.01 24-Apr-2013

 ------------------------------------------------------------
 #P AM1(Input,print) CIS(Singlets,NStates=15) pop(full) force
 ------------------------------------------------------------

 -----------------
 AM1-Reparam Input
 -----------------
 Symbolic Z-matrix:
 Charge =  0 Multiplicity = 1

                         Standard orientation:
 ---------------------------------------------------------------------
 Center     Atomic      Atomic             Coordinates (Angstroms)
 Number     Number       Type             X           Y           Z
 ---------------------------------------------------------------------
      1          6           0       -0.876845    0.810863    0.003037
      2          6           0       -1.038661   -0.488756    0.018427
      3          8           0        0.198093   -1.086035   -0.031322
      4          6           0        1.112108   -0.203469    0.036920
      5          6           0        0.596026    1.014068   -0.009220
      6          1           0        1.077561    1.972741   -0.017671
      7          1           0        2.108694   -0.511949   -0.013008
      8          1           0       -1.906568   -1.134547    0.030369
      9          1           0       -1.620199    1.565802   -0.044097
 ---------------------------------------------------------------------

 SCF Done:  E(RAM1) =   1.77206696468     A.U. after   14 cycles

 Excitation energies and oscillator strengths:

 Excited State   1:      Singlet-A      5.1245 eV  241.94 nm  f=0.3766  <S**2>=0.000
      13 -> 14         0.69715
 This state for optimization and/or second-order correction.
 Total Energy, E(CIS) =   1.96038942893
 Copying the excited state density for this state as the 1-particle RhoCI density.

 Excited State   2:      Singlet-A      6.6527 eV  186.37 nm  f=0.0002  <S**2>=0.000
      12 -> 14         0.68501
      13 -> 15         0.14999

 Excited State   3:      Singlet-A      6.6712 eV  185.85 nm  f=0.0023  <S**2>=0.000
      12 -> 14        -0.15591
      13 -> 15         0.65699
      13 -> 17        -0.16179

 Excited State   4:      Singlet-A      7.1745 eV  172.81 nm  f=0.0029  <S**2>=0.000
      13 -> 16         0.66019
      13 -> 18        -0.19839

 Excited State   5:      Singlet-A      8.0103 eV  154.78 nm  f=0.0067  <S**2>=0.000
      11 -> 14         0.69941

 Excited State   6:      Singlet-A      8.3338 eV  148.77 nm  f=0.0001  <S**2>=0.000
      13 -> 15         0.10789
      13 -> 16        -0.15781
      13 -> 17         0.46054
      13 -> 18        -0.43767
      13 -> 21         0.21967

 Excited State   7:      Singlet-A      9.0251 eV  137.38 nm  f=0.0089  <S**2>=0.000
      13 -> 15         0.11443
      13 -> 17         0.46915
      13 -> 18         0.47998
      13 -> 19         0.11703

 Excited State   8:      Singlet-A      9.3801 eV  132.18 nm  f=0.0983  <S**2>=0.000
      10 -> 14         0.64599
      12 -> 16         0.16031
      12 -> 17         0.11705

 Excited State   9:      Singlet-A      9.5984 eV  129.17 nm  f=0.0007  <S**2>=0.000
      13 -> 19         0.67908

 Excited State  10:      Singlet-A      9.6603 eV  128.34 nm  f=0.0848  <S**2>=0.000
      10 -> 14         0.14472
      11 -> 18         0.13476
      12 -> 15         0.49971
      12 -> 16        -0.22419
      12 -> 17        -0.24441
      12 -> 18         0.21470

 Excited State  11:      Singlet-A     10.2141 eV  121.39 nm  f=0.0337  <S**2>=0.000
      10 -> 14        -0.15506
      11 -> 15         0.26241
      11 -> 17        -0.13389
      12 -> 15         0.41649
      12 -> 16         0.32665
      12 -> 18        -0.24102

 Excited State  12:      Singlet-A     10.3664 eV  119.60 nm  f=0.0513  <S**2>=0.000
      13 -> 17         0.12206
      13 -> 18        -0.11449
      13 -> 20         0.53484
      13 -> 21        -0.40922

 Excited State  13:      Singlet-A     10.5230 eV  117.82 nm  f=0.1669  <S**2>=0.000
      11 -> 15        -0.12524
      11 -> 16        -0.26205
      11 -> 18         0.15453
      12 -> 16         0.49166
      12 -> 17        -0.20369
      12 -> 18         0.16956
      12 -> 19         0.12849

 Excited State  14:      Singlet-A     10.6455 eV  116.47 nm  f=0.0554  <S**2>=0.000
       9 -> 14        -0.16500
      13 -> 20         0.42861
      13 -> 21         0.49758

 Excited State  15:      Singlet-A     10.8073 eV  114.72 nm  f=0.0026  <S**2>=0.000
       9 -> 14         0.67365
      13 -> 21         0.15416

 The electronic state is 1-A.
 Alpha  occ. eigenvalues --   -1.93991  -1.18086  -0.95510  -0.83686  -0.78634
 Alpha  occ. eigenvalues --   -0.71078  -0.69529  -0.58414  -0.54936  -0.48778
 Alpha  occ. eigenvalues --   -0.46175  -0.41716  -0.29887
 Alpha virt. eigenvalues --    0.09309   0.17542   0.19433   0.27229   0.27469
 Alpha virt. eigenvalues --    0.29848   0.32426   0.34457   0.36212   0.44237
 Alpha virt. eigenvalues --    0.48933

 Mulliken charges:
               1
     1  C   -0.110661
     2  C   -1.998806
     3  O    3.299371
     4  C   -2.028127
     5  C   -0.277071
     6  H    0.220980
     7  H    0.352399
     8  H    0.336388
     9  H    0.205527
 Sum of Mulliken charges =   0.00000

 Dipole moment (field-independent basis, Debye):
    X=              1.8384    Y=             -9.9016    Z=             -0.9240  Tot=             10.1131
 N-N= 1.048165083232D+02 E-N=-1.707046329891D+02  KE=-1.557587297638D+01
 Orbital energies and kinetic energies (alpha):
                                 1                 2
   1         O                -1.939911         -1.419554
   2         O                -1.180864         -1.040467
   3         O                -0.955102         -0.897580
   4         O                -0.836856         -0.577455
   5         O                -0.786335         -0.710478
   6         O                -0.710779         -0.561833
   7         O                -0.695288         -0.545807

 Normal termination of Gaussian 09 at Tue Dec 15 17:09:44 2015.
