 Gaussian 09, Revision D.01,
 Gaussian 09:  ES64L-G09RevD.01 24-Apr-2013

 -------------------------------------------------------
 #P B3LYP/3-21G CIS(Singlets,NStates=15) pop(full) force
 -------------------------------------------------------

 --------
 FuranDFT
 --------
 Symbolic Z-matrix:
 Charge =  0 Multiplicity = 1

                         Standard orientation:
 ---------------------------------------------------------------------
 Center     Atomic      Atomic             Coordinates (Angstroms)
 Number     Number       Type             X           Y           Z
 ---------------------------------------------------------------------
      1          6           0        0.608469    1.005898   -0.009403
      2          6           0        1.143570   -0.228639    0.029399
      3          8           0        0.161140   -1.137871   -0.033686
      4          6           0       -1.110870   -0.443227    0.030924
      5          6           0       -0.795369    0.855524   -0.009594
      6          1           0       -1.613316    1.651251   -0.020170
      7          1           0       -1.966565   -1.098778    0.021567
      8          1           0        2.108609   -0.569144    0.023908
      9          1           0        1.107350    1.982306   -0.003766
 ---------------------------------------------------------------------

 SCF Done:  E(RB3LYP) =  -228.739853872     A.U. after   15 cycles

 Excitation energies and oscillator strengths:

 Excited State   1:      Singlet-A      7.1064 eV  174.47 nm  f=0.1366  <S**2>=0.000
      17 -> 19         0.28412
      18 -> 19         0.57334
      18 -> 20         0.24161
 This state for optimization and/or second-order correction.
 Total Energy, E(CIS) =  -228.478697837
 Copying the excited state density for this state as the 1-particle RhoCI density.

 Excited State   2:      Singlet-A      7.4656 eV  166.07 nm  f=0.0812  <S**2>=0.000
      17 -> 19         0.46304
      18 -> 19        -0.36497
      18 -> 20         0.36217

 Excited State   3:      Singlet-A      8.1969 eV  151.26 nm  f=0.0006  <S**2>=0.000
      18 -> 21         0.69653

 Excited State   4:      Singlet-A      8.3551 eV  148.39 nm  f=0.0043  <S**2>=0.000
      16 -> 19         0.69844

 Excited State   5:      Singlet-A      9.1244 eV  135.88 nm  f=0.0046  <S**2>=0.000
      18 -> 22         0.67519
      18 -> 23         0.14118

 Excited State   6:      Singlet-A      9.3503 eV  132.60 nm  f=0.0027  <S**2>=0.000
      17 -> 20         0.14422
      17 -> 21         0.66660
      18 -> 23        -0.12703

 Excited State   7:      Singlet-A      9.6391 eV  128.63 nm  f=0.1199  <S**2>=0.000
      15 -> 19         0.10244
      17 -> 19        -0.13874
      17 -> 20         0.39559
      18 -> 20         0.20777
      18 -> 22        -0.14168
      18 -> 23         0.45418

 Excited State   8:      Singlet-A      9.6870 eV  127.99 nm  f=0.1138  <S**2>=0.000
      17 -> 19         0.10551
      17 -> 20        -0.41012
      17 -> 21         0.17961
      18 -> 20        -0.17810
      18 -> 23         0.45972

 Excited State   9:      Singlet-A      9.7983 eV  126.54 nm  f=0.3896  <S**2>=0.000
      17 -> 19        -0.34955
      17 -> 20        -0.29958
      17 -> 22        -0.10252
      18 -> 20         0.42118

 Excited State  10:      Singlet-A     10.0895 eV  122.88 nm  f=0.0046  <S**2>=0.000
      14 -> 19        -0.23621
      15 -> 19         0.59837
      16 -> 20        -0.16285
      18 -> 24         0.20242

 Excited State  11:      Singlet-A     10.1215 eV  122.50 nm  f=0.0114  <S**2>=0.000
      14 -> 19         0.54988
      15 -> 19         0.23590
      16 -> 20         0.20498
      17 -> 20         0.12503
      17 -> 22        -0.15400
      18 -> 24         0.20363

 Excited State  12:      Singlet-A     10.1840 eV  121.74 nm  f=0.0028  <S**2>=0.000
      14 -> 19        -0.17589
      15 -> 19        -0.20730
      17 -> 22        -0.36923
      18 -> 23         0.16308
      18 -> 24         0.48553

 Excited State  13:      Singlet-A     10.2752 eV  120.66 nm  f=0.0052  <S**2>=0.000
      15 -> 19        -0.13267
      16 -> 20         0.11336
      17 -> 22         0.54440
      18 -> 24         0.39406

 Excited State  14:      Singlet-A     10.5972 eV  117.00 nm  f=0.0074  <S**2>=0.000
      14 -> 19        -0.28452
      16 -> 20         0.62209

 Excited State  15:      Singlet-A     10.8462 eV  114.31 nm  f=0.0042  <S**2>=0.000
      18 -> 25         0.68288

 The electronic state is 1-A.
 Alpha  occ. eigenvalues --  -19.09983 -10.17501 -10.17087 -10.13090 -10.12080
 Alpha  occ. eigenvalues --   -1.10573  -0.80596  -0.74878  -0.59161  -0.58111
 Alpha  occ. eigenvalues --   -0.53509  -0.45401  -0.43736  -0.40839  -0.40676
 Alpha  occ. eigenvalues --   -0.34882  -0.27773  -0.23404
 Alpha virt. eigenvalues --    0.01800   0.08834   0.11702   0.14338   0.16820
 Alpha virt. eigenvalues --    0.18141   0.20844   0.23626   0.36310   0.42184
 Alpha virt. eigenvalues --    0.48684   0.67374   0.69901   0.70911   0.75999

 Mulliken charges:
               1
     1  C   -0.265218
     2  C    0.127657
     3  O   -0.482901
     4  C    0.038706
     5  C   -0.235618
     6  H    0.185460
     7  H    0.222556
     8  H    0.225966
     9  H    0.183391
 Sum of Mulliken charges =   0.00000

 Dipole moment (field-independent basis, Debye):
    X=             -0.1816    Y=              0.6981    Z=              0.0485  Tot=              0.7230
 Quadrupole moment (field-independent basis, Debye-Ang):
   XX=            -23.1829   YY=            -28.1810   ZZ=            -31.7728
   XY=              0.5548   XZ=              0.0505   YZ=             -0.1031

 Normal termination of Gaussian 09 at Sat Nov 14 17:21:46 2015.
