 Gaussian 09, Revision D.01,
 Gaussian 09:  ES64L-G09RevD.01 24-Apr-2013

 ------------------------------------------------------------
 #P AM1(Input,print) CIS(Singlets,NStates=15) pop(full) force
 ------------------------------------------------------------

 -----------------
 AM1-Reparam Input
 -----------------
 Symbolic Z-matrix:
 Charge =  0 Multiplicity = 1

                         Standard orientation:
 ---------------------------------------------------------------------
 Center     Atomic      Atomic             Coordinates (Angstroms)
 Number     Number       Type             X           Y           Z
 ---------------------------------------------------------------------
      1          6           0       -0.975310    0.715668   -0.009273
      2          6           0       -0.928919   -0.602198   -0.018064
      3          8           0        0.318882   -1.148367    0.018147
      4          6           0        1.166129   -0.012823   -0.013168
      5          6           0        0.405930    1.103118    0.015270
      6          1           0        0.802026    2.164230   -0.016746
      7          1           0        2.195371   -0.198491   -0.022500
      8          1           0       -1.727105   -1.367089   -0.003242
      9          1           0       -1.828327    1.365698    0.048715
 ---------------------------------------------------------------------

 SCF Done:  E(RAM1) =  -4.49784398815     A.U. after   14 cycles

 Excitation energies and oscillator strengths:

 Excited State   1:      Singlet-A      6.2177 eV  199.41 nm  f=0.3593  <S**2>=0.000
      13 -> 14         0.69441
 This state for optimization and/or second-order correction.
 Total Energy, E(CIS) =  -4.26934888372
 Copying the excited state density for this state as the 1-particle RhoCI density.

 Excited State   2:      Singlet-A      7.0531 eV  175.79 nm  f=0.0022  <S**2>=0.000
      13 -> 15         0.64678
      13 -> 16        -0.11433
      13 -> 17         0.15459
      13 -> 19        -0.16192

 Excited State   3:      Singlet-A      7.6414 eV  162.25 nm  f=0.0112  <S**2>=0.000
      13 -> 15         0.13599
      13 -> 16         0.64770
      13 -> 17         0.11865
      13 -> 19         0.15837

 Excited State   4:      Singlet-A      8.5866 eV  144.39 nm  f=0.0015  <S**2>=0.000
      11 -> 14         0.58746
      13 -> 16         0.10043
      13 -> 17         0.18536
      13 -> 19        -0.26334

 Excited State   5:      Singlet-A      8.8085 eV  140.76 nm  f=0.0094  <S**2>=0.000
      11 -> 14        -0.35205
      12 -> 15        -0.10877
      13 -> 15        -0.15642
      13 -> 17         0.45112
      13 -> 19        -0.33881
      13 -> 20         0.12076

 Excited State   6:      Singlet-A      9.2136 eV  134.57 nm  f=0.0082  <S**2>=0.000
      11 -> 14         0.10950
      12 -> 16         0.14563
      13 -> 16        -0.14189
      13 -> 17         0.44340
      13 -> 19         0.42265
      13 -> 20        -0.21106
      13 -> 21        -0.11119

 Excited State   7:      Singlet-A      9.3407 eV  132.74 nm  f=0.0859  <S**2>=0.000
      12 -> 14         0.66408
      13 -> 22        -0.16908

 Excited State   8:      Singlet-A      9.7812 eV  126.76 nm  f=0.0027  <S**2>=0.000
       9 -> 14         0.16734
      10 -> 14         0.66484

 Excited State   9:      Singlet-A      9.9735 eV  124.31 nm  f=0.0013  <S**2>=0.000
      13 -> 16        -0.10265
      13 -> 18         0.66014
      13 -> 20         0.15334

 Excited State  10:      Singlet-A     10.1076 eV  122.66 nm  f=0.0130  <S**2>=0.000
      13 -> 18        -0.20393
      13 -> 19         0.21424
      13 -> 20         0.53344
      13 -> 21         0.30561

 Excited State  11:      Singlet-A     10.5733 eV  117.26 nm  f=0.0661  <S**2>=0.000
      12 -> 15        -0.12750
      12 -> 16         0.11833
      13 -> 20        -0.30047
      13 -> 21         0.59352

 Excited State  12:      Singlet-A     10.8582 eV  114.18 nm  f=0.0058  <S**2>=0.000
      12 -> 15         0.58942
      12 -> 16         0.24963
      12 -> 17         0.15659
      13 -> 15        -0.11354
      13 -> 19        -0.12837

 Excited State  13:      Singlet-A     11.1530 eV  111.17 nm  f=0.0771  <S**2>=0.000
       9 -> 15        -0.20351
      10 -> 15         0.14843
      10 -> 16        -0.12177
      10 -> 17        -0.13212
      11 -> 15         0.45988
      11 -> 16        -0.24522
      11 -> 17         0.13407
      11 -> 18        -0.10281
      11 -> 19        -0.20717

 Excited State  14:      Singlet-A     11.3965 eV  108.79 nm  f=0.0934  <S**2>=0.000
       9 -> 14        -0.19144
      12 -> 14         0.12137
      12 -> 15        -0.11526
      12 -> 16         0.25079
      13 -> 22         0.57147

 Excited State  15:      Singlet-A     11.4532 eV  108.25 nm  f=0.0534  <S**2>=0.000
      12 -> 15        -0.22714
      12 -> 16         0.52012
      12 -> 21         0.10032
      13 -> 21        -0.11314
      13 -> 22        -0.28578

 The electronic state is 1-A.
 Alpha  occ. eigenvalues --   -3.85807  -1.24520  -0.94373  -0.91125  -0.87940
 Alpha  occ. eigenvalues --   -0.85760  -0.80456  -0.65472  -0.63215  -0.58418
 Alpha  occ. eigenvalues --   -0.55065  -0.53779  -0.39394
 Alpha virt. eigenvalues --    0.04533   0.11479   0.14504   0.17989   0.21332
 Alpha virt. eigenvalues --    0.22299   0.23007   0.24232   0.25890   0.34979
 Alpha virt. eigenvalues --    0.42701

 Mulliken charges:
               1
     1  C   -0.129880
     2  C   -1.372849
     3  O    2.859172
     4  C   -1.365500
     5  C   -0.117409
     6  H    0.020455
     7  H    0.041341
     8  H    0.052599
     9  H    0.012071
 Sum of Mulliken charges =   0.00000

 Dipole moment (field-independent basis, Debye):
    X=              2.8433    Y=            -11.6983    Z=              0.4232  Tot=             12.0463
 N-N= 1.059296490678D+02 E-N=-1.723686777643D+02  KE=-2.277981777917D+01
 Orbital energies and kinetic energies (alpha):
                                 1                 2
   1         O                -3.858071         -3.043035
   2         O                -1.245199         -1.127826
   3         O                -0.943732         -0.867686
   4         O                -0.911248         -0.905191
   5         O                -0.879401         -0.835932
   6         O                -0.857598         -0.777886
   7         O                -0.804557         -0.720007

 Normal termination of Gaussian 09 at Fri Dec 11 13:41:31 2015.
