 Gaussian 09, Revision D.01,
 Gaussian 09:  ES64L-G09RevD.01 24-Apr-2013

 ------------------------------------------------------------
 #P AM1(Input,print) CIS(Singlets,NStates=15) pop(full) force
 ------------------------------------------------------------

 -----------------
 AM1-Reparam Input
 -----------------
 Symbolic Z-matrix:
 Charge =  0 Multiplicity = 1

                         Standard orientation:
 ---------------------------------------------------------------------
 Center     Atomic      Atomic             Coordinates (Angstroms)
 Number     Number       Type             X           Y           Z
 ---------------------------------------------------------------------
      1          6           0        0.997475    0.685063   -0.014824
      2          6           0        0.940449   -0.633211   -0.000099
      3          8           0       -0.343307   -1.080257   -0.024714
      4          6           0       -1.184418   -0.037306    0.038479
      5          6           0       -0.389944    1.104132    0.005761
      6          1           0       -0.719698    2.168621   -0.062461
      7          1           0       -2.209550   -0.159561   -0.029901
      8          1           0        1.684739   -1.406406    0.074416
      9          1           0        1.809589    1.327340    0.039754
 ---------------------------------------------------------------------

 SCF Done:  E(RAM1) =  0.242533198737E-01 A.U. after   14 cycles

 Excitation energies and oscillator strengths:

 Excited State   1:      Singlet-A      4.5236 eV  274.08 nm  f=0.0838  <S**2>=0.000
      12 -> 15         0.22264
      13 -> 14         0.66108
 This state for optimization and/or second-order correction.
 Total Energy, E(CIS) =  0.190492805975
 Copying the excited state density for this state as the 1-particle RhoCI density.

 Excited State   2:      Singlet-A      4.8854 eV  253.79 nm  f=0.0027  <S**2>=0.000
      12 -> 14         0.12518
      13 -> 15        -0.27037
      13 -> 16         0.62192

 Excited State   3:      Singlet-A      5.0991 eV  243.15 nm  f=0.0063  <S**2>=0.000
      12 -> 14        -0.39184
      13 -> 15         0.50398
      13 -> 16         0.29021

 Excited State   4:      Singlet-A      5.8124 eV  213.31 nm  f=0.0007  <S**2>=0.000
      12 -> 18         0.14772
      12 -> 19         0.10366
      13 -> 17         0.20150
      13 -> 18         0.43168
      13 -> 19         0.28567
      13 -> 21         0.13966
      13 -> 22         0.21910
      13 -> 23         0.20840

 Excited State   5:      Singlet-A      5.8733 eV  211.10 nm  f=0.0057  <S**2>=0.000
       7 -> 16        -0.16468
      12 -> 15        -0.17317
      12 -> 16         0.63083
      12 -> 22        -0.15251

 Excited State   6:      Singlet-A      6.1611 eV  201.24 nm  f=0.3003  <S**2>=0.000
      12 -> 14         0.51451
      12 -> 15         0.17885
      13 -> 15         0.36118

 Excited State   7:      Singlet-A      6.3269 eV  195.96 nm  f=0.0037  <S**2>=0.000
      12 -> 18         0.18906
      12 -> 19        -0.16459
      12 -> 20        -0.18637
      12 -> 23         0.16968
      13 -> 18        -0.27829
      13 -> 19         0.34930
      13 -> 20         0.21109
      13 -> 21         0.11873
      13 -> 22         0.16969
      13 -> 23        -0.17528

 Excited State   8:      Singlet-A      6.3932 eV  193.93 nm  f=0.1947  <S**2>=0.000
      12 -> 14        -0.13718
      12 -> 15         0.59076
      12 -> 16         0.15756
      13 -> 14        -0.19017
      13 -> 15        -0.13952

 Excited State   9:      Singlet-A      6.5223 eV  190.09 nm  f=0.0086  <S**2>=0.000
      12 -> 15         0.12752
      12 -> 19         0.12775
      13 -> 17         0.53545
      13 -> 18        -0.29242
      13 -> 19         0.10671
      13 -> 21        -0.13741
      13 -> 23         0.13088

 Excited State  10:      Singlet-A      6.9636 eV  178.05 nm  f=0.0116  <S**2>=0.000
       9 -> 15        -0.14141
      10 -> 14         0.59517
      10 -> 15         0.16700
      11 -> 14        -0.16983
      11 -> 15        -0.11366

 Excited State  11:      Singlet-A      7.0301 eV  176.36 nm  f=0.0007  <S**2>=0.000
      11 -> 14         0.11588
      12 -> 17         0.46976
      12 -> 18        -0.31553
      12 -> 20         0.15547
      12 -> 21        -0.16601
      12 -> 23         0.13359
      13 -> 17        -0.17008
      13 -> 19         0.16584

 Excited State  12:      Singlet-A      7.3366 eV  168.99 nm  f=0.0025  <S**2>=0.000
      11 -> 15        -0.24193
      12 -> 17        -0.21919
      12 -> 18        -0.21517
      12 -> 19         0.18265
      12 -> 21         0.15021
      12 -> 22         0.11506
      12 -> 23        -0.11007
      13 -> 17        -0.15495
      13 -> 18        -0.15111
      13 -> 19         0.29320
      13 -> 20        -0.25952
      13 -> 24        -0.10310

 Excited State  13:      Singlet-A      7.4317 eV  166.83 nm  f=0.0018  <S**2>=0.000
       9 -> 14         0.23888
       9 -> 15        -0.10951
      10 -> 14         0.11915
      10 -> 15        -0.23036
      11 -> 14         0.40179
      11 -> 15        -0.34594
      13 -> 17         0.15972
      13 -> 22        -0.13703

 Excited State  14:      Singlet-A      7.5806 eV  163.56 nm  f=0.0014  <S**2>=0.000
      11 -> 14         0.38294
      11 -> 15         0.21017
      12 -> 19         0.19949
      12 -> 22         0.11768
      13 -> 18        -0.18772
      13 -> 19        -0.13745
      13 -> 22         0.33592
      13 -> 23         0.10477
      13 -> 24        -0.12141

 Excited State  15:      Singlet-A      7.6588 eV  161.88 nm  f=0.0086  <S**2>=0.000
       9 -> 14         0.17777
      10 -> 14        -0.10072
      10 -> 15        -0.13430
      11 -> 14        -0.25890
      11 -> 15        -0.25183
      12 -> 21        -0.10166
      13 -> 19        -0.21277
      13 -> 20         0.18597
      13 -> 21        -0.18644
      13 -> 22         0.33547
      13 -> 23         0.18363

 The electronic state is 1-A.
 Alpha  occ. eigenvalues --   -1.57772  -1.23443  -1.10884  -0.82696  -0.81665
 Alpha  occ. eigenvalues --   -0.68976  -0.60902  -0.57464  -0.51813  -0.49592
 Alpha  occ. eigenvalues --   -0.49028  -0.39301  -0.34760
 Alpha virt. eigenvalues --    0.03245   0.06208   0.09434   0.14221   0.14893
 Alpha virt. eigenvalues --    0.15749   0.17669   0.18698   0.19338   0.20680
 Alpha virt. eigenvalues --    0.22773

 Mulliken charges:
               1
     1  C   -0.192804
     2  C   -0.089451
     3  O   -0.081648
     4  C   -0.090022
     5  C   -0.238072
     6  H    0.157287
     7  H    0.191737
     8  H    0.183976
     9  H    0.158995
 Sum of Mulliken charges =   0.00000

 Dipole moment (field-independent basis, Debye):
    X=              0.0861    Y=              0.3268    Z=              0.0056  Tot=              0.3379
 N-N= 1.037480665533D+02 E-N=-1.714867257845D+02  KE=-1.659497666695D+01
 Orbital energies and kinetic energies (alpha):
                                 1                 2
   1         O                -1.577717         -1.321037
   2         O                -1.234432         -1.049946
   3         O                -1.108844         -0.966688
   4         O                -0.826956         -0.704376
   5         O                -0.816647         -0.729981
   6         O                -0.689760         -0.604754
   7         O                -0.609022         -0.492313

 Normal termination of Gaussian 09 at Tue Dec 15 16:28:54 2015.
