 Gaussian 09, Revision D.01,
 Gaussian 09:  ES64L-G09RevD.01 24-Apr-2013

 ------------------------------------------------------------
 #P AM1(Input,print) CIS(Singlets,NStates=15) pop(full) force
 ------------------------------------------------------------

 -----------------
 AM1-Reparam Input
 -----------------
 Symbolic Z-matrix:
 Charge =  0 Multiplicity = 1

                         Standard orientation:
 ---------------------------------------------------------------------
 Center     Atomic      Atomic             Coordinates (Angstroms)
 Number     Number       Type             X           Y           Z
 ---------------------------------------------------------------------
      1          6           0       -1.032729    0.572104    0.000414
      2          6           0       -0.867807   -0.779098    0.021517
      3          8           0        0.523989   -1.052383   -0.018254
      4          6           0        1.173568    0.160036    0.029286
      5          6           0        0.178627    1.165936   -0.031989
      6          1           0        0.403013    2.173500    0.036660
      7          1           0        2.222840    0.172623    0.001934
      8          1           0       -1.443409   -1.672987   -0.025621
      9          1           0       -2.084308    1.032058    0.017688
 ---------------------------------------------------------------------

 SCF Done:  E(RAM1) =   2.82044964884     A.U. after   14 cycles

 Excitation energies and oscillator strengths:

 Excited State   1:      Singlet-A      5.6514 eV  219.39 nm  f=0.2976  <S**2>=0.000
      13 -> 14         0.68858
 This state for optimization and/or second-order correction.
 Total Energy, E(CIS) =   3.02813301778
 Copying the excited state density for this state as the 1-particle RhoCI density.

 Excited State   2:      Singlet-A      6.8280 eV  181.58 nm  f=0.0087  <S**2>=0.000
      10 -> 16         0.10894
      13 -> 15         0.62956
      13 -> 16        -0.11787
      13 -> 17        -0.24522

 Excited State   3:      Singlet-A      7.1309 eV  173.87 nm  f=0.0002  <S**2>=0.000
      10 -> 15         0.14770
      12 -> 14         0.14807
      13 -> 15         0.10946
      13 -> 16         0.61235
      13 -> 18         0.15747
      13 -> 19         0.15689

 Excited State   4:      Singlet-A      7.2211 eV  171.70 nm  f=0.0008  <S**2>=0.000
       9 -> 14        -0.12775
      11 -> 14        -0.11743
      12 -> 14         0.66249
      13 -> 16        -0.13765

 Excited State   5:      Singlet-A      7.5687 eV  163.81 nm  f=0.0050  <S**2>=0.000
      10 -> 14         0.24170
      11 -> 14         0.64240
      12 -> 14         0.12234

 Excited State   6:      Singlet-A      8.2216 eV  150.80 nm  f=0.0152  <S**2>=0.000
      10 -> 16         0.16433
      13 -> 15         0.19637
      13 -> 17         0.60940
      13 -> 18        -0.16163

 Excited State   7:      Singlet-A      8.3507 eV  148.47 nm  f=0.0001  <S**2>=0.000
      10 -> 15         0.12994
      13 -> 17        -0.17710
      13 -> 18        -0.39885
      13 -> 19         0.10577
      13 -> 20         0.24530
      13 -> 21         0.44439

 Excited State   8:      Singlet-A      8.6801 eV  142.84 nm  f=0.0802  <S**2>=0.000
      10 -> 14         0.64055
      11 -> 14        -0.23669

 Excited State   9:      Singlet-A      8.8875 eV  139.50 nm  f=0.0018  <S**2>=0.000
      10 -> 15        -0.12128
      13 -> 16        -0.15872
      13 -> 18         0.14493
      13 -> 19         0.62240
      13 -> 20         0.14799

 Excited State  10:      Singlet-A      9.3174 eV  133.07 nm  f=0.0156  <S**2>=0.000
      13 -> 18         0.50409
      13 -> 19        -0.17902
      13 -> 20         0.18941
      13 -> 21         0.38875

 Excited State  11:      Singlet-A      9.4028 eV  131.86 nm  f=0.1646  <S**2>=0.000
       8 -> 15         0.10733
       9 -> 16         0.13224
      10 -> 15         0.11068
      10 -> 17        -0.11614
      11 -> 15         0.36649
      11 -> 17        -0.30185
      11 -> 18         0.10606
      12 -> 15         0.10293
      12 -> 16        -0.14341
      12 -> 17        -0.16431
      12 -> 18        -0.19664
      12 -> 19         0.11811
      12 -> 21         0.10980
      13 -> 14         0.12516

 Excited State  12:      Singlet-A      9.8011 eV  126.50 nm  f=0.0792  <S**2>=0.000
      13 -> 19        -0.11834
      13 -> 20         0.59196
      13 -> 21        -0.32740

 Excited State  13:      Singlet-A      9.8583 eV  125.77 nm  f=0.0078  <S**2>=0.000
       9 -> 15         0.10168
      11 -> 15        -0.18876
      11 -> 16         0.32330
      11 -> 19         0.16485
      12 -> 15         0.47350
      12 -> 17        -0.23372

 Excited State  14:      Singlet-A      9.8937 eV  125.32 nm  f=0.1238  <S**2>=0.000
      11 -> 15         0.24643
      11 -> 16        -0.16269
      11 -> 19        -0.12688
      12 -> 15         0.25430
      12 -> 16         0.48475
      12 -> 18         0.15218

 Excited State  15:      Singlet-A     10.0051 eV  123.92 nm  f=0.0266  <S**2>=0.000
      10 -> 15         0.55454
      10 -> 16        -0.17211
      10 -> 17        -0.13221
      12 -> 16         0.19455
      13 -> 16        -0.17229

 The electronic state is 1-A.
 Alpha  occ. eigenvalues --   -1.69766  -1.12523  -0.91165  -0.78393  -0.75720
 Alpha  occ. eigenvalues --   -0.66385  -0.62569  -0.53952  -0.50501  -0.42198
 Alpha  occ. eigenvalues --   -0.41932  -0.40670  -0.29731
 Alpha virt. eigenvalues --    0.12567   0.19371   0.19994   0.23919   0.27517
 Alpha virt. eigenvalues --    0.27788   0.30178   0.31412   0.35109   0.44118
 Alpha virt. eigenvalues --    0.48118

 Mulliken charges:
               1
     1  C   -0.080917
     2  C   -1.938953
     3  O    3.220386
     4  C   -1.983106
     5  C   -0.158685
     6  H    0.182655
     7  H    0.301801
     8  H    0.277854
     9  H    0.178965
 Sum of Mulliken charges =   0.00000

 Dipole moment (field-independent basis, Debye):
    X=              4.5234    Y=             -9.5525    Z=             -0.6700  Tot=             10.5906
 N-N= 1.035453469512D+02 E-N=-1.683903388874D+02  KE=-1.474933695989D+01
 Orbital energies and kinetic energies (alpha):
                                 1                 2
   1         O                -1.697663         -1.178188
   2         O                -1.125227         -0.995013
   3         O                -0.911649         -0.841749
   4         O                -0.783927         -0.601630
   5         O                -0.757196         -0.668881
   6         O                -0.663847         -0.584384
   7         O                -0.625693         -0.522358

 Normal termination of Gaussian 09 at Tue Dec 15 17:06:04 2015.
