 Gaussian 09, Revision D.01,
 Gaussian 09:  ES64L-G09RevD.01 24-Apr-2013

 ------------------------------------------------------------
 #P AM1(Input,print) CIS(Singlets,NStates=15) pop(full) force
 ------------------------------------------------------------

 -----------------
 AM1-Reparam Input
 -----------------
 Symbolic Z-matrix:
 Charge =  0 Multiplicity = 1

                         Standard orientation:
 ---------------------------------------------------------------------
 Center     Atomic      Atomic             Coordinates (Angstroms)
 Number     Number       Type             X           Y           Z
 ---------------------------------------------------------------------
      1          6           0       -0.975310    0.715668   -0.009273
      2          6           0       -0.928919   -0.602198   -0.018064
      3          8           0        0.318882   -1.148367    0.018147
      4          6           0        1.166129   -0.012823   -0.013168
      5          6           0        0.405930    1.103118    0.015270
      6          1           0        0.802026    2.164230   -0.016746
      7          1           0        2.195371   -0.198491   -0.022500
      8          1           0       -1.727105   -1.367089   -0.003242
      9          1           0       -1.828327    1.365698    0.048715
 ---------------------------------------------------------------------

 SCF Done:  E(RAM1) =  -4.46024717913     A.U. after   13 cycles

 Excitation energies and oscillator strengths:

 Excited State   1:      Singlet-A      6.3814 eV  194.29 nm  f=0.0002  <S**2>=0.000
      13 -> 14         0.64602
      13 -> 16        -0.21975
      13 -> 17        -0.10140
 This state for optimization and/or second-order correction.
 Total Energy, E(CIS) =  -4.22573676504
 Copying the excited state density for this state as the 1-particle RhoCI density.

 Excited State   2:      Singlet-A      6.8931 eV  179.87 nm  f=0.0017  <S**2>=0.000
      13 -> 14         0.21117
      13 -> 15         0.11389
      13 -> 16         0.59997
      13 -> 17        -0.17593
      13 -> 18        -0.13757
      13 -> 21        -0.10145
      13 -> 22        -0.11158

 Excited State   3:      Singlet-A      7.3260 eV  169.24 nm  f=0.1744  <S**2>=0.000
      11 -> 17         0.10582
      13 -> 14        -0.12362
      13 -> 15         0.49092
      13 -> 16        -0.15368
      13 -> 17        -0.43195

 Excited State   4:      Singlet-A      7.4667 eV  166.05 nm  f=0.1805  <S**2>=0.000
      13 -> 15         0.45338
      13 -> 17         0.50566

 Excited State   5:      Singlet-A      7.9663 eV  155.64 nm  f=0.0004  <S**2>=0.000
      12 -> 15         0.13645
      13 -> 16         0.17209
      13 -> 18         0.64112

 Excited State   6:      Singlet-A      8.3066 eV  149.26 nm  f=0.0039  <S**2>=0.000
      12 -> 15         0.68180
      13 -> 18        -0.14085

 Excited State   7:      Singlet-A      8.6711 eV  142.99 nm  f=0.1405  <S**2>=0.000
      11 -> 17        -0.13133
      12 -> 14        -0.34287
      12 -> 16         0.48416
      12 -> 18        -0.26704
      12 -> 21        -0.12792
      12 -> 22        -0.12873

 Excited State   8:      Singlet-A      9.2239 eV  134.42 nm  f=0.0060  <S**2>=0.000
      11 -> 15        -0.33055
      13 -> 19         0.55264
      13 -> 21         0.26074

 Excited State   9:      Singlet-A      9.2714 eV  133.73 nm  f=0.0007  <S**2>=0.000
      11 -> 15         0.25274
      13 -> 16         0.14138
      13 -> 19        -0.14900
      13 -> 20        -0.12312
      13 -> 21         0.59290

 Excited State  10:      Singlet-A      9.4411 eV  131.32 nm  f=0.0293  <S**2>=0.000
      11 -> 15         0.53435
      12 -> 14        -0.10366
      13 -> 19         0.38927
      13 -> 21        -0.12685

 Excited State  11:      Singlet-A      9.5215 eV  130.22 nm  f=0.1154  <S**2>=0.000
      10 -> 15        -0.14669
      11 -> 14         0.16502
      11 -> 15         0.13949
      12 -> 14         0.47011
      12 -> 16         0.32639
      12 -> 17        -0.15173
      13 -> 20         0.15656

 Excited State  12:      Singlet-A      9.6621 eV  128.32 nm  f=0.0542  <S**2>=0.000
      11 -> 14         0.23386
      11 -> 16        -0.26962
      11 -> 18         0.22926
      12 -> 17         0.44644
      12 -> 18        -0.20104
      12 -> 19        -0.14602
      13 -> 20        -0.11377

 Excited State  13:      Singlet-A      9.7300 eV  127.42 nm  f=0.0404  <S**2>=0.000
      11 -> 14         0.12265
      11 -> 16        -0.29351
      11 -> 18         0.18967
      12 -> 14        -0.21562
      12 -> 16        -0.11544
      12 -> 17        -0.25355
      13 -> 20         0.40639

 Excited State  14:      Singlet-A      9.9613 eV  124.47 nm  f=0.2111  <S**2>=0.000
      10 -> 15        -0.15603
      11 -> 14        -0.17817
      11 -> 16         0.21858
      12 -> 17         0.35060
      13 -> 20         0.47011

 Excited State  15:      Singlet-A     10.1618 eV  122.01 nm  f=0.0051  <S**2>=0.000
      11 -> 14         0.37295
      11 -> 16         0.23719
      11 -> 17        -0.32655
      11 -> 18        -0.11270
      11 -> 19         0.18171
      12 -> 16        -0.19936
      12 -> 18        -0.25444

 The electronic state is 1-A.
 Alpha  occ. eigenvalues --   -3.14511  -1.38007  -1.04640  -1.03615  -1.02743
 Alpha  occ. eigenvalues --   -0.92329  -0.81852  -0.61808  -0.59419  -0.55522
 Alpha  occ. eigenvalues --   -0.50391  -0.46899  -0.37373
 Alpha virt. eigenvalues --    0.08626   0.11213   0.11562   0.14899   0.15827
 Alpha virt. eigenvalues --    0.19815   0.22841   0.23335   0.26550   0.30304
 Alpha virt. eigenvalues --    0.38061

 Mulliken charges:
               1
     1  C   -0.360236
     2  C   -1.772926
     3  O    2.972062
     4  C   -1.791554
     5  C   -0.329327
     6  H    0.284952
     7  H    0.356974
     8  H    0.345898
     9  H    0.294157
 Sum of Mulliken charges =   0.00000

 Dipole moment (field-independent basis, Debye):
    X=              2.5795    Y=            -10.8934    Z=              0.4555  Tot=             11.2039
 N-N= 1.044379198258D+02 E-N=-1.691598524263D+02  KE=-2.365424484209D+01
 Orbital energies and kinetic energies (alpha):
                                 1                 2
   1         O                -3.145111         -2.393785
   2         O                -1.380070         -1.342440
   3         O                -1.046403         -1.040041
   4         O                -1.036150         -1.044616
   5         O                -1.027435         -1.062496
   6         O                -0.923294         -0.846090
   7         O                -0.818525         -0.802844

 Normal termination of Gaussian 09 at Fri Dec 11 13:41:21 2015.
