 Gaussian 09, Revision D.01,
 Gaussian 09:  ES64L-G09RevD.01 24-Apr-2013

 ------------------------------------------------------------
 #P AM1(Input,print) CIS(Singlets,NStates=15) pop(full) force
 ------------------------------------------------------------

 -----------------
 AM1-Reparam Input
 -----------------
 Symbolic Z-matrix:
 Charge =  0 Multiplicity = 1

                         Standard orientation:
 ---------------------------------------------------------------------
 Center     Atomic      Atomic             Coordinates (Angstroms)
 Number     Number       Type             X           Y           Z
 ---------------------------------------------------------------------
      1          6           0       -0.885270    0.787392    0.015701
      2          6           0       -1.065905   -0.472591   -0.015346
      3          8           0        0.213108   -1.146504    0.022311
      4          6           0        1.169657   -0.156108   -0.021829
      5          6           0        0.536669    1.068398   -0.009674
      6          1           0        1.077165    1.969415    0.057703
      7          1           0        2.133243   -0.528447   -0.004625
      8          1           0       -1.874166   -1.175156   -0.029939
      9          1           0       -1.572016    1.543671   -0.014736
 ---------------------------------------------------------------------

 SCF Done:  E(RAM1) =  -4.06736465616     A.U. after   14 cycles

 Excitation energies and oscillator strengths:

 Excited State   1:      Singlet-A      7.0706 eV  175.35 nm  f=0.2524  <S**2>=0.000
      13 -> 14         0.64273
      13 -> 15         0.21309
      13 -> 17         0.11278
 This state for optimization and/or second-order correction.
 Total Energy, E(CIS) =  -3.80752314315
 Copying the excited state density for this state as the 1-particle RhoCI density.

 Excited State   2:      Singlet-A      7.2572 eV  170.84 nm  f=0.0488  <S**2>=0.000
      13 -> 14        -0.22719
      13 -> 15         0.56507
      13 -> 16         0.21668
      13 -> 17         0.25091

 Excited State   3:      Singlet-A      7.5694 eV  163.80 nm  f=0.0052  <S**2>=0.000
      12 -> 14        -0.33438
      13 -> 15        -0.22995
      13 -> 16         0.54562
      13 -> 21        -0.15694

 Excited State   4:      Singlet-A      7.6467 eV  162.14 nm  f=0.0004  <S**2>=0.000
      12 -> 14         0.61277
      13 -> 16         0.32514

 Excited State   5:      Singlet-A      8.7523 eV  141.66 nm  f=0.0367  <S**2>=0.000
      11 -> 14         0.30567
      13 -> 15        -0.22630
      13 -> 17         0.57419

 Excited State   6:      Singlet-A      8.7748 eV  141.30 nm  f=0.0034  <S**2>=0.000
      11 -> 14         0.62381
      13 -> 15         0.10923
      13 -> 17        -0.28782

 Excited State   7:      Singlet-A      9.2578 eV  133.92 nm  f=0.0690  <S**2>=0.000
      10 -> 14         0.18510
      12 -> 15        -0.20753
      12 -> 17        -0.13737
      13 -> 18         0.62096

 Excited State   8:      Singlet-A      9.4466 eV  131.25 nm  f=0.0015  <S**2>=0.000
      10 -> 15        -0.12142
      13 -> 19         0.48387
      13 -> 21         0.42464
      13 -> 22        -0.21004

 Excited State   9:      Singlet-A      9.6217 eV  128.86 nm  f=0.0784  <S**2>=0.000
      12 -> 15        -0.28935
      12 -> 16         0.55890
      12 -> 21        -0.23111

 Excited State  10:      Singlet-A      9.9220 eV  124.96 nm  f=0.0132  <S**2>=0.000
      11 -> 16        -0.20012
      12 -> 15         0.48673
      12 -> 16         0.21239
      12 -> 17         0.19761
      12 -> 21        -0.11192
      13 -> 18         0.21234
      13 -> 20         0.17399
      13 -> 21        -0.10084

 Excited State  11:      Singlet-A      9.9891 eV  124.12 nm  f=0.0052  <S**2>=0.000
      12 -> 15         0.15650
      13 -> 19        -0.33867
      13 -> 20        -0.36388
      13 -> 21         0.42378
      13 -> 23        -0.10138

 Excited State  12:      Singlet-A     10.0596 eV  123.25 nm  f=0.0083  <S**2>=0.000
      13 -> 19        -0.33390
      13 -> 20         0.52055
      13 -> 21         0.25498
      13 -> 23         0.16718

 Excited State  13:      Singlet-A     10.5251 eV  117.80 nm  f=0.0505  <S**2>=0.000
       9 -> 16         0.10225
      11 -> 15         0.51328
      11 -> 16         0.13864
      11 -> 17         0.36201
      12 -> 22         0.10533

 Excited State  14:      Singlet-A     10.6354 eV  116.58 nm  f=0.0631  <S**2>=0.000
       8 -> 16        -0.18788
       9 -> 15        -0.12358
      10 -> 14         0.29825
      11 -> 22         0.11643
      12 -> 15        -0.13879
      12 -> 16        -0.12844
      12 -> 17         0.48704
      12 -> 19         0.10109
      12 -> 21         0.12083

 Excited State  15:      Singlet-A     10.7279 eV  115.57 nm  f=0.0014  <S**2>=0.000
      13 -> 19         0.15199
      13 -> 21         0.14585
      13 -> 22         0.65382

 The electronic state is 1-A.
 Alpha  occ. eigenvalues --   -2.98889  -1.32201  -1.00716  -0.99735  -0.98722
 Alpha  occ. eigenvalues --   -0.90915  -0.77755  -0.60099  -0.58201  -0.54971
 Alpha  occ. eigenvalues --   -0.49300  -0.45559  -0.37291
 Alpha virt. eigenvalues --    0.10546   0.13155   0.13833   0.18991   0.20297
 Alpha virt. eigenvalues --    0.22327   0.23577   0.26106   0.28185   0.31167
 Alpha virt. eigenvalues --    0.37337

 Mulliken charges:
               1
     1  C   -0.219649
     2  C   -1.486342
     3  O    2.675246
     4  C   -1.541321
     5  C   -0.373985
     6  H    0.215267
     7  H    0.272717
     8  H    0.257944
     9  H    0.200122
 Sum of Mulliken charges =   0.00000

 Dipole moment (field-independent basis, Debye):
    X=              1.6492    Y=            -10.5547    Z=              0.5091  Tot=             10.6949
 N-N= 1.046783825788D+02 E-N=-1.723480832792D+02  KE=-2.105631818614D+01
 Orbital energies and kinetic energies (alpha):
                                 1                 2
   1         O                -2.988886         -2.017002
   2         O                -1.322006         -1.221859
   3         O                -1.007156         -0.982796
   4         O                -0.997355         -0.927985
   5         O                -0.987218         -0.962114
   6         O                -0.909154         -0.824832
   7         O                -0.777555         -0.721693

 Normal termination of Gaussian 09 at Fri Dec 11 13:41:40 2015.
