 Gaussian 09, Revision D.01,
 Gaussian 09:  ES64L-G09RevD.01 24-Apr-2013

 ------------------------------------------------------------
 #P AM1(Input,print) CIS(Singlets,NStates=15) pop(full) force
 ------------------------------------------------------------

 -----------------
 AM1-Reparam Input
 -----------------
 Symbolic Z-matrix:
 Charge =  0 Multiplicity = 1

                         Standard orientation:
 ---------------------------------------------------------------------
 Center     Atomic      Atomic             Coordinates (Angstroms)
 Number     Number       Type             X           Y           Z
 ---------------------------------------------------------------------
      1          6           0       -0.885000    0.851222   -0.017525
      2          6           0       -1.028314   -0.529937    0.024752
      3          8           0        0.176282   -1.125813   -0.025403
      4          6           0        1.140646   -0.185201    0.009596
      5          6           0        0.603293    1.036301    0.004514
      6          1           0        1.084755    1.957468   -0.002401
      7          1           0        2.141008   -0.531214    0.041122
      8          1           0       -1.941124   -1.084861    0.040854
      9          1           0       -1.678640    1.630808   -0.004370
 ---------------------------------------------------------------------

 SCF Done:  E(RAM1) =  0.211457214490E-01 A.U. after   13 cycles

 Excitation energies and oscillator strengths:

 Excited State   1:      Singlet-A      4.5718 eV  271.20 nm  f=0.0645  <S**2>=0.000
      12 -> 15         0.25591
      13 -> 14         0.65005
 This state for optimization and/or second-order correction.
 Total Energy, E(CIS) =  0.189154591095
 Copying the excited state density for this state as the 1-particle RhoCI density.

 Excited State   2:      Singlet-A      4.9859 eV  248.67 nm  f=0.0015  <S**2>=0.000
      12 -> 14         0.11682
      13 -> 15        -0.17107
      13 -> 16         0.65707
      13 -> 22        -0.10667

 Excited State   3:      Singlet-A      5.0621 eV  244.93 nm  f=0.0041  <S**2>=0.000
      12 -> 14        -0.42112
      13 -> 15         0.52400
      13 -> 16         0.20300

 Excited State   4:      Singlet-A      5.7226 eV  216.66 nm  f=0.0026  <S**2>=0.000
       7 -> 16        -0.16427
      12 -> 16         0.65077
      12 -> 22        -0.15695

 Excited State   5:      Singlet-A      5.8680 eV  211.29 nm  f=0.0004  <S**2>=0.000
      12 -> 18         0.19009
      12 -> 19        -0.12662
      13 -> 18         0.46623
      13 -> 19        -0.24929
      13 -> 21         0.15717
      13 -> 22         0.19830
      13 -> 23        -0.19875

 Excited State   6:      Singlet-A      6.0661 eV  204.39 nm  f=0.1934  <S**2>=0.000
      12 -> 14         0.35156
      12 -> 15         0.48686
      13 -> 14        -0.17462
      13 -> 15         0.27112

 Excited State   7:      Singlet-A      6.2003 eV  199.97 nm  f=0.3369  <S**2>=0.000
      10 -> 16         0.10838
      12 -> 14        -0.37570
      12 -> 15         0.41776
      13 -> 14        -0.16864
      13 -> 15        -0.31499

 Excited State   8:      Singlet-A      6.2127 eV  199.57 nm  f=0.0021  <S**2>=0.000
      12 -> 18        -0.22772
      12 -> 19        -0.14102
      12 -> 20        -0.20966
      12 -> 21         0.12429
      12 -> 23         0.16992
      13 -> 17         0.24602
      13 -> 18         0.16955
      13 -> 19         0.23416
      13 -> 20         0.21114
      13 -> 21        -0.21841
      13 -> 22        -0.14390
      13 -> 23        -0.19526

 Excited State   9:      Singlet-A      6.4569 eV  192.02 nm  f=0.0100  <S**2>=0.000
      11 -> 14         0.10483
      12 -> 17         0.13940
      12 -> 21        -0.11573
      13 -> 17         0.53502
      13 -> 18        -0.27976
      13 -> 19        -0.18636
      13 -> 20        -0.15372

 Excited State  10:      Singlet-A      6.7562 eV  183.51 nm  f=0.0009  <S**2>=0.000
      12 -> 17         0.54594
      12 -> 18        -0.25351
      12 -> 20        -0.21464
      12 -> 23        -0.13340
      13 -> 17        -0.14069
      13 -> 18         0.11514

 Excited State  11:      Singlet-A      6.9465 eV  178.48 nm  f=0.0023  <S**2>=0.000
       9 -> 15         0.16850
      10 -> 14        -0.35663
      11 -> 14         0.46901
      11 -> 15         0.27239
      13 -> 17        -0.11071

 Excited State  12:      Singlet-A      7.2374 eV  171.31 nm  f=0.0047  <S**2>=0.000
      11 -> 15        -0.20590
      12 -> 17         0.11042
      12 -> 18         0.29167
      12 -> 19         0.20598
      12 -> 21        -0.10755
      13 -> 17         0.13357
      13 -> 18         0.16110
      13 -> 19         0.40232
      13 -> 20        -0.16913

 Excited State  13:      Singlet-A      7.3885 eV  167.81 nm  f=0.0006  <S**2>=0.000
       9 -> 14         0.33380
       9 -> 15        -0.22368
      10 -> 14         0.23009
      11 -> 15         0.44202
      13 -> 18         0.10603
      13 -> 19         0.17153

 Excited State  14:      Singlet-A      7.5605 eV  163.99 nm  f=0.0054  <S**2>=0.000
      10 -> 14         0.10191
      11 -> 14         0.15431
      12 -> 20        -0.10187
      12 -> 22         0.19931
      13 -> 17        -0.13415
      13 -> 18        -0.16951
      13 -> 19         0.23345
      13 -> 20        -0.11039
      13 -> 22         0.46698
      13 -> 23        -0.19055

 Excited State  15:      Singlet-A      7.6530 eV  162.01 nm  f=0.0019  <S**2>=0.000
       9 -> 14        -0.14542
      10 -> 14         0.29237
      10 -> 15         0.10836
      11 -> 14         0.20210
      12 -> 18        -0.23301
      12 -> 19         0.27373
      12 -> 20         0.14898
      12 -> 22        -0.14079
      12 -> 24        -0.11501
      13 -> 18         0.16485
      13 -> 20        -0.20242
      13 -> 21        -0.15655
      13 -> 24         0.15138

 The electronic state is 1-A.
 Alpha  occ. eigenvalues --   -1.57105  -1.22105  -1.10911  -0.83049  -0.80593
 Alpha  occ. eigenvalues --   -0.68813  -0.60788  -0.57664  -0.51260  -0.50079
 Alpha  occ. eigenvalues --   -0.48480  -0.38480  -0.34931
 Alpha virt. eigenvalues --    0.03511   0.05950   0.09292   0.13756   0.14882
 Alpha virt. eigenvalues --    0.16001   0.17443   0.18441   0.19288   0.20688
 Alpha virt. eigenvalues --    0.22921

 Mulliken charges:
               1
     1  C   -0.225724
     2  C   -0.099943
     3  O   -0.074918
     4  C   -0.089366
     5  C   -0.208586
     6  H    0.153618
     7  H    0.185627
     8  H    0.189968
     9  H    0.169325
 Sum of Mulliken charges =   0.00000

 Dipole moment (field-independent basis, Debye):
    X=             -0.1509    Y=              0.3188    Z=              0.0713  Tot=              0.3598
 N-N= 1.033747213690D+02 E-N=-1.708668755775D+02  KE=-1.655509963996D+01
 Orbital energies and kinetic energies (alpha):
                                 1                 2
   1         O                -1.571050         -1.311291
   2         O                -1.221054         -1.043048
   3         O                -1.109112         -0.967775
   4         O                -0.830492         -0.707603
   5         O                -0.805926         -0.725037
   6         O                -0.688131         -0.602947
   7         O                -0.607881         -0.489918

 Normal termination of Gaussian 09 at Tue Dec 15 16:25:40 2015.
