 Gaussian 09, Revision D.01,
 Gaussian 09:  ES64L-G09RevD.01 24-Apr-2013

 ------------------------------------------------------------
 #P AM1(Input,print) CIS(Singlets,NStates=15) pop(full) force
 ------------------------------------------------------------

 -----------------
 AM1-Reparam Input
 -----------------
 Symbolic Z-matrix:
 Charge =  0 Multiplicity = 1

                         Standard orientation:
 ---------------------------------------------------------------------
 Center     Atomic      Atomic             Coordinates (Angstroms)
 Number     Number       Type             X           Y           Z
 ---------------------------------------------------------------------
      1          6           0        0.657691    0.968838    0.044262
      2          6           0        1.142680   -0.235774   -0.032656
      3          8           0        0.098969   -1.115651    0.020825
      4          6           0       -1.072876   -0.403624   -0.016764
      5          6           0       -0.822255    0.845673   -0.004951
      6          1           0       -1.530414    1.715047   -0.027783
      7          1           0       -1.984058   -1.063644    0.006417
      8          1           0        2.122164   -0.697798   -0.032013
      9          1           0        1.169120    1.920926   -0.052563
 ---------------------------------------------------------------------

 SCF Done:  E(RAM1) =   2.17246410908     A.U. after   13 cycles

 Excitation energies and oscillator strengths:

 Excited State   1:      Singlet-A      5.0575 eV  245.15 nm  f=0.3629  <S**2>=0.000
      13 -> 14         0.69682
 This state for optimization and/or second-order correction.
 Total Energy, E(CIS) =   2.35832317803
 Copying the excited state density for this state as the 1-particle RhoCI density.

 Excited State   2:      Singlet-A      5.7579 eV  215.33 nm  f=0.0002  <S**2>=0.000
      13 -> 15         0.67479
      13 -> 18        -0.10556
      13 -> 19        -0.10355

 Excited State   3:      Singlet-A      6.0494 eV  204.95 nm  f=0.0011  <S**2>=0.000
      13 -> 16         0.67132
      13 -> 17        -0.12351

 Excited State   4:      Singlet-A      6.7714 eV  183.10 nm  f=0.0010  <S**2>=0.000
      12 -> 14         0.70161

 Excited State   5:      Singlet-A      7.3783 eV  168.04 nm  f=0.0002  <S**2>=0.000
      13 -> 18         0.61555
      13 -> 19         0.18233
      13 -> 22         0.24532

 Excited State   6:      Singlet-A      7.8213 eV  158.52 nm  f=0.0099  <S**2>=0.000
      11 -> 14        -0.25435
      13 -> 16         0.10204
      13 -> 17         0.63766

 Excited State   7:      Singlet-A      8.1275 eV  152.55 nm  f=0.0010  <S**2>=0.000
      11 -> 14         0.65360
      13 -> 17         0.24607

 Excited State   8:      Singlet-A      8.6308 eV  143.65 nm  f=0.0008  <S**2>=0.000
      13 -> 18        -0.21952
      13 -> 19         0.65414

 Excited State   9:      Singlet-A      8.9551 eV  138.45 nm  f=0.0342  <S**2>=0.000
       8 -> 15         0.11534
      10 -> 14         0.48236
      12 -> 15        -0.37223
      13 -> 20         0.25721
      13 -> 21         0.10483

 Excited State  10:      Singlet-A      9.1411 eV  135.63 nm  f=0.1136  <S**2>=0.000
       8 -> 16        -0.11394
      10 -> 14         0.26848
      11 -> 17         0.10273
      12 -> 15         0.43172
      12 -> 16        -0.31224
      12 -> 18        -0.20696
      13 -> 20         0.13767
      13 -> 21         0.12717

 Excited State  11:      Singlet-A      9.2849 eV  133.53 nm  f=0.0034  <S**2>=0.000
      13 -> 18        -0.22191
      13 -> 22         0.64839

 Excited State  12:      Singlet-A      9.4025 eV  131.86 nm  f=0.0872  <S**2>=0.000
      13 -> 20        -0.46827
      13 -> 21         0.48551

 Excited State  13:      Singlet-A      9.6552 eV  128.41 nm  f=0.0090  <S**2>=0.000
      11 -> 15         0.19494
      12 -> 15         0.20853
      12 -> 16         0.42946
      12 -> 18         0.11625
      13 -> 20         0.24530
      13 -> 21         0.34344

 Excited State  14:      Singlet-A      9.8053 eV  126.45 nm  f=0.1665  <S**2>=0.000
      10 -> 14         0.38243
      11 -> 15         0.10179
      12 -> 15         0.19137
      12 -> 16         0.22806
      12 -> 17        -0.15627
      13 -> 20        -0.33752
      13 -> 21        -0.29906

 Excited State  15:      Singlet-A      9.9506 eV  124.60 nm  f=0.1144  <S**2>=0.000
      11 -> 15         0.15647
      11 -> 16         0.26780
      11 -> 17        -0.27456
      12 -> 16        -0.27858
      12 -> 18         0.41876
      12 -> 22         0.11781

 The electronic state is 1-A.
 Alpha  occ. eigenvalues --   -1.95024  -1.19455  -0.95270  -0.81121  -0.78423
 Alpha  occ. eigenvalues --   -0.68984  -0.67065  -0.56128  -0.53771  -0.45853
 Alpha  occ. eigenvalues --   -0.44234  -0.40048  -0.26983
 Alpha virt. eigenvalues --    0.11492   0.16472   0.17864   0.26132   0.27087
 Alpha virt. eigenvalues --    0.29995   0.31044   0.31655   0.32536   0.39430
 Alpha virt. eigenvalues --    0.43865

 Mulliken charges:
               1
     1  C   -0.212251
     2  C   -1.845765
     3  O    3.210916
     4  C   -1.832891
     5  C   -0.170365
     6  H    0.161690
     7  H    0.261178
     8  H    0.262259
     9  H    0.165229
 Sum of Mulliken charges =   0.00000

 Dipole moment (field-independent basis, Debye):
    X=              0.6487    Y=            -11.0364    Z=              0.5318  Tot=             11.0682
 N-N= 1.044596384705D+02 E-N=-1.697885254834D+02  KE=-1.533863139392D+01
 Orbital energies and kinetic energies (alpha):
                                 1                 2
   1         O                -1.950240         -1.373242
   2         O                -1.194551         -1.037311
   3         O                -0.952703         -0.890182
   4         O                -0.811213         -0.567351
   5         O                -0.784231         -0.692859
   6         O                -0.689839         -0.571145
   7         O                -0.670649         -0.535981

 Normal termination of Gaussian 09 at Tue Dec 15 17:09:16 2015.
