 Gaussian 09, Revision D.01,
 Gaussian 09:  ES64L-G09RevD.01 24-Apr-2013

 ------------------------------------------------------------
 #P AM1(Input,print) CIS(Singlets,NStates=15) pop(full) force
 ------------------------------------------------------------

 -----------------
 AM1-Reparam Input
 -----------------
 Symbolic Z-matrix:
 Charge =  0 Multiplicity = 1

                         Standard orientation:
 ---------------------------------------------------------------------
 Center     Atomic      Atomic             Coordinates (Angstroms)
 Number     Number       Type             X           Y           Z
 ---------------------------------------------------------------------
      1          6           0        0.476524    1.086467    0.033147
      2          6           0        1.157561   -0.080477   -0.016795
      3          8           0        0.259620   -1.161541   -0.013717
      4          6           0       -0.983331   -0.547575    0.051192
      5          6           0       -0.933816    0.784504   -0.032855
      6          1           0       -1.724804    1.440999   -0.075685
      7          1           0       -1.811747   -1.292232   -0.027602
      8          1           0        2.184792   -0.385207   -0.014027
      9          1           0        0.973178    2.071253    0.018917
 ---------------------------------------------------------------------

 SCF Done:  E(RAM1) =   1.81514269671     A.U. after   14 cycles

 Excitation energies and oscillator strengths:

 Excited State   1:      Singlet-A      5.3355 eV  232.37 nm  f=0.3428  <S**2>=0.000
      13 -> 14         0.69222
 This state for optimization and/or second-order correction.
 Total Energy, E(CIS) =   2.01122004640
 Copying the excited state density for this state as the 1-particle RhoCI density.

 Excited State   2:      Singlet-A      6.3552 eV  195.09 nm  f=0.0019  <S**2>=0.000
      13 -> 15         0.67738
      13 -> 17        -0.12282

 Excited State   3:      Singlet-A      6.7242 eV  184.38 nm  f=0.0040  <S**2>=0.000
      13 -> 16         0.67141
      13 -> 18        -0.14189

 Excited State   4:      Singlet-A      7.4969 eV  165.38 nm  f=0.0007  <S**2>=0.000
      12 -> 14         0.69821

 Excited State   5:      Singlet-A      8.0814 eV  153.42 nm  f=0.0016  <S**2>=0.000
      13 -> 17        -0.37239
      13 -> 18         0.53227
      13 -> 22         0.20803

 Excited State   6:      Singlet-A      8.3669 eV  148.18 nm  f=0.0117  <S**2>=0.000
      10 -> 14         0.49448
      11 -> 14         0.47189
      13 -> 18        -0.11868

 Excited State   7:      Singlet-A      8.7466 eV  141.75 nm  f=0.0161  <S**2>=0.000
      11 -> 14         0.10870
      13 -> 16         0.11504
      13 -> 17         0.55522
      13 -> 18         0.34213

 Excited State   8:      Singlet-A      9.0975 eV  136.28 nm  f=0.0805  <S**2>=0.000
      10 -> 14        -0.46635
      11 -> 14         0.47803
      13 -> 21         0.10430

 Excited State   9:      Singlet-A      9.3064 eV  133.23 nm  f=0.0019  <S**2>=0.000
      13 -> 19         0.67993

 Excited State  10:      Singlet-A      9.7049 eV  127.75 nm  f=0.0149  <S**2>=0.000
       8 -> 16         0.11779
       9 -> 15         0.16034
      10 -> 16        -0.13769
      10 -> 17         0.11022
      10 -> 18         0.13328
      11 -> 16        -0.10295
      11 -> 17         0.11090
      12 -> 15         0.45868
      12 -> 16        -0.16746
      12 -> 17        -0.19779
      12 -> 18         0.24527

 Excited State  11:      Singlet-A     10.2040 eV  121.51 nm  f=0.2325  <S**2>=0.000
      10 -> 16         0.12268
      10 -> 17        -0.10122
      11 -> 15         0.39291
      11 -> 16         0.20073
      11 -> 17        -0.14316
      12 -> 15         0.30406
      12 -> 16        -0.12888
      12 -> 17         0.17627
      12 -> 18        -0.18065
      12 -> 19         0.12580

 Excited State  12:      Singlet-A     10.2410 eV  121.07 nm  f=0.0688  <S**2>=0.000
      10 -> 16        -0.11713
      11 -> 15         0.21752
      12 -> 16         0.42179
      12 -> 17        -0.11316
      13 -> 18        -0.16219
      13 -> 20        -0.23290
      13 -> 21         0.13496
      13 -> 22         0.31955

 Excited State  13:      Singlet-A     10.2899 eV  120.49 nm  f=0.0416  <S**2>=0.000
      10 -> 16        -0.12994
      11 -> 15         0.10784
      12 -> 15         0.12619
      12 -> 16         0.40184
      13 -> 18         0.13287
      13 -> 20         0.31096
      13 -> 21        -0.16148
      13 -> 22        -0.34967

 Excited State  14:      Singlet-A     10.4667 eV  118.46 nm  f=0.0678  <S**2>=0.000
      10 -> 15         0.31366
      11 -> 15        -0.27412
      12 -> 15         0.12157
      13 -> 20         0.32288
      13 -> 22         0.39287

 Excited State  15:      Singlet-A     10.5053 eV  118.02 nm  f=0.0555  <S**2>=0.000
      10 -> 15        -0.37177
      10 -> 16        -0.14330
      11 -> 15         0.16790
      11 -> 16         0.16867
      12 -> 15        -0.11897
      12 -> 16        -0.14261
      12 -> 18         0.11430
      13 -> 20         0.38147
      13 -> 22         0.18950

 The electronic state is 1-A.
 Alpha  occ. eigenvalues --   -1.97831  -1.26753  -0.99414  -0.89027  -0.84598
 Alpha  occ. eigenvalues --   -0.76374  -0.73057  -0.62178  -0.61190  -0.51802
 Alpha  occ. eigenvalues --   -0.51139  -0.48622  -0.35161
 Alpha virt. eigenvalues --    0.05370   0.10875   0.12677   0.20391   0.21832
 Alpha virt. eigenvalues --    0.23735   0.26774   0.27159   0.28393   0.35925
 Alpha virt. eigenvalues --    0.39858

 Mulliken charges:
               1
     1  C   -0.131035
     2  C   -1.858096
     3  O    3.161097
     4  C   -1.866316
     5  C   -0.127709
     6  H    0.138079
     7  H    0.273420
     8  H    0.260913
     9  H    0.149647
 Sum of Mulliken charges =   0.00000

 Dipole moment (field-independent basis, Debye):
    X=              2.2997    Y=            -11.5075    Z=             -0.5746  Tot=             11.7491
 N-N= 1.051358335497D+02 E-N=-1.698819978770D+02  KE=-1.561641975382D+01
 Orbital energies and kinetic energies (alpha):
                                 1                 2
   1         O                -1.978312         -1.343203
   2         O                -1.267532         -1.058626
   3         O                -0.994141         -0.890169
   4         O                -0.890272         -0.587339
   5         O                -0.845984         -0.687063
   6         O                -0.763743         -0.608574
   7         O                -0.730566         -0.542402

 Normal termination of Gaussian 09 at Tue Dec 15 17:09:09 2015.
