 Gaussian 09, Revision D.01,
 Gaussian 09:  ES64L-G09RevD.01 24-Apr-2013

 ------------------------------------------------------------
 #P AM1(Input,print) CIS(Singlets,NStates=15) pop(full) force
 ------------------------------------------------------------

 -----------------
 AM1-Reparam Input
 -----------------
 Symbolic Z-matrix:
 Charge =  0 Multiplicity = 1

                         Standard orientation:
 ---------------------------------------------------------------------
 Center     Atomic      Atomic             Coordinates (Angstroms)
 Number     Number       Type             X           Y           Z
 ---------------------------------------------------------------------
      1          6           0       -0.975310    0.715668   -0.009273
      2          6           0       -0.928919   -0.602198   -0.018064
      3          8           0        0.318882   -1.148367    0.018147
      4          6           0        1.166129   -0.012823   -0.013168
      5          6           0        0.405930    1.103118    0.015270
      6          1           0        0.802026    2.164230   -0.016746
      7          1           0        2.195371   -0.198491   -0.022500
      8          1           0       -1.727105   -1.367089   -0.003242
      9          1           0       -1.828327    1.365698    0.048715
 ---------------------------------------------------------------------

 SCF Done:  E(RAM1) =  -4.37930225867     A.U. after   13 cycles

 Excitation energies and oscillator strengths:

 Excited State   1:      Singlet-A      6.6933 eV  185.24 nm  f=0.3325  <S**2>=0.000
      13 -> 14         0.69162
 This state for optimization and/or second-order correction.
 Total Energy, E(CIS) =  -4.13332949495
 Copying the excited state density for this state as the 1-particle RhoCI density.

 Excited State   2:      Singlet-A      7.9440 eV  156.07 nm  f=0.0016  <S**2>=0.000
      12 -> 14         0.23953
      13 -> 15         0.63860
      13 -> 18         0.12112

 Excited State   3:      Singlet-A      7.9776 eV  155.42 nm  f=0.0009  <S**2>=0.000
      12 -> 14         0.65445
      13 -> 15        -0.23468

 Excited State   4:      Singlet-A      8.7924 eV  141.01 nm  f=0.0178  <S**2>=0.000
      10 -> 14        -0.10103
      13 -> 16         0.38343
      13 -> 17         0.53887
      13 -> 18         0.10569
      13 -> 21        -0.15972

 Excited State   5:      Singlet-A      8.9476 eV  138.57 nm  f=0.0688  <S**2>=0.000
      10 -> 14        -0.23100
      13 -> 16         0.53012
      13 -> 17        -0.38131

 Excited State   6:      Singlet-A      8.9864 eV  137.97 nm  f=0.0042  <S**2>=0.000
      10 -> 14        -0.11802
      11 -> 14         0.68649

 Excited State   7:      Singlet-A     10.0677 eV  123.15 nm  f=0.0128  <S**2>=0.000
      13 -> 15        -0.12971
      13 -> 18         0.62219
      13 -> 21         0.22303

 Excited State   8:      Singlet-A     10.3751 eV  119.50 nm  f=0.0133  <S**2>=0.000
      10 -> 14         0.14240
      13 -> 18        -0.20373
      13 -> 19         0.54100
      13 -> 21         0.28852
      13 -> 22         0.12588
      13 -> 23        -0.12349

 Excited State   9:      Singlet-A     10.4710 eV  118.41 nm  f=0.2221  <S**2>=0.000
      10 -> 14         0.58956
      11 -> 14         0.10508
      12 -> 15        -0.13060
      12 -> 18         0.10675
      13 -> 16         0.23703
      13 -> 19        -0.12609

 Excited State  10:      Singlet-A     10.7673 eV  115.15 nm  f=0.0215  <S**2>=0.000
      10 -> 17         0.12781
      13 -> 18         0.12792
      13 -> 19         0.25876
      13 -> 20         0.53396
      13 -> 21        -0.23652
      13 -> 22        -0.20929

 Excited State  11:      Singlet-A     10.8984 eV  113.76 nm  f=0.0021  <S**2>=0.000
      13 -> 17         0.11518
      13 -> 19        -0.31054
      13 -> 20         0.42888
      13 -> 21         0.36417
      13 -> 22         0.17283
      13 -> 23        -0.11970

 Excited State  12:      Singlet-A     11.0081 eV  112.63 nm  f=0.2172  <S**2>=0.000
       9 -> 15        -0.26497
      10 -> 14         0.16181
      10 -> 16         0.13773
      12 -> 15         0.54622
      12 -> 17        -0.11369

 Excited State  13:      Singlet-A     11.6225 eV  106.68 nm  f=0.0314  <S**2>=0.000
      10 -> 15         0.58342
      10 -> 17         0.13508
      10 -> 18         0.15692
      11 -> 15         0.11023
      12 -> 19        -0.14142
      13 -> 21         0.11714
      13 -> 24        -0.11032

 Excited State  14:      Singlet-A     11.6672 eV  106.27 nm  f=0.1929  <S**2>=0.000
       8 -> 17        -0.10472
      10 -> 15         0.17316
      11 -> 17         0.11020
      11 -> 18         0.16561
      11 -> 19        -0.15379
      12 -> 16         0.16089
      12 -> 17         0.23142
      12 -> 18        -0.22855
      12 -> 19         0.40985

 Excited State  15:      Singlet-A     11.7683 eV  105.35 nm  f=0.0161  <S**2>=0.000
       9 -> 14         0.45106
      12 -> 16         0.46496
      13 -> 22         0.17181

 The electronic state is 1-A.
 Alpha  occ. eigenvalues --   -2.97789  -1.13420  -0.88326  -0.83406  -0.80947
 Alpha  occ. eigenvalues --   -0.79890  -0.70522  -0.57618  -0.55750  -0.48319
 Alpha  occ. eigenvalues --   -0.47940  -0.44709  -0.32935
 Alpha virt. eigenvalues --    0.13329   0.19513   0.22443   0.23517   0.28535
 Alpha virt. eigenvalues --    0.29877   0.31292   0.34757   0.37342   0.38255
 Alpha virt. eigenvalues --    0.40353

 Mulliken charges:
               1
     1  C   -0.190654
     2  C   -1.407591
     3  O    2.645292
     4  C   -1.434332
     5  C   -0.140942
     6  H    0.101491
     7  H    0.159187
     8  H    0.155934
     9  H    0.111615
 Sum of Mulliken charges =   0.00000

 Dipole moment (field-independent basis, Debye):
    X=              2.3309    Y=            -10.0024    Z=              0.4029  Tot=             10.2784
 N-N= 1.019224789190D+02 E-N=-1.691046465189D+02  KE=-2.146752749563D+01
 Orbital energies and kinetic energies (alpha):
                                 1                 2
   1         O                -2.977886         -2.374814
   2         O                -1.134197         -1.112856
   3         O                -0.883257         -0.790451
   4         O                -0.834064         -0.857628
   5         O                -0.809467         -0.915879
   6         O                -0.798897         -0.797981
   7         O                -0.705216         -0.735436

 Normal termination of Gaussian 09 at Fri Dec 11 13:41:42 2015.
