 Gaussian 09, Revision D.01,
 Gaussian 09:  ES64L-G09RevD.01 24-Apr-2013

 ------------------------------------------------------------
 #P AM1(Input,print) CIS(Singlets,NStates=15) pop(full) force
 ------------------------------------------------------------

 -----------------
 AM1-Reparam Input
 -----------------
 Symbolic Z-matrix:
 Charge =  0 Multiplicity = 1

                         Standard orientation:
 ---------------------------------------------------------------------
 Center     Atomic      Atomic             Coordinates (Angstroms)
 Number     Number       Type             X           Y           Z
 ---------------------------------------------------------------------
      1          6           0       -0.854886    0.855175    0.007371
      2          6           0       -1.039381   -0.523795   -0.018260
      3          8           0        0.161980   -1.110345    0.011342
      4          6           0        1.149741   -0.200510   -0.033841
      5          6           0        0.565601    1.020617    0.019370
      6          1           0        1.073919    1.971679   -0.025861
      7          1           0        2.154652   -0.508292    0.067459
      8          1           0       -1.846721   -1.133546    0.036402
      9          1           0       -1.604135    1.643992   -0.016579
 ---------------------------------------------------------------------

 SCF Done:  E(RAM1) =   2.81000565078     A.U. after   13 cycles

 Excitation energies and oscillator strengths:

 Excited State   1:      Singlet-A      5.3435 eV  232.03 nm  f=0.3483  <S**2>=0.000
      13 -> 14         0.69557
 This state for optimization and/or second-order correction.
 Total Energy, E(CIS) =   3.00637727938
 Copying the excited state density for this state as the 1-particle RhoCI density.

 Excited State   2:      Singlet-A      6.6666 eV  185.98 nm  f=0.0009  <S**2>=0.000
       9 -> 14        -0.14083
      12 -> 14         0.67696
      13 -> 15         0.11756

 Excited State   3:      Singlet-A      6.7201 eV  184.50 nm  f=0.0104  <S**2>=0.000
      12 -> 14        -0.11634
      13 -> 15         0.60882
      13 -> 16         0.20150
      13 -> 17         0.23905

 Excited State   4:      Singlet-A      6.9001 eV  179.68 nm  f=0.0000  <S**2>=0.000
      11 -> 15        -0.11344
      13 -> 15        -0.19804
      13 -> 16         0.58942
      13 -> 18         0.26560
      13 -> 21        -0.11616

 Excited State   5:      Singlet-A      7.7476 eV  160.03 nm  f=0.0050  <S**2>=0.000
      10 -> 14         0.67690
      11 -> 14         0.11078

 Excited State   6:      Singlet-A      7.8569 eV  157.80 nm  f=0.0002  <S**2>=0.000
      10 -> 14         0.11266
      11 -> 15        -0.10817
      13 -> 16         0.18905
      13 -> 18        -0.35626
      13 -> 19         0.33863
      13 -> 20        -0.12491
      13 -> 21         0.40604

 Excited State   7:      Singlet-A      8.3017 eV  149.35 nm  f=0.0096  <S**2>=0.000
      11 -> 16         0.14507
      13 -> 15        -0.20077
      13 -> 17         0.63337
      13 -> 18        -0.10928

 Excited State   8:      Singlet-A      8.5491 eV  145.03 nm  f=0.1132  <S**2>=0.000
      10 -> 14        -0.11285
      11 -> 14         0.68227

 Excited State   9:      Singlet-A      8.7976 eV  140.93 nm  f=0.0004  <S**2>=0.000
      11 -> 15         0.12529
      13 -> 16        -0.18756
      13 -> 18         0.35739
      13 -> 19         0.54491

 Excited State  10:      Singlet-A      9.1259 eV  135.86 nm  f=0.0015  <S**2>=0.000
      13 -> 18         0.37707
      13 -> 19        -0.26136
      13 -> 20        -0.21285
      13 -> 21         0.48041

 Excited State  11:      Singlet-A      9.4212 eV  131.60 nm  f=0.0243  <S**2>=0.000
       9 -> 16        -0.11292
       9 -> 18        -0.12891
      10 -> 15         0.19595
      10 -> 17         0.21722
      12 -> 16         0.29173
      12 -> 17         0.10045
      12 -> 18         0.24373
      12 -> 19        -0.17131
      12 -> 21        -0.13464
      13 -> 20         0.34632
      13 -> 21         0.10174

 Excited State  12:      Singlet-A      9.4697 eV  130.93 nm  f=0.0702  <S**2>=0.000
      10 -> 15        -0.11346
      10 -> 17        -0.12952
      12 -> 16        -0.19295
      12 -> 18        -0.15205
      12 -> 19         0.10024
      13 -> 20         0.53939
      13 -> 21         0.22861

 Excited State  13:      Singlet-A      9.6348 eV  128.68 nm  f=0.0516  <S**2>=0.000
       9 -> 14        -0.31014
      10 -> 15         0.10772
      10 -> 16        -0.12007
      12 -> 15         0.53054
      12 -> 16        -0.14317
      12 -> 17         0.14112

 Excited State  14:      Singlet-A      9.6673 eV  128.25 nm  f=0.0102  <S**2>=0.000
       9 -> 14         0.59926
      12 -> 14         0.12291
      12 -> 15         0.27756

 Excited State  15:      Singlet-A      9.9115 eV  125.09 nm  f=0.1388  <S**2>=0.000
       9 -> 16         0.11373
      10 -> 15        -0.27183
      10 -> 16        -0.19418
      10 -> 17        -0.14935
      11 -> 15        -0.15710
      12 -> 15         0.14729
      12 -> 16         0.47594
      12 -> 19         0.20623

 The electronic state is 1-A.
 Alpha  occ. eigenvalues --   -1.73396  -1.11554  -0.93915  -0.79903  -0.76092
 Alpha  occ. eigenvalues --   -0.67027  -0.64308  -0.55878  -0.49786  -0.44678
 Alpha  occ. eigenvalues --   -0.43896  -0.40827  -0.29938
 Alpha virt. eigenvalues --    0.10192   0.18594   0.19357   0.23993   0.26088
 Alpha virt. eigenvalues --    0.27253   0.28352   0.28927   0.38536   0.46781
 Alpha virt. eigenvalues --    0.52030

 Mulliken charges:
               1
     1  C   -0.134676
     2  C   -1.977439
     3  O    3.228340
     4  C   -1.970481
     5  C   -0.134947
     6  H    0.186286
     7  H    0.314590
     8  H    0.301895
     9  H    0.186430
 Sum of Mulliken charges =   0.00000

 Dipole moment (field-independent basis, Debye):
    X=              1.5394    Y=             -9.2770    Z=              0.7568  Tot=              9.4342
 N-N= 1.042673602933D+02 E-N=-1.694838907783D+02  KE=-1.480686983882D+01
 Orbital energies and kinetic energies (alpha):
                                 1                 2
   1         O                -1.733956         -1.236551
   2         O                -1.115544         -0.974264
   3         O                -0.939154         -0.840290
   4         O                -0.799028         -0.610327
   5         O                -0.760921         -0.686594
   6         O                -0.670267         -0.573377
   7         O                -0.643079         -0.523578

 Normal termination of Gaussian 09 at Tue Dec 15 17:06:01 2015.
