 Gaussian 09, Revision D.01,
 Gaussian 09:  ES64L-G09RevD.01 24-Apr-2013

 ------------------------------------------------------------
 #P AM1(Input,print) CIS(Singlets,NStates=15) pop(full) force
 ------------------------------------------------------------

 -----------------
 AM1-Reparam Input
 -----------------
 Symbolic Z-matrix:
 Charge =  0 Multiplicity = 1

                         Standard orientation:
 ---------------------------------------------------------------------
 Center     Atomic      Atomic             Coordinates (Angstroms)
 Number     Number       Type             X           Y           Z
 ---------------------------------------------------------------------
      1          6           0       -0.376584    1.124644   -0.024671
      2          6           0       -1.163767    0.018786   -0.011134
      3          8           0       -0.392425   -1.095488    0.009137
      4          6           0        0.940801   -0.648277   -0.018496
      5          6           0        1.003911    0.667765    0.015701
      6          1           0        1.949612    1.267863    0.039996
      7          1           0        1.649509   -1.489261    0.007927
      8          1           0       -2.235078   -0.102056    0.071992
      9          1           0       -0.650812    2.109852    0.038586
 ---------------------------------------------------------------------

 SCF Done:  E(RAM1) =   1.11959545903     A.U. after   14 cycles

 Excitation energies and oscillator strengths:

 Excited State   1:      Singlet-A      5.3822 eV  230.36 nm  f=0.2056  <S**2>=0.000
      12 -> 15        -0.14122
      13 -> 14         0.68111
 This state for optimization and/or second-order correction.
 Total Energy, E(CIS) =   1.31738788251
 Copying the excited state density for this state as the 1-particle RhoCI density.

 Excited State   2:      Singlet-A      6.3275 eV  195.94 nm  f=0.0026  <S**2>=0.000
      13 -> 15        -0.10885
      13 -> 16         0.66221
      13 -> 19         0.15642

 Excited State   3:      Singlet-A      6.6362 eV  186.83 nm  f=0.0276  <S**2>=0.000
      12 -> 14         0.27059
      13 -> 15         0.55107
      13 -> 17         0.30256

 Excited State   4:      Singlet-A      6.7200 eV  184.50 nm  f=0.0077  <S**2>=0.000
      12 -> 14        -0.16272
      13 -> 15        -0.26030
      13 -> 16        -0.11875
      13 -> 17         0.58287
      13 -> 18        -0.12260
      13 -> 21         0.11172

 Excited State   5:      Singlet-A      7.2421 eV  171.20 nm  f=0.0026  <S**2>=0.000
       9 -> 14         0.13799
      11 -> 14         0.67522
      12 -> 14         0.10264

 Excited State   6:      Singlet-A      7.8757 eV  157.43 nm  f=0.0537  <S**2>=0.000
      10 -> 14         0.55627
      11 -> 15         0.21001
      12 -> 14         0.31341
      13 -> 15        -0.13773

 Excited State   7:      Singlet-A      8.0293 eV  154.41 nm  f=0.0079  <S**2>=0.000
      12 -> 14         0.10003
      13 -> 17         0.15172
      13 -> 18         0.57812
      13 -> 19        -0.21238
      13 -> 20         0.15285
      13 -> 23        -0.10564
      13 -> 24         0.14068

 Excited State   8:      Singlet-A      8.0369 eV  154.27 nm  f=0.1850  <S**2>=0.000
      10 -> 14        -0.31994
      11 -> 14        -0.13077
      12 -> 14         0.50722
      13 -> 15        -0.24510
      13 -> 20        -0.11369

 Excited State   9:      Singlet-A      8.2847 eV  149.65 nm  f=0.0009  <S**2>=0.000
      13 -> 16        -0.10811
      13 -> 19         0.32127
      13 -> 20         0.56446
      13 -> 21         0.13300
      13 -> 23         0.11992

 Excited State  10:      Singlet-A      8.4554 eV  146.63 nm  f=0.0198  <S**2>=0.000
       6 -> 15         0.10038
       9 -> 15        -0.22683
      10 -> 14        -0.24603
      11 -> 15         0.58726
      12 -> 15         0.12674

 Excited State  11:      Singlet-A      8.6666 eV  143.06 nm  f=0.0948  <S**2>=0.000
      12 -> 15         0.47975
      12 -> 16        -0.41704

 Excited State  12:      Singlet-A      8.7349 eV  141.94 nm  f=0.0838  <S**2>=0.000
      12 -> 15         0.38694
      12 -> 16         0.50591

 Excited State  13:      Singlet-A      8.9205 eV  138.99 nm  f=0.0105  <S**2>=0.000
      12 -> 17         0.45067
      13 -> 18        -0.25646
      13 -> 19        -0.36062
      13 -> 20         0.25717

 Excited State  14:      Singlet-A      9.3240 eV  132.97 nm  f=0.0004  <S**2>=0.000
       9 -> 14         0.12442
      13 -> 17        -0.10398
      13 -> 20        -0.10308
      13 -> 21         0.62887
      13 -> 22         0.17652

 Excited State  15:      Singlet-A      9.4062 eV  131.81 nm  f=0.0650  <S**2>=0.000
       9 -> 16        -0.23628
      10 -> 17         0.19204
      11 -> 16         0.55310
      11 -> 19         0.12018

 The electronic state is 1-A.
 Alpha  occ. eigenvalues --   -1.81119  -1.18987  -0.98519  -0.87218  -0.80475
 Alpha  occ. eigenvalues --   -0.73869  -0.70826  -0.60358  -0.55891  -0.51886
 Alpha  occ. eigenvalues --   -0.49247  -0.47362  -0.37275
 Alpha virt. eigenvalues --    0.03713   0.08977   0.10413   0.11260   0.18385
 Alpha virt. eigenvalues --    0.19047   0.19938   0.21947   0.26594   0.27352
 Alpha virt. eigenvalues --    0.27879

 Mulliken charges:
               1
     1  C   -0.173728
     2  C   -1.226309
     3  O    2.110116
     4  C   -1.217286
     5  C   -0.102768
     6  H    0.113645
     7  H    0.188000
     8  H    0.204625
     9  H    0.103703
 Sum of Mulliken charges =   0.00000

 Dipole moment (field-independent basis, Debye):
    X=             -2.3681    Y=             -7.0835    Z=              0.4062  Tot=              7.4799
 N-N= 1.041298625678D+02 E-N=-1.708185929472D+02  KE=-1.494129366800D+01
 Orbital energies and kinetic energies (alpha):
                                 1                 2
   1         O                -1.811194         -1.226880
   2         O                -1.189870         -0.969877
   3         O                -0.985194         -0.824661
   4         O                -0.872184         -0.621125
   5         O                -0.804750         -0.673203
   6         O                -0.738687         -0.589958
   7         O                -0.708256         -0.513026

 Normal termination of Gaussian 09 at Tue Dec 15 17:05:41 2015.
