 Gaussian 09, Revision D.01,
 Gaussian 09:  ES64L-G09RevD.01 24-Apr-2013

 ------------------------------------------------------------
 #P AM1(Input,print) CIS(Singlets,NStates=15) pop(full) force
 ------------------------------------------------------------

 -----------------
 AM1-Reparam Input
 -----------------
 Symbolic Z-matrix:
 Charge =  0 Multiplicity = 1

                         Standard orientation:
 ---------------------------------------------------------------------
 Center     Atomic      Atomic             Coordinates (Angstroms)
 Number     Number       Type             X           Y           Z
 ---------------------------------------------------------------------
      1          6           0        1.007904    0.735301   -0.010651
      2          6           0        0.916886   -0.666669   -0.015906
      3          8           0       -0.356045   -1.062698    0.009082
      4          6           0       -1.117933   -0.040962   -0.017816
      5          6           0       -0.431617    1.100602    0.019935
      6          1           0       -0.735326    2.120375   -0.047185
      7          1           0       -2.221389   -0.217233    0.035419
      8          1           0        1.722424   -1.466074    0.028507
      9          1           0        1.831221    1.294886    0.057225
 ---------------------------------------------------------------------

 SCF Done:  E(RAM1) =   2.82934910003     A.U. after   14 cycles

 Excitation energies and oscillator strengths:

 Excited State   1:      Singlet-A      5.1599 eV  240.28 nm  f=0.3602  <S**2>=0.000
      13 -> 14         0.69678
 This state for optimization and/or second-order correction.
 Total Energy, E(CIS) =   3.01897313144
 Copying the excited state density for this state as the 1-particle RhoCI density.

 Excited State   2:      Singlet-A      6.2130 eV  199.56 nm  f=0.0025  <S**2>=0.000
      11 -> 15         0.10570
      13 -> 15         0.65932
      13 -> 18         0.19299

 Excited State   3:      Singlet-A      6.3913 eV  193.99 nm  f=0.0002  <S**2>=0.000
       9 -> 14         0.12708
      12 -> 14         0.68975

 Excited State   4:      Singlet-A      6.4900 eV  191.04 nm  f=0.0035  <S**2>=0.000
      11 -> 16        -0.10745
      13 -> 16         0.62008
      13 -> 17         0.24208
      13 -> 18        -0.17565

 Excited State   5:      Singlet-A      7.5355 eV  164.53 nm  f=0.0001  <S**2>=0.000
      11 -> 16        -0.11417
      13 -> 16         0.22846
      13 -> 17        -0.23959
      13 -> 18         0.41701
      13 -> 19         0.27945
      13 -> 20         0.32579

 Excited State   6:      Singlet-A      7.8852 eV  157.24 nm  f=0.0238  <S**2>=0.000
       9 -> 14         0.11546
      10 -> 14         0.46835
      13 -> 15         0.12659
      13 -> 17        -0.41056
      13 -> 18        -0.22577
      13 -> 20        -0.10470

 Excited State   7:      Singlet-A      7.9937 eV  155.10 nm  f=0.0062  <S**2>=0.000
       9 -> 14         0.10008
      10 -> 14         0.48816
      13 -> 15        -0.10727
      13 -> 17         0.41727
      13 -> 18         0.20755

 Excited State   8:      Singlet-A      8.3653 eV  148.21 nm  f=0.1067  <S**2>=0.000
      11 -> 14         0.67443
      12 -> 15        -0.12978

 Excited State   9:      Singlet-A      8.4600 eV  146.55 nm  f=0.0021  <S**2>=0.000
      13 -> 16        -0.13152
      13 -> 17         0.14229
      13 -> 18        -0.33861
      13 -> 19         0.51647
      13 -> 20         0.23962

 Excited State  10:      Singlet-A      9.0007 eV  137.75 nm  f=0.1414  <S**2>=0.000
       8 -> 15         0.10272
      11 -> 14         0.12257
      12 -> 15         0.58375
      12 -> 16        -0.19327
      12 -> 18         0.19183
      13 -> 20         0.11960

 Excited State  11:      Singlet-A      9.0522 eV  136.97 nm  f=0.0241  <S**2>=0.000
      12 -> 15        -0.14480
      13 -> 18        -0.18606
      13 -> 19        -0.36804
      13 -> 20         0.52300
      13 -> 21         0.13122

 Excited State  12:      Singlet-A      9.2956 eV  133.38 nm  f=0.0018  <S**2>=0.000
       9 -> 14         0.64300
      10 -> 14        -0.15070
      12 -> 14        -0.13091

 Excited State  13:      Singlet-A      9.3400 eV  132.75 nm  f=0.0291  <S**2>=0.000
       9 -> 14        -0.15052
       9 -> 15        -0.19472
       9 -> 18        -0.13292
      10 -> 15        -0.11683
      10 -> 17        -0.16216
      12 -> 15         0.22706
      12 -> 16         0.41973
      12 -> 17         0.23041
      12 -> 18        -0.14655
      12 -> 19        -0.12386
      12 -> 20        -0.13191

 Excited State  14:      Singlet-A      9.5284 eV  130.12 nm  f=0.0586  <S**2>=0.000
      11 -> 15        -0.12503
      12 -> 16        -0.10480
      13 -> 20        -0.11542
      13 -> 21         0.65829

 Excited State  15:      Singlet-A      9.6775 eV  128.12 nm  f=0.0008  <S**2>=0.000
       7 -> 15        -0.12477
      11 -> 15         0.59711
      11 -> 16         0.22923
      11 -> 17         0.12725
      13 -> 15        -0.11924
      13 -> 21         0.13931

 The electronic state is 1-A.
 Alpha  occ. eigenvalues --   -1.74771  -1.11216  -0.92675  -0.80522  -0.73861
 Alpha  occ. eigenvalues --   -0.66837  -0.64851  -0.54178  -0.48543  -0.45457
 Alpha  occ. eigenvalues --   -0.43473  -0.40081  -0.28983
 Alpha virt. eigenvalues --    0.09951   0.15970   0.17844   0.24380   0.25742
 Alpha virt. eigenvalues --    0.27985   0.29216   0.30043   0.41209   0.49602
 Alpha virt. eigenvalues --    0.54322

 Mulliken charges:
               1
     1  C   -0.111248
     2  C   -1.976143
     3  O    3.209100
     4  C   -1.957774
     5  C   -0.159534
     6  H    0.182904
     7  H    0.324644
     8  H    0.311682
     9  H    0.176368
 Sum of Mulliken charges =   0.00000

 Dipole moment (field-independent basis, Debye):
    X=             -3.4135    Y=             -9.0328    Z=              0.5259  Tot=              9.6706
 N-N= 1.043948955575D+02 E-N=-1.698241504916D+02  KE=-1.479800402694D+01
 Orbital energies and kinetic energies (alpha):
                                 1                 2
   1         O                -1.747715         -1.261938
   2         O                -1.112157         -0.982981
   3         O                -0.926747         -0.829313
   4         O                -0.805216         -0.609558
   5         O                -0.738608         -0.675141
   6         O                -0.668372         -0.573116
   7         O                -0.648505         -0.523400

 Normal termination of Gaussian 09 at Tue Dec 15 17:05:59 2015.
