 Gaussian 09, Revision D.01,
 Gaussian 09:  ES64L-G09RevD.01 24-Apr-2013

 ------------------------------------------------------------
 #P AM1(Input,print) CIS(Singlets,NStates=15) pop(full) force
 ------------------------------------------------------------

 -----------------
 AM1-Reparam Input
 -----------------
 Symbolic Z-matrix:
 Charge =  0 Multiplicity = 1

                         Standard orientation:
 ---------------------------------------------------------------------
 Center     Atomic      Atomic             Coordinates (Angstroms)
 Number     Number       Type             X           Y           Z
 ---------------------------------------------------------------------
      1          6           0       -0.539353    1.061019   -0.012649
      2          6           0       -1.170045   -0.182549    0.028961
      3          8           0       -0.201308   -1.090727   -0.017120
      4          6           0        1.014732   -0.522020   -0.001889
      5          6           0        0.911592    0.780923   -0.009582
      6          1           0        1.622497    1.557458    0.076031
      7          1           0        1.845513   -1.197540    0.044122
      8          1           0       -2.155868   -0.461706    0.015911
      9          1           0       -1.003236    2.003364   -0.028147
 ---------------------------------------------------------------------

 SCF Done:  E(RAM1) =  -5.89902355777     A.U. after   14 cycles

 Excitation energies and oscillator strengths:

 Excited State   1:      Singlet-A      6.8252 eV  181.66 nm  f=0.3385  <S**2>=0.000
      12 -> 14        -0.14561
      13 -> 14         0.67362
 This state for optimization and/or second-order correction.
 Total Energy, E(CIS) =  -5.64820242818
 Copying the excited state density for this state as the 1-particle RhoCI density.

 Excited State   2:      Singlet-A      7.1288 eV  173.92 nm  f=0.0210  <S**2>=0.000
      12 -> 14         0.68874
      13 -> 14         0.14173

 Excited State   3:      Singlet-A      7.6272 eV  162.56 nm  f=0.0144  <S**2>=0.000
      13 -> 15         0.62079
      13 -> 16         0.18348
      13 -> 17         0.25718

 Excited State   4:      Singlet-A      8.0710 eV  153.62 nm  f=0.0048  <S**2>=0.000
      13 -> 15        -0.23307
      13 -> 16         0.59499
      13 -> 17         0.17975
      13 -> 21         0.21634

 Excited State   5:      Singlet-A      8.6349 eV  143.58 nm  f=0.0083  <S**2>=0.000
      11 -> 14         0.69844

 Excited State   6:      Singlet-A      9.0257 eV  137.37 nm  f=0.0258  <S**2>=0.000
      13 -> 15        -0.19498
      13 -> 16        -0.20006
      13 -> 17         0.61043
      13 -> 21        -0.15886

 Excited State   7:      Singlet-A      9.6502 eV  128.48 nm  f=0.0449  <S**2>=0.000
      10 -> 14         0.15037
      12 -> 15         0.34297
      12 -> 16        -0.10655
      12 -> 21        -0.13259
      13 -> 16        -0.14070
      13 -> 19        -0.21412
      13 -> 21         0.40813
      13 -> 22        -0.18383

 Excited State   8:      Singlet-A      9.6996 eV  127.82 nm  f=0.0536  <S**2>=0.000
      10 -> 14        -0.18760
      12 -> 15        -0.36237
      12 -> 21         0.11308
      13 -> 16        -0.12695
      13 -> 20        -0.22689
      13 -> 21         0.37512
      13 -> 22        -0.15387

 Excited State   9:      Singlet-A      9.8365 eV  126.05 nm  f=0.0042  <S**2>=0.000
      13 -> 18         0.67399
      13 -> 21        -0.11712

 Excited State  10:      Singlet-A      9.9394 eV  124.74 nm  f=0.0364  <S**2>=0.000
      10 -> 14         0.24908
      12 -> 15        -0.13112
      12 -> 16         0.30986
      12 -> 21         0.20307
      13 -> 19        -0.24364
      13 -> 20         0.41745

 Excited State  11:      Singlet-A     10.0351 eV  123.55 nm  f=0.0209  <S**2>=0.000
      12 -> 15         0.10267
      12 -> 16         0.19217
      12 -> 17         0.10214
      13 -> 18         0.10600
      13 -> 19         0.57381
      13 -> 20         0.12787
      13 -> 21         0.18284

 Excited State  12:      Singlet-A     10.1133 eV  122.60 nm  f=0.0034  <S**2>=0.000
      10 -> 14        -0.20084
      12 -> 15         0.31101
      12 -> 16         0.35436
      12 -> 17         0.27210
      12 -> 21         0.12342
      13 -> 19        -0.15047
      13 -> 20        -0.26064

 Excited State  13:      Singlet-A     10.6112 eV  116.84 nm  f=0.0089  <S**2>=0.000
      11 -> 17         0.10080
      12 -> 17         0.22967
      13 -> 21         0.20817
      13 -> 22         0.55681

 Excited State  14:      Singlet-A     10.6448 eV  116.47 nm  f=0.0540  <S**2>=0.000
       9 -> 16        -0.10711
      10 -> 14        -0.13915
      11 -> 15         0.11534
      11 -> 16         0.11940
      11 -> 17         0.19585
      12 -> 15        -0.19240
      12 -> 17         0.35333
      12 -> 18         0.12480
      12 -> 21        -0.17601
      12 -> 22         0.10644
      13 -> 20         0.17623
      13 -> 21        -0.10983
      13 -> 22        -0.30760

 Excited State  15:      Singlet-A     10.7752 eV  115.06 nm  f=0.1422  <S**2>=0.000
      10 -> 14         0.19360
      11 -> 15         0.28390
      11 -> 16         0.15026
      11 -> 17         0.28935
      12 -> 16         0.22423
      12 -> 17        -0.21063
      12 -> 18         0.26023
      12 -> 21         0.12609
      13 -> 20        -0.19263

 The electronic state is 1-A.
 Alpha  occ. eigenvalues --   -3.76423  -1.41302  -1.08303  -1.04885  -0.97670
 Alpha  occ. eigenvalues --   -0.94854  -0.82261  -0.63384  -0.60920  -0.55362
 Alpha  occ. eigenvalues --   -0.51499  -0.46528  -0.38625
 Alpha virt. eigenvalues --    0.07741   0.12714   0.15037   0.18647   0.21119
 Alpha virt. eigenvalues --    0.22004   0.23548   0.24812   0.27663   0.32560
 Alpha virt. eigenvalues --    0.40899

 Mulliken charges:
               1
     1  C   -0.316401
     2  C   -1.826333
     3  O    2.890906
     4  C   -1.772259
     5  C   -0.205687
     6  H    0.238653
     7  H    0.361436
     8  H    0.378690
     9  H    0.250994
 Sum of Mulliken charges =   0.00000

 Dipole moment (field-independent basis, Debye):
    X=             -1.2190    Y=             -9.5388    Z=             -0.2506  Tot=              9.6197
 N-N= 1.054550776931D+02 E-N=-1.712646151109D+02  KE=-2.500330149822D+01
 Orbital energies and kinetic energies (alpha):
                                 1                 2
   1         O                -3.764233         -3.077729
   2         O                -1.413017         -1.383374
   3         O                -1.083026         -1.124108
   4         O                -1.048846         -1.042708
   5         O                -0.976697         -0.965547
   6         O                -0.948537         -0.859007
   7         O                -0.822607         -0.823134

 Normal termination of Gaussian 09 at Fri Dec 11 13:41:23 2015.
