 Gaussian 09, Revision D.01,
 Gaussian 09:  ES64L-G09RevD.01 24-Apr-2013

 ------------------------------------------------------------
 #P AM1(Input,print) CIS(Singlets,NStates=15) pop(full) force
 ------------------------------------------------------------

 -----------------
 AM1-Reparam Input
 -----------------
 Symbolic Z-matrix:
 Charge =  0 Multiplicity = 1

                         Standard orientation:
 ---------------------------------------------------------------------
 Center     Atomic      Atomic             Coordinates (Angstroms)
 Number     Number       Type             X           Y           Z
 ---------------------------------------------------------------------
      1          6           0       -0.937434    0.729833   -0.021719
      2          6           0       -0.962978   -0.593631    0.027571
      3          8           0        0.283689   -1.138888   -0.009341
      4          6           0        1.131678   -0.042859    0.014813
      5          6           0        0.467148    1.095240   -0.003600
      6          1           0        0.883264    2.063284    0.038627
      7          1           0        2.221465   -0.377353   -0.046116
      8          1           0       -1.789787   -1.219029   -0.025289
      9          1           0       -1.774941    1.512701    0.005117
 ---------------------------------------------------------------------

 SCF Done:  E(RAM1) =   1.42329128995     A.U. after   13 cycles

 Excitation energies and oscillator strengths:

 Excited State   1:      Singlet-A      5.7836 eV  214.37 nm  f=0.2360  <S**2>=0.000
      13 -> 14         0.61575
      13 -> 15         0.31037
 This state for optimization and/or second-order correction.
 Total Energy, E(CIS) =   1.63583485085
 Copying the excited state density for this state as the 1-particle RhoCI density.

 Excited State   2:      Singlet-A      5.8475 eV  212.03 nm  f=0.0745  <S**2>=0.000
      13 -> 14        -0.31752
      13 -> 15         0.60389

 Excited State   3:      Singlet-A      6.1924 eV  200.22 nm  f=0.0013  <S**2>=0.000
      11 -> 16        -0.10029
      13 -> 16         0.66974
      13 -> 19        -0.10057
      13 -> 21         0.13208

 Excited State   4:      Singlet-A      7.2706 eV  170.53 nm  f=0.0002  <S**2>=0.000
      11 -> 14         0.19808
      12 -> 14         0.66243

 Excited State   5:      Singlet-A      7.4276 eV  166.92 nm  f=0.0028  <S**2>=0.000
      13 -> 15         0.10518
      13 -> 17         0.66074
      13 -> 22        -0.15270

 Excited State   6:      Singlet-A      7.7987 eV  158.98 nm  f=0.0022  <S**2>=0.000
      13 -> 16         0.11980
      13 -> 17         0.10510
      13 -> 19         0.48158
      13 -> 21        -0.17130
      13 -> 22         0.42137

 Excited State   7:      Singlet-A      8.1752 eV  151.66 nm  f=0.0075  <S**2>=0.000
      11 -> 14         0.40099
      12 -> 14        -0.10959
      13 -> 18         0.55207

 Excited State   8:      Singlet-A      8.3815 eV  147.93 nm  f=0.0079  <S**2>=0.000
      11 -> 15         0.13168
      13 -> 17        -0.14282
      13 -> 19         0.44890
      13 -> 20         0.15091
      13 -> 21         0.41026
      13 -> 22        -0.22560

 Excited State   9:      Singlet-A      8.4726 eV  146.34 nm  f=0.0016  <S**2>=0.000
      10 -> 14         0.68738

 Excited State  10:      Singlet-A      8.7171 eV  142.23 nm  f=0.0035  <S**2>=0.000
      13 -> 19        -0.19583
      13 -> 21         0.49769
      13 -> 22         0.43048

 Excited State  11:      Singlet-A      8.9874 eV  137.95 nm  f=0.0554  <S**2>=0.000
      11 -> 15         0.19516
      11 -> 16        -0.17186
      13 -> 20         0.57463
      13 -> 22         0.18958
      13 -> 23        -0.11947

 Excited State  12:      Singlet-A      9.0199 eV  137.46 nm  f=0.0561  <S**2>=0.000
      11 -> 14        -0.27228
      11 -> 15        -0.36637
      12 -> 14         0.10023
      12 -> 15         0.37164
      13 -> 15         0.11301
      13 -> 18         0.24313
      13 -> 20         0.13227

 Excited State  13:      Singlet-A      9.1322 eV  135.77 nm  f=0.1133  <S**2>=0.000
      11 -> 14        -0.34462
      11 -> 15         0.40367
      11 -> 16         0.15789
      12 -> 14         0.11415
      12 -> 16        -0.12053
      13 -> 18         0.29313
      13 -> 20        -0.16383

 Excited State  14:      Singlet-A      9.3522 eV  132.57 nm  f=0.2535  <S**2>=0.000
       8 -> 15         0.19571
      11 -> 14         0.25700
      11 -> 15         0.21102
      12 -> 15         0.38542
      12 -> 16        -0.29353
      13 -> 18        -0.15138

 Excited State  15:      Singlet-A      9.4975 eV  130.54 nm  f=0.0060  <S**2>=0.000
      11 -> 15        -0.12539
      11 -> 16         0.56917
      12 -> 16        -0.18159
      13 -> 16         0.12131
      13 -> 20         0.24474

 The electronic state is 1-A.
 Alpha  occ. eigenvalues --   -1.88938  -1.19424  -0.95902  -0.78416  -0.77073
 Alpha  occ. eigenvalues --   -0.67506  -0.61989  -0.48926  -0.47599  -0.40127
 Alpha  occ. eigenvalues --   -0.37109  -0.36482  -0.23309
 Alpha virt. eigenvalues --    0.18121   0.20544   0.22694   0.29186   0.29680
 Alpha virt. eigenvalues --    0.31175   0.34345   0.34627   0.36041   0.40555
 Alpha virt. eigenvalues --    0.45156

 Mulliken charges:
               1
     1  C   -0.082239
     2  C   -1.531072
     3  O    2.754433
     4  C   -1.490164
     5  C   -0.061280
     6  H    0.059192
     7  H    0.129052
     8  H    0.165737
     9  H    0.056342
 Sum of Mulliken charges =   0.00000

 Dipole moment (field-independent basis, Debye):
    X=              2.3398    Y=             -9.7666    Z=             -0.4567  Tot=             10.0534
 N-N= 1.036347329188D+02 E-N=-1.701117121151D+02  KE=-1.585514453611D+01
 Orbital energies and kinetic energies (alpha):
                                 1                 2
   1         O                -1.889381         -1.378637
   2         O                -1.194243         -1.080417
   3         O                -0.959025         -0.890257
   4         O                -0.784160         -0.624586
   5         O                -0.770728         -0.698426
   6         O                -0.675060         -0.616977
   7         O                -0.619893         -0.547999

 Normal termination of Gaussian 09 at Tue Dec 15 17:08:10 2015.
