 Gaussian 09, Revision D.01,
 Gaussian 09:  ES64L-G09RevD.01 24-Apr-2013

 ------------------------------------------------------------
 #P AM1(Input,print) CIS(Singlets,NStates=15) pop(full) force
 ------------------------------------------------------------

 -----------------
 AM1-Reparam Input
 -----------------
 Symbolic Z-matrix:
 Charge =  0 Multiplicity = 1

                         Standard orientation:
 ---------------------------------------------------------------------
 Center     Atomic      Atomic             Coordinates (Angstroms)
 Number     Number       Type             X           Y           Z
 ---------------------------------------------------------------------
      1          6           0        0.666294    1.023339    0.017408
      2          6           0        1.136860   -0.249874   -0.014082
      3          8           0        0.089896   -1.178830   -0.004540
      4          6           0       -1.096074   -0.398709    0.011096
      5          6           0       -0.792337    0.873631   -0.015119
      6          1           0       -1.484298    1.786474   -0.001429
      7          1           0       -2.044421   -0.954456    0.016592
      8          1           0        2.101279   -0.747939    0.035972
      9          1           0        1.219823    1.856243   -0.010626
 ---------------------------------------------------------------------

 SCF Done:  E(RAM1) =   1.82116285382     A.U. after   14 cycles

 Excitation energies and oscillator strengths:

 Excited State   1:      Singlet-A      5.2316 eV  236.99 nm  f=0.3669  <S**2>=0.000
      13 -> 14         0.69473
 This state for optimization and/or second-order correction.
 Total Energy, E(CIS) =   2.01342118271
 Copying the excited state density for this state as the 1-particle RhoCI density.

 Excited State   2:      Singlet-A      6.3817 eV  194.28 nm  f=0.0010  <S**2>=0.000
      13 -> 15         0.66971
      13 -> 17        -0.14963
      13 -> 19        -0.12637

 Excited State   3:      Singlet-A      6.5795 eV  188.44 nm  f=0.0033  <S**2>=0.000
      13 -> 16         0.67573
      13 -> 18        -0.15391

 Excited State   4:      Singlet-A      7.2469 eV  171.09 nm  f=0.0005  <S**2>=0.000
      12 -> 14         0.70130

 Excited State   5:      Singlet-A      7.8129 eV  158.69 nm  f=0.0001  <S**2>=0.000
      13 -> 15         0.13331
      13 -> 17         0.50798
      13 -> 18        -0.40777
      13 -> 21         0.13240
      13 -> 22        -0.16401

 Excited State   6:      Singlet-A      8.3805 eV  147.94 nm  f=0.0091  <S**2>=0.000
      10 -> 14        -0.38834
      11 -> 14         0.54988
      13 -> 18        -0.15894

 Excited State   7:      Singlet-A      8.6540 eV  143.27 nm  f=0.0081  <S**2>=0.000
      10 -> 14        -0.11133
      11 -> 14         0.15850
      13 -> 16         0.12003
      13 -> 17         0.42835
      13 -> 18         0.48671

 Excited State   8:      Singlet-A      9.0934 eV  136.35 nm  f=0.0546  <S**2>=0.000
      10 -> 14         0.53130
      11 -> 14         0.37576
      12 -> 16        -0.10130
      12 -> 17        -0.14028
      13 -> 20         0.14003

 Excited State   9:      Singlet-A      9.1981 eV  134.79 nm  f=0.0040  <S**2>=0.000
      13 -> 15         0.10394
      13 -> 19         0.68086

 Excited State  10:      Singlet-A      9.5987 eV  129.17 nm  f=0.0545  <S**2>=0.000
       8 -> 16         0.10217
      10 -> 18         0.10323
      11 -> 16         0.11319
      11 -> 18        -0.15288
      12 -> 15         0.42790
      12 -> 16        -0.18114
      12 -> 17        -0.30843
      12 -> 18         0.20827

 Excited State  11:      Singlet-A     10.0840 eV  122.95 nm  f=0.0390  <S**2>=0.000
      13 -> 17        -0.11045
      13 -> 18         0.17816
      13 -> 21         0.55978
      13 -> 22        -0.33823

 Excited State  12:      Singlet-A     10.1347 eV  122.34 nm  f=0.1686  <S**2>=0.000
      11 -> 16         0.15515
      12 -> 16         0.58835
      12 -> 17        -0.22888

 Excited State  13:      Singlet-A     10.3806 eV  119.44 nm  f=0.1934  <S**2>=0.000
       8 -> 15         0.12245
      10 -> 14         0.10586
      10 -> 15         0.17571
      11 -> 15        -0.30824
      12 -> 15         0.40821
      12 -> 16         0.19596
      12 -> 17         0.17877
      12 -> 18        -0.17542
      12 -> 19        -0.11113

 Excited State  14:      Singlet-A     10.4264 eV  118.91 nm  f=0.0631  <S**2>=0.000
      13 -> 21         0.36488
      13 -> 22         0.57078

 Excited State  15:      Singlet-A     10.5570 eV  117.44 nm  f=0.0849  <S**2>=0.000
      10 -> 14        -0.11509
      10 -> 16        -0.10068
      11 -> 15        -0.19610
      13 -> 20         0.63280

 The electronic state is 1-A.
 Alpha  occ. eigenvalues --   -1.97382  -1.26015  -0.99715  -0.88764  -0.84554
 Alpha  occ. eigenvalues --   -0.76228  -0.72902  -0.62659  -0.61573  -0.51861
 Alpha  occ. eigenvalues --   -0.51757  -0.47973  -0.34670
 Alpha virt. eigenvalues --    0.05034   0.11720   0.12378   0.19824   0.21743
 Alpha virt. eigenvalues --    0.23632   0.26371   0.26702   0.28319   0.35042
 Alpha virt. eigenvalues --    0.39316

 Mulliken charges:
               1
     1  C   -0.149877
     2  C   -1.860522
     3  O    3.169790
     4  C   -1.856704
     5  C   -0.135786
     6  H    0.156721
     7  H    0.278728
     8  H    0.261074
     9  H    0.136576
 Sum of Mulliken charges =   0.00000

 Dipole moment (field-independent basis, Debye):
    X=              0.5607    Y=            -11.6563    Z=              0.0400  Tot=             11.6698
 N-N= 1.048953995501D+02 E-N=-1.694362826460D+02  KE=-1.559114887109D+01
 Orbital energies and kinetic energies (alpha):
                                 1                 2
   1         O                -1.973817         -1.332917
   2         O                -1.260146         -1.048120
   3         O                -0.997150         -0.891938
   4         O                -0.887637         -0.587505
   5         O                -0.845543         -0.690826
   6         O                -0.762282         -0.606070
   7         O                -0.729019         -0.539393

 Normal termination of Gaussian 09 at Tue Dec 15 17:08:55 2015.
