 Gaussian 09, Revision D.01,
 Gaussian 09:  ES64L-G09RevD.01 24-Apr-2013

 ------------------------------------------------------------
 #P AM1(Input,print) CIS(Singlets,NStates=15) pop(full) force
 ------------------------------------------------------------

 -----------------
 AM1-Reparam Input
 -----------------
 Symbolic Z-matrix:
 Charge =  0 Multiplicity = 1

                         Standard orientation:
 ---------------------------------------------------------------------
 Center     Atomic      Atomic             Coordinates (Angstroms)
 Number     Number       Type             X           Y           Z
 ---------------------------------------------------------------------
      1          6           0        0.891225    0.800723    0.015921
      2          6           0        1.016608   -0.509661    0.031629
      3          8           0       -0.214954   -1.150807   -0.014098
      4          6           0       -1.141199   -0.136255   -0.007561
      5          6           0       -0.532356    1.050949   -0.024795
      6          1           0       -1.111574    2.035757    0.060398
      7          1           0       -2.156911   -0.506916    0.075583
      8          1           0        1.919511   -1.151118   -0.050373
      9          1           0        1.662937    1.594196   -0.063994
 ---------------------------------------------------------------------

 SCF Done:  E(RAM1) =   1.41690954917     A.U. after   13 cycles

 Excitation energies and oscillator strengths:

 Excited State   1:      Singlet-A      5.7534 eV  215.50 nm  f=0.2521  <S**2>=0.000
      13 -> 14         0.65523
      13 -> 15         0.21211
 This state for optimization and/or second-order correction.
 Total Energy, E(CIS) =   1.62834129662
 Copying the excited state density for this state as the 1-particle RhoCI density.

 Excited State   2:      Singlet-A      6.0411 eV  205.23 nm  f=0.0491  <S**2>=0.000
      11 -> 16         0.10041
      13 -> 14        -0.21823
      13 -> 15         0.62248
      13 -> 16         0.15982
      13 -> 17        -0.11542

 Excited State   3:      Singlet-A      6.1335 eV  202.14 nm  f=0.0037  <S**2>=0.000
      11 -> 15         0.11231
      13 -> 15        -0.14870
      13 -> 16         0.65214
      13 -> 21         0.14478

 Excited State   4:      Singlet-A      7.3574 eV  168.52 nm  f=0.0060  <S**2>=0.000
      12 -> 14        -0.24432
      13 -> 15         0.12998
      13 -> 17         0.63016

 Excited State   5:      Singlet-A      7.3879 eV  167.82 nm  f=0.0024  <S**2>=0.000
      11 -> 14        -0.24335
      12 -> 14         0.58403
      13 -> 17         0.25168
      13 -> 22        -0.11226

 Excited State   6:      Singlet-A      7.7660 eV  159.65 nm  f=0.0001  <S**2>=0.000
      13 -> 19         0.47182
      13 -> 21         0.16752
      13 -> 22         0.45330

 Excited State   7:      Singlet-A      8.1229 eV  152.64 nm  f=0.0092  <S**2>=0.000
      11 -> 14         0.35995
      12 -> 14         0.14415
      13 -> 18         0.57040

 Excited State   8:      Singlet-A      8.3242 eV  148.94 nm  f=0.0012  <S**2>=0.000
      10 -> 14        -0.17384
      11 -> 15         0.10568
      13 -> 19         0.46323
      13 -> 21        -0.37171
      13 -> 22        -0.27706

 Excited State   9:      Singlet-A      8.3711 eV  148.11 nm  f=0.0030  <S**2>=0.000
      10 -> 14         0.66698
      13 -> 19         0.13378
      13 -> 20         0.10595

 Excited State  10:      Singlet-A      8.6957 eV  142.58 nm  f=0.0023  <S**2>=0.000
      13 -> 19         0.17267
      13 -> 20         0.18304
      13 -> 21         0.53331
      13 -> 22        -0.36382

 Excited State  11:      Singlet-A      8.8777 eV  139.66 nm  f=0.0667  <S**2>=0.000
      11 -> 14        -0.11381
      11 -> 16         0.19741
      12 -> 16         0.11706
      13 -> 20         0.58526
      13 -> 22         0.19135
      13 -> 23        -0.11611

 Excited State  12:      Singlet-A      9.0490 eV  137.01 nm  f=0.1457  <S**2>=0.000
      11 -> 14         0.42499
      11 -> 15         0.24205
      12 -> 14         0.19818
      12 -> 15         0.21826
      13 -> 18        -0.31992
      13 -> 20         0.13382

 Excited State  13:      Singlet-A      9.2233 eV  134.43 nm  f=0.0669  <S**2>=0.000
      11 -> 14        -0.24607
      11 -> 15         0.52441
      12 -> 14        -0.10734
      12 -> 15         0.18301
      13 -> 16        -0.12394
      13 -> 18         0.21029
      13 -> 22         0.10065

 Excited State  14:      Singlet-A      9.3879 eV  132.07 nm  f=0.0458  <S**2>=0.000
       8 -> 15        -0.15911
      11 -> 16         0.27789
      12 -> 16         0.52123
      13 -> 15        -0.11444
      13 -> 20        -0.20193

 Excited State  15:      Singlet-A      9.5039 eV  130.46 nm  f=0.0771  <S**2>=0.000
       8 -> 15         0.16231
      10 -> 17         0.13329
      11 -> 16         0.54543
      12 -> 16        -0.23879
      12 -> 19        -0.10957
      13 -> 20        -0.13682

 The electronic state is 1-A.
 Alpha  occ. eigenvalues --   -1.88548  -1.18856  -0.95519  -0.78137  -0.76827
 Alpha  occ. eigenvalues --   -0.67028  -0.61803  -0.49140  -0.47679  -0.39669
 Alpha  occ. eigenvalues --   -0.37106  -0.36744  -0.23411
 Alpha virt. eigenvalues --    0.18053   0.21285   0.21954   0.28718   0.29244
 Alpha virt. eigenvalues --    0.30561   0.33874   0.34534   0.35883   0.40088
 Alpha virt. eigenvalues --    0.44812

 Mulliken charges:
               1
     1  C   -0.054318
     2  C   -1.517768
     3  O    2.757864
     4  C   -1.508549
     5  C   -0.089340
     6  H    0.058414
     7  H    0.141366
     8  H    0.154508
     9  H    0.057824
 Sum of Mulliken charges =   0.00000

 Dipole moment (field-independent basis, Debye):
    X=             -1.6813    Y=             -9.9322    Z=             -0.2927  Tot=             10.0778
 N-N= 1.033546455393D+02 E-N=-1.696495438816D+02  KE=-1.581656974664D+01
 Orbital energies and kinetic energies (alpha):
                                 1                 2
   1         O                -1.885483         -1.371091
   2         O                -1.188562         -1.072189
   3         O                -0.955190         -0.884927
   4         O                -0.781373         -0.620125
   5         O                -0.768269         -0.701704
   6         O                -0.670283         -0.614077
   7         O                -0.618027         -0.546542

 Normal termination of Gaussian 09 at Tue Dec 15 17:08:09 2015.
