 Gaussian 09, Revision D.01,
 Gaussian 09:  ES64L-G09RevD.01 24-Apr-2013

 ------------------------------------------------------------
 #P AM1(Input,print) CIS(Singlets,NStates=15) pop(full) force
 ------------------------------------------------------------

 -----------------
 AM1-Reparam Input
 -----------------
 Symbolic Z-matrix:
 Charge =  0 Multiplicity = 1

                         Standard orientation:
 ---------------------------------------------------------------------
 Center     Atomic      Atomic             Coordinates (Angstroms)
 Number     Number       Type             X           Y           Z
 ---------------------------------------------------------------------
      1          6           0        0.620232    1.021634   -0.011508
      2          6           0       -0.753987    0.813278   -0.000132
      3          8           0       -1.092145   -0.443872    0.008531
      4          6           0        0.103143   -1.113403   -0.010312
      5          6           0        1.170354   -0.257542    0.001872
      6          1           0        2.244777   -0.537404    0.008794
      7          1           0        0.078390   -2.216367    0.013477
      8          1           0       -1.523544    1.522542   -0.021462
      9          1           0        1.099085    1.998400    0.051417
 ---------------------------------------------------------------------

 SCF Done:  E(RAM1) =   2.81637651205     A.U. after   14 cycles

 Excitation energies and oscillator strengths:

 Excited State   1:      Singlet-A      5.5865 eV  221.93 nm  f=0.3249  <S**2>=0.000
      13 -> 14         0.69368
 This state for optimization and/or second-order correction.
 Total Energy, E(CIS) =   3.02167845571
 Copying the excited state density for this state as the 1-particle RhoCI density.

 Excited State   2:      Singlet-A      6.6138 eV  187.46 nm  f=0.0052  <S**2>=0.000
      11 -> 15         0.10413
      13 -> 15         0.64481
      13 -> 17         0.23409

 Excited State   3:      Singlet-A      6.9036 eV  179.59 nm  f=0.0008  <S**2>=0.000
      11 -> 16        -0.12776
      13 -> 16         0.64413
      13 -> 18         0.18353
      13 -> 19        -0.10475

 Excited State   4:      Singlet-A      7.0453 eV  175.98 nm  f=0.0004  <S**2>=0.000
       9 -> 14         0.13318
      12 -> 14         0.68898

 Excited State   5:      Singlet-A      7.7584 eV  159.81 nm  f=0.0064  <S**2>=0.000
      10 -> 14         0.67562
      11 -> 14        -0.14181
      13 -> 17        -0.10789

 Excited State   6:      Singlet-A      8.1499 eV  152.13 nm  f=0.0106  <S**2>=0.000
      10 -> 14         0.12291
      11 -> 15        -0.13043
      13 -> 15        -0.20068
      13 -> 17         0.62587
      13 -> 21        -0.11661

 Excited State   7:      Singlet-A      8.2191 eV  150.85 nm  f=0.0025  <S**2>=0.000
      11 -> 16         0.12174
      13 -> 16        -0.15027
      13 -> 17         0.13648
      13 -> 18         0.47336
      13 -> 21         0.44839

 Excited State   8:      Singlet-A      8.6018 eV  144.14 nm  f=0.0969  <S**2>=0.000
      10 -> 14         0.14137
      11 -> 14         0.67136

 Excited State   9:      Singlet-A      8.8369 eV  140.30 nm  f=0.0001  <S**2>=0.000
      13 -> 16         0.10316
      13 -> 18        -0.11119
      13 -> 19         0.62172
      13 -> 20        -0.11426
      13 -> 21         0.23880

 Excited State  10:      Singlet-A      9.1609 eV  135.34 nm  f=0.0000  <S**2>=0.000
      13 -> 18         0.45844
      13 -> 19         0.24164
      13 -> 20        -0.12167
      13 -> 21        -0.44669

 Excited State  11:      Singlet-A      9.3842 eV  132.12 nm  f=0.0139  <S**2>=0.000
       8 -> 15        -0.15766
       9 -> 15         0.11779
       9 -> 18        -0.10742
      10 -> 15         0.27844
      10 -> 16         0.13277
      10 -> 17         0.29800
      12 -> 15         0.17263
      12 -> 16        -0.26689
      12 -> 18        -0.22282
      12 -> 21        -0.14301
      13 -> 20         0.11249

 Excited State  12:      Singlet-A      9.5159 eV  130.29 nm  f=0.0859  <S**2>=0.000
      11 -> 15        -0.16844
      13 -> 19         0.13886
      13 -> 20         0.63520

 Excited State  13:      Singlet-A      9.6518 eV  128.46 nm  f=0.0515  <S**2>=0.000
       9 -> 15        -0.10937
      10 -> 15        -0.21141
      11 -> 15         0.40585
      12 -> 15         0.39592
      12 -> 17         0.14139
      13 -> 20         0.14043

 Excited State  14:      Singlet-A      9.7342 eV  127.37 nm  f=0.0193  <S**2>=0.000
      10 -> 15         0.27263
      11 -> 15         0.44981
      12 -> 15        -0.32339
      12 -> 17        -0.12858
      13 -> 15        -0.11066

 Excited State  15:      Singlet-A      9.9277 eV  124.89 nm  f=0.1340  <S**2>=0.000
       8 -> 16         0.13316
      10 -> 15         0.17402
      10 -> 16         0.13982
      12 -> 15         0.22156
      12 -> 16         0.54111
      12 -> 20         0.11904

 The electronic state is 1-A.
 Alpha  occ. eigenvalues --   -1.72568  -1.12365  -0.91458  -0.78909  -0.74617
 Alpha  occ. eigenvalues --   -0.66295  -0.63890  -0.52350  -0.48762  -0.42855
 Alpha  occ. eigenvalues --   -0.42100  -0.40441  -0.29221
 Alpha virt. eigenvalues --    0.12425   0.18330   0.19377   0.24762   0.27265
 Alpha virt. eigenvalues --    0.28317   0.29675   0.31566   0.39298   0.48657
 Alpha virt. eigenvalues --    0.51883

 Mulliken charges:
               1
     1  C   -0.149689
     2  C   -1.979816
     3  O    3.200323
     4  C   -1.958714
     5  C   -0.066399
     6  H    0.168515
     7  H    0.302067
     8  H    0.308731
     9  H    0.174982
 Sum of Mulliken charges =   0.00000

 Dipole moment (field-independent basis, Debye):
    X=             -9.4681    Y=             -3.8086    Z=              0.2481  Tot=             10.2084
 N-N= 1.041888541904D+02 E-N=-1.696314113585D+02  KE=-1.479691920755D+01
 Orbital energies and kinetic energies (alpha):
                                 1                 2
   1         O                -1.725685         -1.232744
   2         O                -1.123647         -1.001179
   3         O                -0.914578         -0.839287
   4         O                -0.789094         -0.596947
   5         O                -0.746167         -0.674772
   6         O                -0.662950         -0.572076
   7         O                -0.638897         -0.524862

 Normal termination of Gaussian 09 at Tue Dec 15 17:06:01 2015.
