 Gaussian 09, Revision D.01,
 Gaussian 09:  ES64L-G09RevD.01 24-Apr-2013

 ------------------------------------------------------------
 #P AM1(Input,print) CIS(Singlets,NStates=15) pop(full) force
 ------------------------------------------------------------

 -----------------
 AM1-Reparam Input
 -----------------
 Symbolic Z-matrix:
 Charge =  0 Multiplicity = 1

                         Standard orientation:
 ---------------------------------------------------------------------
 Center     Atomic      Atomic             Coordinates (Angstroms)
 Number     Number       Type             X           Y           Z
 ---------------------------------------------------------------------
      1          6           0       -0.585602    1.057473   -0.018000
      2          6           0       -1.120263   -0.201910    0.019622
      3          8           0       -0.163898   -1.148734   -0.002021
      4          6           0        1.014724   -0.518693   -0.021482
      5          6           0        0.875538    0.862879    0.004002
      6          1           0        1.588808    1.641524    0.066881
      7          1           0        1.873576   -1.106909    0.044213
      8          1           0       -2.169753   -0.487836    0.012103
      9          1           0       -1.087835    1.944592   -0.011880
 ---------------------------------------------------------------------

 SCF Done:  E(RAM1) =   2.60166105028     A.U. after   13 cycles

 Excitation energies and oscillator strengths:

 Excited State   1:      Singlet-A      4.9913 eV  248.40 nm  f=0.3702  <S**2>=0.000
      13 -> 14         0.69940
 This state for optimization and/or second-order correction.
 Total Energy, E(CIS) =   2.78508648031
 Copying the excited state density for this state as the 1-particle RhoCI density.

 Excited State   2:      Singlet-A      6.1834 eV  200.51 nm  f=0.0000  <S**2>=0.000
      13 -> 15         0.65473
      13 -> 17         0.18454
      13 -> 19        -0.12117

 Excited State   3:      Singlet-A      6.3991 eV  193.75 nm  f=0.0004  <S**2>=0.000
      12 -> 14         0.69734

 Excited State   4:      Singlet-A      6.5519 eV  189.23 nm  f=0.0055  <S**2>=0.000
      11 -> 15         0.10081
      13 -> 15         0.10178
      13 -> 16         0.67399
      13 -> 18        -0.12308

 Excited State   5:      Singlet-A      7.5505 eV  164.21 nm  f=0.0066  <S**2>=0.000
      10 -> 14         0.69280
      11 -> 14         0.10389

 Excited State   6:      Singlet-A      7.8081 eV  158.79 nm  f=0.0000  <S**2>=0.000
      11 -> 16        -0.10205
      13 -> 15        -0.16062
      13 -> 17         0.66168
      13 -> 21         0.11777

 Excited State   7:      Singlet-A      8.2949 eV  149.47 nm  f=0.1370  <S**2>=0.000
      10 -> 14        -0.10414
      11 -> 14         0.69180

 Excited State   8:      Singlet-A      9.2951 eV  133.39 nm  f=0.1133  <S**2>=0.000
       8 -> 16         0.11316
      10 -> 16        -0.17047
      10 -> 18         0.13700
      12 -> 15         0.53407
      12 -> 16        -0.10319
      12 -> 17         0.32563

 Excited State   9:      Singlet-A      9.3606 eV  132.45 nm  f=0.0078  <S**2>=0.000
       7 -> 16        -0.12897
      11 -> 15         0.37748
      13 -> 18         0.57185

 Excited State  10:      Singlet-A      9.5113 eV  130.35 nm  f=0.0004  <S**2>=0.000
       7 -> 15        -0.11779
      11 -> 16         0.33061
      13 -> 19         0.59802

 Excited State  11:      Singlet-A      9.9389 eV  124.75 nm  f=0.0845  <S**2>=0.000
      10 -> 15         0.29927
      10 -> 16         0.18619
      10 -> 18        -0.10336
      12 -> 15         0.29231
      12 -> 16         0.44774
      12 -> 17        -0.14097
      12 -> 18        -0.11679

 Excited State  12:      Singlet-A     10.0291 eV  123.62 nm  f=0.1498  <S**2>=0.000
      10 -> 16        -0.35479
      10 -> 18         0.15511
      11 -> 16        -0.10795
      12 -> 15        -0.24364
      12 -> 16         0.36611
      12 -> 17         0.24172
      12 -> 19         0.12609
      13 -> 19         0.11238

 Excited State  13:      Singlet-A     10.2203 eV  121.31 nm  f=0.0025  <S**2>=0.000
       7 -> 15        -0.10933
       9 -> 14         0.22608
      11 -> 15         0.23040
      11 -> 16         0.48963
      13 -> 15        -0.14824
      13 -> 18        -0.10546
      13 -> 19        -0.26313

 Excited State  14:      Singlet-A     10.2424 eV  121.05 nm  f=0.0108  <S**2>=0.000
       7 -> 16        -0.10293
      11 -> 15         0.50053
      11 -> 16        -0.20766
      13 -> 16        -0.14555
      13 -> 18        -0.35732

 Excited State  15:      Singlet-A     10.4186 eV  119.00 nm  f=0.0002  <S**2>=0.000
       9 -> 14         0.63875
      11 -> 16        -0.18331
      13 -> 19         0.15228

 The electronic state is 1-A.
 Alpha  occ. eigenvalues --   -1.84995  -1.11396  -0.87769  -0.80047  -0.74684
 Alpha  occ. eigenvalues --   -0.67555  -0.63231  -0.55769  -0.54842  -0.46419
 Alpha  occ. eigenvalues --   -0.45064  -0.42970  -0.30256
 Alpha virt. eigenvalues --    0.07729   0.16467   0.17246   0.24892   0.28293
 Alpha virt. eigenvalues --    0.29315   0.35269   0.39269   0.49690   0.57187
 Alpha virt. eigenvalues --    0.61441

 Mulliken charges:
               1
     1  C   -0.159004
     2  C   -2.016328
     3  O    3.426327
     4  C   -2.013646
     5  C   -0.164174
     6  H    0.181091
     7  H    0.275950
     8  H    0.291837
     9  H    0.177948
 Sum of Mulliken charges =   0.00000

 Dipole moment (field-independent basis, Debye):
    X=             -1.7403    Y=            -10.8627    Z=              0.1405  Tot=             11.0022
 N-N= 1.039743153881D+02 E-N=-1.694911645107D+02  KE=-1.435418973675D+01
 Orbital energies and kinetic energies (alpha):
                                 1                 2
   1         O                -1.849945         -1.258382
   2         O                -1.113962         -0.962001
   3         O                -0.877694         -0.786530
   4         O                -0.800475         -0.539260
   5         O                -0.746838         -0.629189
   6         O                -0.675553         -0.548518
   7         O                -0.632309         -0.488878

 Normal termination of Gaussian 09 at Tue Dec 15 17:07:42 2015.
