 Gaussian 09, Revision D.01,
 Gaussian 09:  ES64L-G09RevD.01 24-Apr-2013

 ------------------------------------------------------------
 #P AM1(Input,print) CIS(Singlets,NStates=15) pop(full) force
 ------------------------------------------------------------

 -----------------
 AM1-Reparam Input
 -----------------
 Symbolic Z-matrix:
 Charge =  0 Multiplicity = 1

                         Standard orientation:
 ---------------------------------------------------------------------
 Center     Atomic      Atomic             Coordinates (Angstroms)
 Number     Number       Type             X           Y           Z
 ---------------------------------------------------------------------
      1          6           0       -1.157311    0.290330   -0.028214
      2          6           0       -0.572330   -0.964085    0.039219
      3          8           0        0.763191   -0.880420   -0.007601
      4          6           0        1.032317    0.418708   -0.009386
      5          6           0       -0.081540    1.193798    0.014300
      6          1           0       -0.168388    2.210029    0.033333
      7          1           0        2.082468    0.696339   -0.010745
      8          1           0       -1.054420   -1.966954   -0.042835
      9          1           0       -2.292005    0.471443   -0.014456
 ---------------------------------------------------------------------

 SCF Done:  E(RAM1) =   1.69585175460     A.U. after   14 cycles

 Excitation energies and oscillator strengths:

 Excited State   1:      Singlet-A      5.5696 eV  222.61 nm  f=0.3298  <S**2>=0.000
      13 -> 14         0.69290
 This state for optimization and/or second-order correction.
 Total Energy, E(CIS) =   1.90052980524
 Copying the excited state density for this state as the 1-particle RhoCI density.

 Excited State   2:      Singlet-A      6.4115 eV  193.38 nm  f=0.0050  <S**2>=0.000
      11 -> 16        -0.11304
      13 -> 15         0.65247
      13 -> 17        -0.20934

 Excited State   3:      Singlet-A      6.6292 eV  187.03 nm  f=0.0002  <S**2>=0.000
      11 -> 15        -0.14061
      13 -> 16         0.64804
      13 -> 18        -0.10707
      13 -> 19         0.16161

 Excited State   4:      Singlet-A      7.2050 eV  172.08 nm  f=0.0004  <S**2>=0.000
      11 -> 14         0.13410
      12 -> 14         0.66237
      13 -> 21         0.14101

 Excited State   5:      Singlet-A      7.7274 eV  160.45 nm  f=0.0076  <S**2>=0.000
      10 -> 14        -0.12713
      12 -> 14         0.12922
      13 -> 15         0.13300
      13 -> 16         0.10734
      13 -> 17         0.50003
      13 -> 19        -0.15504
      13 -> 21        -0.38145

 Excited State   6:      Singlet-A      7.8646 eV  157.65 nm  f=0.0138  <S**2>=0.000
      10 -> 14        -0.12294
      13 -> 15         0.14176
      13 -> 17         0.39118
      13 -> 18         0.10228
      13 -> 19         0.18545
      13 -> 21         0.47816

 Excited State   7:      Singlet-A      8.1431 eV  152.26 nm  f=0.0031  <S**2>=0.000
      10 -> 14         0.67330
      13 -> 17         0.15963

 Excited State   8:      Singlet-A      8.4382 eV  146.93 nm  f=0.0039  <S**2>=0.000
      13 -> 16         0.13918
      13 -> 18         0.59110
      13 -> 19        -0.30369

 Excited State   9:      Singlet-A      8.6286 eV  143.69 nm  f=0.0816  <S**2>=0.000
      11 -> 14         0.62551
      12 -> 14        -0.13144
      13 -> 19         0.17407
      13 -> 21        -0.10764

 Excited State  10:      Singlet-A      8.6652 eV  143.08 nm  f=0.0367  <S**2>=0.000
      11 -> 14        -0.24384
      13 -> 18         0.30699
      13 -> 19         0.44485
      13 -> 20         0.22311
      13 -> 21        -0.27249

 Excited State  11:      Singlet-A      9.1728 eV  135.16 nm  f=0.0617  <S**2>=0.000
      13 -> 19        -0.25932
      13 -> 20         0.62223

 Excited State  12:      Singlet-A      9.3841 eV  132.12 nm  f=0.0273  <S**2>=0.000
       8 -> 15        -0.19759
      10 -> 15        -0.24691
      10 -> 16        -0.10123
      10 -> 17         0.27561
      12 -> 16         0.36489
      12 -> 18        -0.12772
      12 -> 21         0.21214
      13 -> 20         0.12687

 Excited State  13:      Singlet-A      9.4597 eV  131.07 nm  f=0.0022  <S**2>=0.000
       7 -> 16         0.10679
      11 -> 15         0.57456
      11 -> 17        -0.13142
      12 -> 15        -0.24895
      13 -> 16         0.18482

 Excited State  14:      Singlet-A      9.7846 eV  126.71 nm  f=0.0612  <S**2>=0.000
       7 -> 15         0.11214
       8 -> 16        -0.10259
      11 -> 16         0.50580
      12 -> 15         0.30960
      12 -> 16        -0.17139
      13 -> 15         0.13880

 Excited State  15:      Singlet-A      9.8366 eV  126.04 nm  f=0.1050  <S**2>=0.000
       8 -> 16        -0.15649
      11 -> 14        -0.10809
      11 -> 15         0.25490
      11 -> 16        -0.32761
      12 -> 15         0.40504
      12 -> 18        -0.12570

 The electronic state is 1-A.
 Alpha  occ. eigenvalues --   -1.92041  -1.22765  -0.98447  -0.82275  -0.79867
 Alpha  occ. eigenvalues --   -0.68523  -0.63840  -0.53225  -0.51652  -0.43513
 Alpha  occ. eigenvalues --   -0.41709  -0.40851  -0.28496
 Alpha virt. eigenvalues --    0.13078   0.17747   0.18467   0.24610   0.26695
 Alpha virt. eigenvalues --    0.28128   0.29709   0.30038   0.38782   0.47892
 Alpha virt. eigenvalues --    0.52151

 Mulliken charges:
               1
     1  C   -0.108746
     2  C   -1.964336
     3  O    3.172804
     4  C   -1.945985
     5  C   -0.114899
     6  H    0.174588
     7  H    0.304715
     8  H    0.310170
     9  H    0.171690
 Sum of Mulliken charges =   0.00000

 Dipole moment (field-independent basis, Debye):
    X=              6.5543    Y=             -7.6445    Z=             -0.4434  Tot=             10.0794
 N-N= 1.042424512081D+02 E-N=-1.699868489244D+02  KE=-1.576225054376D+01
 Orbital energies and kinetic energies (alpha):
                                 1                 2
   1         O                -1.920406         -1.404377
   2         O                -1.227652         -1.111516
   3         O                -0.984470         -0.904636
   4         O                -0.822749         -0.641476
   5         O                -0.798672         -0.683834
   6         O                -0.685231         -0.589116
   7         O                -0.638403         -0.518192

 Normal termination of Gaussian 09 at Tue Dec 15 17:06:51 2015.
