 Gaussian 09, Revision D.01,
 Gaussian 09:  ES64L-G09RevD.01 24-Apr-2013

 ------------------------------------------------------------
 #P AM1(Input,print) CIS(Singlets,NStates=15) pop(full) force
 ------------------------------------------------------------

 -----------------
 AM1-Reparam Input
 -----------------
 Symbolic Z-matrix:
 Charge =  0 Multiplicity = 1

                         Standard orientation:
 ---------------------------------------------------------------------
 Center     Atomic      Atomic             Coordinates (Angstroms)
 Number     Number       Type             X           Y           Z
 ---------------------------------------------------------------------
      1          6           0        0.233851    1.154702    0.003250
      2          6           0        1.135344    0.102583   -0.003083
      3          8           0        0.513178   -1.038706   -0.012188
      4          6           0       -0.894355   -0.752286    0.020260
      5          6           0       -1.039467    0.578183   -0.021205
      6          1           0       -1.994764    1.099424   -0.005095
      7          1           0       -1.506241   -1.562490    0.034581
      8          1           0        2.247521    0.079366    0.026829
      9          1           0        0.535823    2.194256    0.045854
 ---------------------------------------------------------------------

 SCF Done:  E(RAM1) =   1.10456008029     A.U. after   14 cycles

 Excitation energies and oscillator strengths:

 Excited State   1:      Singlet-A      5.6019 eV  221.33 nm  f=0.1906  <S**2>=0.000
      12 -> 16        -0.13626
      13 -> 14         0.67848
 This state for optimization and/or second-order correction.
 Total Energy, E(CIS) =   1.31042570781
 Copying the excited state density for this state as the 1-particle RhoCI density.

 Excited State   2:      Singlet-A      6.2538 eV  198.25 nm  f=0.0038  <S**2>=0.000
      13 -> 15         0.66088
      13 -> 17         0.12778
      13 -> 18        -0.12869

 Excited State   3:      Singlet-A      6.9324 eV  178.85 nm  f=0.0199  <S**2>=0.000
      12 -> 14         0.34011
      13 -> 16         0.59622

 Excited State   4:      Singlet-A      7.2298 eV  171.49 nm  f=0.0010  <S**2>=0.000
      13 -> 17         0.65177
      13 -> 18         0.13951
      13 -> 21         0.13255

 Excited State   5:      Singlet-A      7.5129 eV  165.03 nm  f=0.0023  <S**2>=0.000
       9 -> 14        -0.18198
      11 -> 14         0.66490
      12 -> 14         0.10384

 Excited State   6:      Singlet-A      7.8362 eV  158.22 nm  f=0.0025  <S**2>=0.000
      10 -> 14         0.67424
      11 -> 16         0.13963

 Excited State   7:      Singlet-A      8.0602 eV  153.82 nm  f=0.1987  <S**2>=0.000
      11 -> 14        -0.11259
      11 -> 15         0.11021
      12 -> 14         0.57624
      13 -> 16        -0.29914

 Excited State   8:      Singlet-A      8.2604 eV  150.09 nm  f=0.0032  <S**2>=0.000
      12 -> 15        -0.37355
      12 -> 17        -0.11669
      13 -> 18         0.40977
      13 -> 19         0.33735
      13 -> 20        -0.12849
      13 -> 24         0.14265

 Excited State   9:      Singlet-A      8.4548 eV  146.64 nm  f=0.0102  <S**2>=0.000
      11 -> 16        -0.15685
      12 -> 15         0.50865
      13 -> 17        -0.12104
      13 -> 18         0.23198
      13 -> 19         0.28815
      13 -> 24         0.10447

 Excited State  10:      Singlet-A      8.5000 eV  145.86 nm  f=0.0179  <S**2>=0.000
       9 -> 16         0.21392
      10 -> 14        -0.13892
      11 -> 15        -0.17870
      11 -> 16         0.56124
      12 -> 15         0.14262
      12 -> 16         0.15173

 Excited State  11:      Singlet-A      8.5505 eV  145.00 nm  f=0.0011  <S**2>=0.000
      12 -> 15        -0.11298
      13 -> 20         0.65032
      13 -> 21         0.11658

 Excited State  12:      Singlet-A      8.8915 eV  139.44 nm  f=0.1744  <S**2>=0.000
       9 -> 15        -0.20838
      10 -> 15         0.15070
      11 -> 15        -0.11249
      11 -> 16        -0.17976
      12 -> 16         0.55746
      13 -> 14         0.12104

 Excited State  13:      Singlet-A      9.0423 eV  137.12 nm  f=0.0235  <S**2>=0.000
       9 -> 15         0.12283
      10 -> 15        -0.23202
      11 -> 15         0.32919
      12 -> 16         0.19560
      12 -> 17        -0.23869
      13 -> 15        -0.10247
      13 -> 18        -0.27919
      13 -> 19         0.27749

 Excited State  14:      Singlet-A      9.0841 eV  136.48 nm  f=0.0335  <S**2>=0.000
       9 -> 15        -0.10091
      10 -> 15         0.21898
      11 -> 15        -0.29125
      12 -> 16        -0.21971
      12 -> 17        -0.24440
      13 -> 18        -0.28732
      13 -> 19         0.30470

 Excited State  15:      Singlet-A      9.4743 eV  130.86 nm  f=0.0028  <S**2>=0.000
       9 -> 14        -0.25286
      12 -> 17         0.43887
      13 -> 19         0.20578
      13 -> 20         0.10209
      13 -> 21        -0.37605

 The electronic state is 1-A.
 Alpha  occ. eigenvalues --   -1.82911  -1.19910  -0.98804  -0.87317  -0.81138
 Alpha  occ. eigenvalues --   -0.73935  -0.71756  -0.61148  -0.56031  -0.51399
 Alpha  occ. eigenvalues --   -0.49832  -0.47513  -0.38407
 Alpha virt. eigenvalues --    0.03976   0.08546   0.09515   0.12984   0.18053
 Alpha virt. eigenvalues --    0.18965   0.19548   0.22315   0.26829   0.27306
 Alpha virt. eigenvalues --    0.27730

 Mulliken charges:
               1
     1  C   -0.208027
     2  C   -1.253920
     3  O    2.141401
     4  C   -1.250373
     5  C   -0.052677
     6  H    0.110474
     7  H    0.175158
     8  H    0.219915
     9  H    0.118050
 Sum of Mulliken charges =   0.00000

 Dipole moment (field-independent basis, Debye):
    X=              3.6783    Y=             -6.2190    Z=             -0.1055  Tot=              7.2261
 N-N= 1.044249153650D+02 E-N=-1.712432912290D+02  KE=-1.499538841533D+01
 Orbital energies and kinetic energies (alpha):
                                 1                 2
   1         O                -1.829110         -1.241051
   2         O                -1.199100         -0.976301
   3         O                -0.988038         -0.817629
   4         O                -0.873173         -0.627272
   5         O                -0.811378         -0.672306
   6         O                -0.739349         -0.593985
   7         O                -0.717564         -0.512871

 Normal termination of Gaussian 09 at Tue Dec 15 17:05:33 2015.
