 Gaussian 09, Revision D.01,
 Gaussian 09:  ES64L-G09RevD.01 24-Apr-2013

 ------------------------------------------------------------
 #P AM1(Input,print) CIS(Singlets,NStates=15) pop(full) force
 ------------------------------------------------------------

 -----------------
 AM1-Reparam Input
 -----------------
 Symbolic Z-matrix:
 Charge =  0 Multiplicity = 1

                         Standard orientation:
 ---------------------------------------------------------------------
 Center     Atomic      Atomic             Coordinates (Angstroms)
 Number     Number       Type             X           Y           Z
 ---------------------------------------------------------------------
      1          6           0        0.406120    1.091959    0.018226
      2          6           0        1.107284   -0.035841   -0.014882
      3          8           0        0.368895   -1.105081    0.022608
      4          6           0       -1.010431   -0.604028   -0.009463
      5          6           0       -0.913724    0.696158   -0.028902
      6          1           0       -1.827221    1.383583    0.078202
      7          1           0       -1.730922   -1.319018   -0.010736
      8          1           0        2.231231   -0.249486   -0.051530
      9          1           0        0.840253    2.136077    0.013329
 ---------------------------------------------------------------------

 SCF Done:  E(RAM1) =   1.79063686447     A.U. after   14 cycles

 Excitation energies and oscillator strengths:

 Excited State   1:      Singlet-A      5.5512 eV  223.35 nm  f=0.3285  <S**2>=0.000
      13 -> 14         0.69035
 This state for optimization and/or second-order correction.
 Total Energy, E(CIS) =   1.99463927745
 Copying the excited state density for this state as the 1-particle RhoCI density.

 Excited State   2:      Singlet-A      6.2175 eV  199.41 nm  f=0.0026  <S**2>=0.000
      10 -> 15         0.10786
      13 -> 15         0.68506

 Excited State   3:      Singlet-A      7.0533 eV  175.78 nm  f=0.0016  <S**2>=0.000
      12 -> 14         0.69968

 Excited State   4:      Singlet-A      7.7525 eV  159.93 nm  f=0.0046  <S**2>=0.000
      11 -> 14         0.23886
      13 -> 16         0.62850

 Excited State   5:      Singlet-A      7.9074 eV  156.79 nm  f=0.0035  <S**2>=0.000
      11 -> 14         0.65506
      13 -> 16        -0.23484

 Excited State   6:      Singlet-A      8.6147 eV  143.92 nm  f=0.0061  <S**2>=0.000
      13 -> 17         0.61248
      13 -> 18        -0.19320
      13 -> 19         0.20155
      13 -> 22         0.13521

 Excited State   7:      Singlet-A      8.9574 eV  138.42 nm  f=0.0014  <S**2>=0.000
      13 -> 16         0.10178
      13 -> 17         0.22909
      13 -> 18         0.62583
      13 -> 22        -0.17754

 Excited State   8:      Singlet-A      9.3399 eV  132.75 nm  f=0.0115  <S**2>=0.000
       9 -> 15         0.13521
      11 -> 15        -0.21768
      11 -> 16         0.11192
      11 -> 18        -0.10499
      12 -> 15         0.57534
      12 -> 17        -0.15474

 Excited State   9:      Singlet-A      9.4809 eV  130.77 nm  f=0.0576  <S**2>=0.000
      10 -> 14         0.52522
      11 -> 15        -0.25874
      11 -> 16        -0.13291
      11 -> 17         0.10344
      12 -> 17         0.21764
      12 -> 18        -0.16059
      13 -> 20        -0.11841

 Excited State  10:      Singlet-A      9.6662 eV  128.27 nm  f=0.0032  <S**2>=0.000
      13 -> 17        -0.19810
      13 -> 18         0.13996
      13 -> 19         0.62721

 Excited State  11:      Singlet-A      9.8793 eV  125.50 nm  f=0.0962  <S**2>=0.000
       9 -> 15         0.16711
      10 -> 14         0.30348
      11 -> 15         0.52828
      11 -> 17        -0.15767
      11 -> 18        -0.11566
      13 -> 20        -0.15080

 Excited State  12:      Singlet-A     10.3208 eV  120.13 nm  f=0.2273  <S**2>=0.000
       9 -> 15         0.10781
      10 -> 14        -0.22789
      11 -> 15         0.17006
      11 -> 16        -0.17096
      11 -> 19        -0.16614
      12 -> 15         0.18537
      12 -> 16        -0.28600
      12 -> 17         0.30203
      12 -> 18        -0.27827
      12 -> 19        -0.15081

 Excited State  13:      Singlet-A     10.5118 eV  117.95 nm  f=0.0472  <S**2>=0.000
      10 -> 15         0.45100
      13 -> 19         0.11093
      13 -> 20        -0.14710
      13 -> 21         0.39938
      13 -> 22        -0.24298

 Excited State  14:      Singlet-A     10.5188 eV  117.87 nm  f=0.0144  <S**2>=0.000
       7 -> 15        -0.10878
      10 -> 15         0.46057
      13 -> 15        -0.10266
      13 -> 18         0.12513
      13 -> 19        -0.15859
      13 -> 21        -0.29767
      13 -> 22         0.31757

 Excited State  15:      Singlet-A     10.5900 eV  117.08 nm  f=0.0843  <S**2>=0.000
      10 -> 14        -0.16048
      10 -> 15        -0.10659
      12 -> 15         0.12992
      12 -> 16         0.59222
      12 -> 17         0.10012
      12 -> 18        -0.15401
      12 -> 21        -0.14113

 The electronic state is 1-A.
 Alpha  occ. eigenvalues --   -1.91466  -1.19465  -0.92764  -0.81313  -0.78301
 Alpha  occ. eigenvalues --   -0.69505  -0.68488  -0.56493  -0.53888  -0.46615
 Alpha  occ. eigenvalues --   -0.42440  -0.39768  -0.29181
 Alpha virt. eigenvalues --    0.12879   0.15513   0.23214   0.27034   0.28836
 Alpha virt. eigenvalues --    0.31119   0.32859   0.34442   0.37512   0.41689
 Alpha virt. eigenvalues --    0.44900

 Mulliken charges:
               1
     1  C   -0.289798
     2  C   -2.015902
     3  O    3.291483
     4  C   -1.979210
     5  C   -0.070039
     6  H    0.196345
     7  H    0.307830
     8  H    0.344558
     9  H    0.214733
 Sum of Mulliken charges =   0.00000

 Dipole moment (field-independent basis, Debye):
    X=              4.4168    Y=            -10.5495    Z=              0.4547  Tot=             11.4458
 N-N= 1.041597103422D+02 E-N=-1.698224084678D+02  KE=-1.552197716261D+01
 Orbital energies and kinetic energies (alpha):
                                 1                 2
   1         O                -1.914658         -1.368107
   2         O                -1.194650         -1.067648
   3         O                -0.927643         -0.898529
   4         O                -0.813130         -0.556667
   5         O                -0.783007         -0.693323
   6         O                -0.695053         -0.577295
   7         O                -0.684884         -0.547060

 Normal termination of Gaussian 09 at Tue Dec 15 17:09:40 2015.
