 Gaussian 09, Revision D.01,
 Gaussian 09:  ES64L-G09RevD.01 24-Apr-2013

 ------------------------------------------------------------
 #P AM1(Input,print) CIS(Singlets,NStates=15) pop(full) force
 ------------------------------------------------------------

 -----------------
 AM1-Reparam Input
 -----------------
 Symbolic Z-matrix:
 Charge =  0 Multiplicity = 1

                         Standard orientation:
 ---------------------------------------------------------------------
 Center     Atomic      Atomic             Coordinates (Angstroms)
 Number     Number       Type             X           Y           Z
 ---------------------------------------------------------------------
      1          6           0       -0.743460    0.905586    0.007329
      2          6           0       -1.067291   -0.314285    0.004573
      3          8           0        0.009564   -1.178529    0.003626
      4          6           0        1.093313   -0.336497   -0.019341
      5          6           0        0.704809    0.997165   -0.017738
      6          1           0        1.398201    1.779010    0.077998
      7          1           0        2.038640   -0.796708    0.062001
      8          1           0       -2.043865   -0.840370   -0.004796
      9          1           0       -1.393711    1.774489   -0.013147
 ---------------------------------------------------------------------

 SCF Done:  E(RAM1) =   2.09599317705     A.U. after   14 cycles

 Excitation energies and oscillator strengths:

 Excited State   1:      Singlet-A      5.2178 eV  237.62 nm  f=0.3431  <S**2>=0.000
      13 -> 14         0.69520
 This state for optimization and/or second-order correction.
 Total Energy, E(CIS) =   2.28774410467
 Copying the excited state density for this state as the 1-particle RhoCI density.

 Excited State   2:      Singlet-A      6.4530 eV  192.13 nm  f=0.0018  <S**2>=0.000
      13 -> 15         0.64573
      13 -> 16        -0.12491
      13 -> 18         0.22383

 Excited State   3:      Singlet-A      6.6038 eV  187.75 nm  f=0.0083  <S**2>=0.000
      13 -> 15         0.15343
      13 -> 16         0.62388
      13 -> 17         0.24127
      13 -> 18        -0.11768

 Excited State   4:      Singlet-A      6.6863 eV  185.43 nm  f=0.0010  <S**2>=0.000
      12 -> 14         0.69882

 Excited State   5:      Singlet-A      7.7738 eV  159.49 nm  f=0.0007  <S**2>=0.000
      10 -> 14        -0.10128
      11 -> 14        -0.34774
      13 -> 16         0.15731
      13 -> 17        -0.10928
      13 -> 18         0.35347
      13 -> 19         0.35354
      13 -> 20         0.24705

 Excited State   6:      Singlet-A      7.8389 eV  158.17 nm  f=0.0095  <S**2>=0.000
      10 -> 14         0.17041
      11 -> 14         0.57169
      13 -> 18         0.25440
      13 -> 19         0.18936
      13 -> 20         0.14761

 Excited State   7:      Singlet-A      8.3947 eV  147.69 nm  f=0.0229  <S**2>=0.000
      13 -> 15        -0.13104
      13 -> 16        -0.13117
      13 -> 17         0.60148
      13 -> 18         0.25870
      13 -> 19        -0.10534

 Excited State   8:      Singlet-A      8.7640 eV  141.47 nm  f=0.0024  <S**2>=0.000
      13 -> 16        -0.15423
      13 -> 17         0.21240
      13 -> 18        -0.37473
      13 -> 19         0.49693

 Excited State   9:      Singlet-A      8.8080 eV  140.76 nm  f=0.0738  <S**2>=0.000
      10 -> 14         0.62591
      11 -> 14        -0.18686
      12 -> 15        -0.14700

 Excited State  10:      Singlet-A      9.4094 eV  131.77 nm  f=0.1477  <S**2>=0.000
       8 -> 15        -0.12048
      10 -> 14         0.18909
      11 -> 15        -0.11182
      11 -> 17        -0.13761
      12 -> 15         0.38941
      12 -> 16        -0.30303
      12 -> 17        -0.11935
      12 -> 18         0.25361
      12 -> 19         0.16666

 Excited State  11:      Singlet-A      9.4992 eV  130.52 nm  f=0.0052  <S**2>=0.000
      13 -> 18        -0.16816
      13 -> 19        -0.24845
      13 -> 20         0.62802

 Excited State  12:      Singlet-A      9.7434 eV  127.25 nm  f=0.0831  <S**2>=0.000
      11 -> 15         0.18496
      11 -> 17         0.11709
      11 -> 18         0.12389
      12 -> 15         0.50893
      12 -> 16         0.22490
      12 -> 17         0.18843
      12 -> 19        -0.14115

 Excited State  13:      Singlet-A      9.8448 eV  125.94 nm  f=0.0668  <S**2>=0.000
      13 -> 19         0.10167
      13 -> 21         0.68041

 Excited State  14:      Singlet-A     10.2364 eV  121.12 nm  f=0.1118  <S**2>=0.000
      11 -> 16         0.50648
      11 -> 17         0.21076
      12 -> 16        -0.32667
      12 -> 17        -0.14047
      12 -> 19        -0.12833

 Excited State  15:      Singlet-A     10.3201 eV  120.14 nm  f=0.0493  <S**2>=0.000
       9 -> 16        -0.13578
      10 -> 15        -0.28579
      10 -> 16        -0.27922
      11 -> 16         0.12608
      11 -> 19         0.14338
      12 -> 16         0.30805
      12 -> 19         0.29890

 The electronic state is 1-A.
 Alpha  occ. eigenvalues --   -1.93650  -1.20543  -0.95840  -0.82056  -0.78519
 Alpha  occ. eigenvalues --   -0.69003  -0.64842  -0.53513  -0.53100  -0.43852
 Alpha  occ. eigenvalues --   -0.43284  -0.39857  -0.27716
 Alpha virt. eigenvalues --    0.11921   0.18610   0.20515   0.26742   0.28260
 Alpha virt. eigenvalues --    0.29860   0.31750   0.32418   0.34652   0.44157
 Alpha virt. eigenvalues --    0.47547

 Mulliken charges:
               1
     1  C   -0.190524
     2  C   -1.950092
     3  O    3.171210
     4  C   -2.007387
     5  C   -0.244117
     6  H    0.250561
     7  H    0.358388
     8  H    0.362027
     9  H    0.249934
 Sum of Mulliken charges =   0.00000

 Dipole moment (field-independent basis, Debye):
    X=             -0.5414    Y=            -11.0962    Z=              0.3954  Tot=             11.1164
 N-N= 1.044780207887D+02 E-N=-1.699449468613D+02  KE=-1.550363313879D+01
 Orbital energies and kinetic energies (alpha):
                                 1                 2
   1         O                -1.936502         -1.377004
   2         O                -1.205425         -1.079106
   3         O                -0.958400         -0.889802
   4         O                -0.820558         -0.592257
   5         O                -0.785189         -0.671146
   6         O                -0.690026         -0.567096
   7         O                -0.648422         -0.525039

 Normal termination of Gaussian 09 at Tue Dec 15 17:07:12 2015.
