 Gaussian 09, Revision D.01,
 Gaussian 09:  ES64L-G09RevD.01 24-Apr-2013

 ------------------------------------------------------------
 #P AM1(Input,print) CIS(Singlets,NStates=15) pop(full) force
 ------------------------------------------------------------

 -----------------
 AM1-Reparam Input
 -----------------
 Symbolic Z-matrix:
 Charge =  0 Multiplicity = 1

                         Standard orientation:
 ---------------------------------------------------------------------
 Center     Atomic      Atomic             Coordinates (Angstroms)
 Number     Number       Type             X           Y           Z
 ---------------------------------------------------------------------
      1          6           0        0.559627    1.015389   -0.006607
      2          6           0        1.137285   -0.187972   -0.011430
      3          8           0        0.185658   -1.112927   -0.013445
      4          6           0       -1.030920   -0.500435    0.009945
      5          6           0       -0.857226    0.843068    0.026187
      6          1           0       -1.665486    1.532788   -0.070999
      7          1           0       -1.887181   -1.162659   -0.006423
      8          1           0        2.129413   -0.494770    0.098703
      9          1           0        1.085399    2.007760   -0.022291
 ---------------------------------------------------------------------

 SCF Done:  E(RAM1) =   2.59561080496     A.U. after   13 cycles

 Excitation energies and oscillator strengths:

 Excited State   1:      Singlet-A      5.0648 eV  244.80 nm  f=0.3527  <S**2>=0.000
      13 -> 14         0.69815
 This state for optimization and/or second-order correction.
 Total Energy, E(CIS) =   2.78173920589
 Copying the excited state density for this state as the 1-particle RhoCI density.

 Excited State   2:      Singlet-A      6.2641 eV  197.93 nm  f=0.0005  <S**2>=0.000
      13 -> 15         0.66798
      13 -> 17         0.12655
      13 -> 19        -0.14733

 Excited State   3:      Singlet-A      6.5012 eV  190.71 nm  f=0.0056  <S**2>=0.000
      12 -> 14         0.35042
      13 -> 16         0.59084
      13 -> 18        -0.10105

 Excited State   4:      Singlet-A      6.5579 eV  189.06 nm  f=0.0006  <S**2>=0.000
      12 -> 14         0.60171
      13 -> 16        -0.33790

 Excited State   5:      Singlet-A      7.3554 eV  168.56 nm  f=0.0051  <S**2>=0.000
      10 -> 14        -0.25200
      11 -> 14         0.64954

 Excited State   6:      Singlet-A      7.8078 eV  158.80 nm  f=0.0002  <S**2>=0.000
      13 -> 15        -0.12466
      13 -> 17         0.66862
      13 -> 21        -0.12166

 Excited State   7:      Singlet-A      8.4993 eV  145.88 nm  f=0.1240  <S**2>=0.000
      10 -> 14         0.65060
      11 -> 14         0.25173

 Excited State   8:      Singlet-A      9.2359 eV  134.24 nm  f=0.0069  <S**2>=0.000
       7 -> 16        -0.10353
      10 -> 15         0.26159
      11 -> 15         0.12436
      12 -> 15        -0.19942
      12 -> 17        -0.10654
      13 -> 18         0.56790

 Excited State   9:      Singlet-A      9.3395 eV  132.75 nm  f=0.0156  <S**2>=0.000
       8 -> 16        -0.10398
       9 -> 15         0.11680
      10 -> 16        -0.10058
      11 -> 15         0.11635
      11 -> 16         0.19760
      11 -> 18        -0.16629
      12 -> 15         0.40577
      12 -> 16        -0.13166
      12 -> 17         0.32744
      13 -> 18         0.22894

 Excited State  10:      Singlet-A      9.4767 eV  130.83 nm  f=0.0312  <S**2>=0.000
       7 -> 15        -0.10937
      10 -> 16         0.21525
      11 -> 16         0.20914
      12 -> 15        -0.14555
      12 -> 16        -0.12473
      13 -> 19         0.57557

 Excited State  11:      Singlet-A      9.5794 eV  129.43 nm  f=0.2072  <S**2>=0.000
      10 -> 16         0.15762
      11 -> 15        -0.10578
      11 -> 16        -0.16865
      12 -> 15         0.41347
      12 -> 16         0.35514
      12 -> 17        -0.16856
      12 -> 19        -0.11157
      13 -> 19         0.20971

 Excited State  12:      Singlet-A      9.9102 eV  125.11 nm  f=0.1250  <S**2>=0.000
      10 -> 15        -0.11313
      11 -> 15         0.39340
      11 -> 16        -0.34233
      11 -> 19        -0.11662
      12 -> 15         0.14800
      12 -> 16        -0.33647
      12 -> 17        -0.10659

 Excited State  13:      Singlet-A     10.2778 eV  120.63 nm  f=0.0152  <S**2>=0.000
       8 -> 15         0.14017
       9 -> 14        -0.21648
       9 -> 16        -0.10978
      10 -> 15         0.14771
      10 -> 16         0.38772
      11 -> 16         0.16130
      11 -> 17         0.10129
      12 -> 16        -0.23818
      12 -> 17        -0.18233
      13 -> 15        -0.12057
      13 -> 19        -0.20793

 Excited State  14:      Singlet-A     10.3220 eV  120.12 nm  f=0.0043  <S**2>=0.000
       7 -> 16        -0.11012
      10 -> 15         0.50973
      11 -> 15         0.24599
      12 -> 16         0.13332
      12 -> 17         0.13513
      13 -> 16        -0.13502
      13 -> 18        -0.28565

 Excited State  15:      Singlet-A     10.3823 eV  119.42 nm  f=0.0137  <S**2>=0.000
       8 -> 15         0.14515
       9 -> 14         0.33721
       9 -> 16        -0.14329
      10 -> 15         0.20489
      10 -> 16        -0.28719
      11 -> 15        -0.14118
      11 -> 17         0.12327
      11 -> 19         0.11243
      12 -> 16        -0.18471
      12 -> 17        -0.24093

 The electronic state is 1-A.
 Alpha  occ. eigenvalues --   -1.85953  -1.13108  -0.89323  -0.80239  -0.74789
 Alpha  occ. eigenvalues --   -0.67025  -0.64410  -0.56855  -0.55002  -0.45700
 Alpha  occ. eigenvalues --   -0.44939  -0.42795  -0.30451
 Alpha virt. eigenvalues --    0.08276   0.16485   0.17066   0.24545   0.27381
 Alpha virt. eigenvalues --    0.29094   0.35219   0.39480   0.49371   0.56627
 Alpha virt. eigenvalues --    0.61315

 Mulliken charges:
               1
     1  C   -0.221954
     2  C   -2.006149
     3  O    3.434505
     4  C   -1.994510
     5  C   -0.167932
     6  H    0.192815
     7  H    0.272806
     8  H    0.281770
     9  H    0.208648
 Sum of Mulliken charges =   0.00000

 Dipole moment (field-independent basis, Debye):
    X=              1.7980    Y=            -10.6478    Z=             -0.1060  Tot=             10.7990
 N-N= 1.044505818476D+02 E-N=-1.703117071588D+02  KE=-1.438642603075D+01
 Orbital energies and kinetic energies (alpha):
                                 1                 2
   1         O                -1.859530         -1.271164
   2         O                -1.131084         -0.959921
   3         O                -0.893226         -0.794889
   4         O                -0.802393         -0.537530
   5         O                -0.747894         -0.634150
   6         O                -0.670254         -0.533284
   7         O                -0.644096         -0.499767

 Normal termination of Gaussian 09 at Tue Dec 15 17:07:38 2015.
