 Gaussian 09, Revision D.01,
 Gaussian 09:  ES64L-G09RevD.01 24-Apr-2013

 ------------------------------------------------------------
 #P AM1(Input,print) CIS(Singlets,NStates=15) pop(full) force
 ------------------------------------------------------------

 -----------------
 AM1-Reparam Input
 -----------------
 Symbolic Z-matrix:
 Charge =  0 Multiplicity = 1

                         Standard orientation:
 ---------------------------------------------------------------------
 Center     Atomic      Atomic             Coordinates (Angstroms)
 Number     Number       Type             X           Y           Z
 ---------------------------------------------------------------------
      1          6           0       -0.635852    0.987878    0.013521
      2          6           0       -1.130008   -0.288040    0.007647
      3          8           0       -0.073227   -1.147976    0.000258
      4          6           0        1.100177   -0.403273   -0.007055
      5          6           0        0.726460    0.910716   -0.029787
      6          1           0        1.488692    1.726728    0.064265
      7          1           0        2.010116   -0.945801    0.059112
      8          1           0       -2.049912   -0.717208   -0.032770
      9          1           0       -1.227742    1.876404    0.001369
 ---------------------------------------------------------------------

 SCF Done:  E(RAM1) =   2.59227338951     A.U. after   13 cycles

 Excitation energies and oscillator strengths:

 Excited State   1:      Singlet-A      5.3349 eV  232.40 nm  f=0.3346  <S**2>=0.000
      13 -> 14         0.69574
 This state for optimization and/or second-order correction.
 Total Energy, E(CIS) =   2.78832711716
 Copying the excited state density for this state as the 1-particle RhoCI density.

 Excited State   2:      Singlet-A      6.6333 eV  186.91 nm  f=0.0008  <S**2>=0.000
      13 -> 15         0.65372
      13 -> 16        -0.14338
      13 -> 17        -0.10161
      13 -> 19         0.14111

 Excited State   3:      Singlet-A      6.7624 eV  183.34 nm  f=0.0064  <S**2>=0.000
      12 -> 14        -0.20665
      13 -> 15         0.15079
      13 -> 16         0.62878
      13 -> 18        -0.10326

 Excited State   4:      Singlet-A      6.8791 eV  180.23 nm  f=0.0013  <S**2>=0.000
      11 -> 14         0.26406
      12 -> 14         0.62115
      13 -> 16         0.16344

 Excited State   5:      Singlet-A      7.2186 eV  171.76 nm  f=0.0040  <S**2>=0.000
      10 -> 14        -0.13041
      11 -> 14         0.62706
      12 -> 14        -0.24346
      13 -> 16        -0.14801

 Excited State   6:      Singlet-A      8.1317 eV  152.47 nm  f=0.0002  <S**2>=0.000
      13 -> 17         0.67162
      13 -> 21        -0.12325

 Excited State   7:      Singlet-A      8.5389 eV  145.20 nm  f=0.1107  <S**2>=0.000
      10 -> 14         0.68354
      11 -> 14         0.14606

 Excited State   8:      Singlet-A      9.3324 eV  132.85 nm  f=0.0750  <S**2>=0.000
       9 -> 15        -0.11320
      10 -> 15        -0.14371
      11 -> 16         0.37959
      11 -> 17         0.10185
      11 -> 18        -0.18374
      12 -> 15        -0.24699
      12 -> 16        -0.15340
      12 -> 17         0.29575
      13 -> 18        -0.22612

 Excited State   9:      Singlet-A      9.4491 eV  131.21 nm  f=0.0239  <S**2>=0.000
       7 -> 16        -0.11420
      10 -> 15         0.26325
      10 -> 16        -0.22004
      11 -> 15         0.14681
      11 -> 16         0.10371
      11 -> 18        -0.10015
      12 -> 15        -0.10387
      12 -> 17         0.14960
      13 -> 18         0.51646

 Excited State  10:      Singlet-A      9.7282 eV  127.45 nm  f=0.0580  <S**2>=0.000
       7 -> 15         0.11760
      10 -> 15        -0.21856
      10 -> 16        -0.28011
      11 -> 15        -0.10487
      11 -> 16        -0.13371
      12 -> 15        -0.24256
      12 -> 16         0.24047
      13 -> 19         0.42617

 Excited State  11:      Singlet-A      9.8133 eV  126.34 nm  f=0.1152  <S**2>=0.000
      10 -> 15         0.10865
      10 -> 16         0.16281
      12 -> 15        -0.28266
      12 -> 16         0.49982
      12 -> 19        -0.11549
      13 -> 19        -0.27177

 Excited State  12:      Singlet-A      9.8650 eV  125.68 nm  f=0.1266  <S**2>=0.000
      10 -> 15        -0.18633
      11 -> 15         0.57622
      11 -> 19         0.15968
      12 -> 15         0.22591
      12 -> 16         0.11029

 Excited State  13:      Singlet-A     10.4255 eV  118.92 nm  f=0.0182  <S**2>=0.000
       8 -> 15         0.13812
      10 -> 15         0.21040
      10 -> 16         0.18238
      11 -> 16         0.20125
      11 -> 17        -0.21592
      12 -> 15         0.17604
      12 -> 16         0.22020
      12 -> 17         0.18519
      13 -> 15        -0.11947
      13 -> 19         0.31236

 Excited State  14:      Singlet-A     10.4959 eV  118.13 nm  f=0.0046  <S**2>=0.000
      10 -> 15         0.44888
      11 -> 15         0.12764
      11 -> 16        -0.13174
      11 -> 17         0.15813
      12 -> 15        -0.11236
      12 -> 16        -0.12693
      13 -> 15        -0.10415
      13 -> 18        -0.31344
      13 -> 19         0.17109

 Excited State  15:      Singlet-A     10.5138 eV  117.93 nm  f=0.0252  <S**2>=0.000
      10 -> 16         0.43789
      11 -> 17         0.15451
      12 -> 15        -0.10329
      12 -> 17        -0.22204
      13 -> 16         0.12370
      13 -> 18         0.21131
      13 -> 19         0.23978

 The electronic state is 1-A.
 Alpha  occ. eigenvalues --   -1.84622  -1.13815  -0.88457  -0.79385  -0.75918
 Alpha  occ. eigenvalues --   -0.66879  -0.63513  -0.56795  -0.55650  -0.44886
 Alpha  occ. eigenvalues --   -0.43920  -0.43249  -0.31268
 Alpha virt. eigenvalues --    0.09128   0.17365   0.17671   0.24870   0.27542
 Alpha virt. eigenvalues --    0.29790   0.35262   0.40179   0.47485   0.54896
 Alpha virt. eigenvalues --    0.59344

 Mulliken charges:
               1
     1  C   -0.196998
     2  C   -2.001938
     3  O    3.445070
     4  C   -1.997416
     5  C   -0.179876
     6  H    0.206976
     7  H    0.264664
     8  H    0.259542
     9  H    0.199977
 Sum of Mulliken charges =   0.00000

 Dipole moment (field-independent basis, Debye):
    X=             -0.5796    Y=            -11.0265    Z=              0.1107  Tot=             11.0423
 N-N= 1.041617981228D+02 E-N=-1.697815699241D+02  KE=-1.439034588474D+01
 Orbital energies and kinetic energies (alpha):
                                 1                 2
   1         O                -1.846222         -1.242222
   2         O                -1.138145         -0.971447
   3         O                -0.884568         -0.793102
   4         O                -0.793852         -0.545526
   5         O                -0.759183         -0.625159
   6         O                -0.668790         -0.559728
   7         O                -0.635130         -0.499014

 Normal termination of Gaussian 09 at Tue Dec 15 17:07:40 2015.
