 Gaussian 09, Revision D.01,
 Gaussian 09:  ES64L-G09RevD.01 24-Apr-2013

 ------------------------------------------------------------
 #P AM1(Input,print) CIS(Singlets,NStates=15) pop(full) force
 ------------------------------------------------------------

 -----------------
 AM1-Reparam Input
 -----------------
 Symbolic Z-matrix:
 Charge =  0 Multiplicity = 1

                         Standard orientation:
 ---------------------------------------------------------------------
 Center     Atomic      Atomic             Coordinates (Angstroms)
 Number     Number       Type             X           Y           Z
 ---------------------------------------------------------------------
      1          6           0       -0.539353    1.061019   -0.012649
      2          6           0       -1.170045   -0.182549    0.028961
      3          8           0       -0.201308   -1.090727   -0.017120
      4          6           0        1.014732   -0.522020   -0.001889
      5          6           0        0.911592    0.780923   -0.009582
      6          1           0        1.622497    1.557458    0.076031
      7          1           0        1.845513   -1.197540    0.044122
      8          1           0       -2.155868   -0.461706    0.015911
      9          1           0       -1.003236    2.003364   -0.028147
 ---------------------------------------------------------------------

 SCF Done:  E(RAM1) =  -7.07086993470     A.U. after   14 cycles

 Excitation energies and oscillator strengths:

 Excited State   1:      Singlet-A      7.2763 eV  170.39 nm  f=0.2320  <S**2>=0.000
      12 -> 14        -0.22927
      13 -> 14         0.63309
      13 -> 15        -0.11065
 This state for optimization and/or second-order correction.
 Total Energy, E(CIS) =  -6.80347135620
 Copying the excited state density for this state as the 1-particle RhoCI density.

 Excited State   2:      Singlet-A      7.4465 eV  166.50 nm  f=0.0332  <S**2>=0.000
      12 -> 14         0.65994
      13 -> 14         0.21513

 Excited State   3:      Singlet-A      7.6610 eV  161.84 nm  f=0.0387  <S**2>=0.000
      13 -> 14         0.13413
      13 -> 15         0.64299
      13 -> 16         0.19098
      13 -> 17         0.14750

 Excited State   4:      Singlet-A      8.2085 eV  151.04 nm  f=0.0013  <S**2>=0.000
      13 -> 15        -0.19745
      13 -> 16         0.64410
      13 -> 21         0.16229

 Excited State   5:      Singlet-A      8.6559 eV  143.24 nm  f=0.0093  <S**2>=0.000
      11 -> 14         0.69760

 Excited State   6:      Singlet-A      9.5675 eV  129.59 nm  f=0.0410  <S**2>=0.000
      10 -> 14         0.13404
      11 -> 16         0.13067
      12 -> 15         0.63104
      12 -> 18         0.10666

 Excited State   7:      Singlet-A      9.8137 eV  126.34 nm  f=0.0479  <S**2>=0.000
      10 -> 14        -0.13796
      12 -> 16         0.58440
      12 -> 17         0.15401
      12 -> 21         0.21484

 Excited State   8:      Singlet-A      9.9844 eV  124.18 nm  f=0.0180  <S**2>=0.000
      10 -> 16         0.11072
      13 -> 15        -0.12101
      13 -> 17         0.59646
      13 -> 19        -0.16527
      13 -> 21        -0.21210

 Excited State   9:      Singlet-A     10.1884 eV  121.69 nm  f=0.0053  <S**2>=0.000
       8 -> 16         0.10685
       9 -> 15        -0.11742
      10 -> 14         0.49310
      11 -> 15         0.14781
      12 -> 15        -0.14474
      12 -> 16         0.17417
      12 -> 17        -0.15862
      12 -> 21         0.10461
      13 -> 17        -0.15701
      13 -> 20         0.23885

 Excited State  10:      Singlet-A     10.2669 eV  120.76 nm  f=0.0057  <S**2>=0.000
      10 -> 15         0.14211
      11 -> 15        -0.14329
      13 -> 16        -0.10760
      13 -> 17         0.21006
      13 -> 18        -0.41707
      13 -> 21         0.43742
      13 -> 22         0.11216

 Excited State  11:      Singlet-A     10.3349 eV  119.97 nm  f=0.0131  <S**2>=0.000
       9 -> 16         0.10368
      10 -> 14        -0.12347
      11 -> 15         0.52686
      11 -> 16         0.21663
      11 -> 17         0.18384
      12 -> 16         0.10594
      13 -> 21         0.11950

 Excited State  12:      Singlet-A     10.4332 eV  118.84 nm  f=0.0347  <S**2>=0.000
      10 -> 16         0.11434
      13 -> 17         0.11849
      13 -> 18         0.18867
      13 -> 19         0.62845

 Excited State  13:      Singlet-A     10.5034 eV  118.04 nm  f=0.0086  <S**2>=0.000
      10 -> 15         0.11913
      10 -> 16         0.10549
      13 -> 18         0.49767
      13 -> 19        -0.20235
      13 -> 21         0.39311

 Excited State  14:      Singlet-A     10.9140 eV  113.60 nm  f=0.2713  <S**2>=0.000
      10 -> 15         0.10137
      11 -> 17         0.15036
      11 -> 18        -0.24341
      11 -> 19        -0.21544
      12 -> 18         0.50170
      12 -> 19        -0.24469

 Excited State  15:      Singlet-A     10.9962 eV  112.75 nm  f=0.1464  <S**2>=0.000
       8 -> 16        -0.10556
       9 -> 15         0.11578
      10 -> 14         0.12357
      10 -> 15         0.28114
      11 -> 16         0.19308
      11 -> 18         0.14697
      12 -> 17         0.24867
      12 -> 18        -0.14723
      12 -> 19        -0.19359
      12 -> 21        -0.15346
      13 -> 20         0.30985

 The electronic state is 1-A.
 Alpha  occ. eigenvalues --   -4.55004  -1.36359  -1.03491  -0.98718  -0.96573
 Alpha  occ. eigenvalues --   -0.93555  -0.78783  -0.60779  -0.57030  -0.54727
 Alpha  occ. eigenvalues --   -0.51274  -0.47051  -0.40671
 Alpha virt. eigenvalues --    0.08075   0.11577   0.13192   0.19718   0.21318
 Alpha virt. eigenvalues --    0.21884   0.23519   0.26426   0.29461   0.34939
 Alpha virt. eigenvalues --    0.42790

 Mulliken charges:
               1
     1  C   -0.310048
     2  C   -1.394796
     3  O    2.491887
     4  C   -1.348198
     5  C   -0.232666
     6  H    0.164922
     7  H    0.220858
     8  H    0.234329
     9  H    0.173713
 Sum of Mulliken charges =   0.00000

 Dipole moment (field-independent basis, Debye):
    X=             -1.2398    Y=             -8.8895    Z=             -0.2153  Tot=              8.9781
 N-N= 1.051432416418D+02 E-N=-1.715565778564D+02  KE=-2.539130572045D+01
 Orbital energies and kinetic energies (alpha):
                                 1                 2
   1         O                -4.550044         -3.904852
   2         O                -1.363586         -1.280072
   3         O                -1.034914         -0.949011
   4         O                -0.987181         -0.949360
   5         O                -0.965734         -0.944527
   6         O                -0.935550         -0.937971
   7         O                -0.787835         -0.722022

 Normal termination of Gaussian 09 at Fri Dec 11 13:41:24 2015.
