 Gaussian 09, Revision D.01,
 Gaussian 09:  ES64L-G09RevD.01 24-Apr-2013

 ------------------------------------------------------------
 #P AM1(Input,print) CIS(Singlets,NStates=15) pop(full) force
 ------------------------------------------------------------

 -----------------
 AM1-Reparam Input
 -----------------
 Symbolic Z-matrix:
 Charge =  0 Multiplicity = 1

                         Standard orientation:
 ---------------------------------------------------------------------
 Center     Atomic      Atomic             Coordinates (Angstroms)
 Number     Number       Type             X           Y           Z
 ---------------------------------------------------------------------
      1          6           0        0.962296    0.749562    0.007155
      2          6           0        0.974707   -0.643081   -0.023719
      3          8           0       -0.345927   -1.140192    0.028641
      4          6           0       -1.173187   -0.023624   -0.018379
      5          6           0       -0.399275    1.114596   -0.003523
      6          1           0       -0.804527    2.105082    0.016803
      7          1           0       -2.203463   -0.163177   -0.018833
      8          1           0        1.747143   -1.331401   -0.043330
      9          1           0        1.841019    1.326315    0.047029
 ---------------------------------------------------------------------

 SCF Done:  E(RAM1) =   1.12164402591     A.U. after   14 cycles

 Excitation energies and oscillator strengths:

 Excited State   1:      Singlet-A      5.6111 eV  220.96 nm  f=0.1718  <S**2>=0.000
      12 -> 15         0.16940
      13 -> 14         0.67200
 This state for optimization and/or second-order correction.
 Total Energy, E(CIS) =   1.32784636583
 Copying the excited state density for this state as the 1-particle RhoCI density.

 Excited State   2:      Singlet-A      6.5108 eV  190.43 nm  f=0.0066  <S**2>=0.000
      13 -> 15         0.26705
      13 -> 16         0.62360

 Excited State   3:      Singlet-A      6.7264 eV  184.32 nm  f=0.0151  <S**2>=0.000
      12 -> 14        -0.35308
      13 -> 15         0.52955
      13 -> 16        -0.27569

 Excited State   4:      Singlet-A      7.2145 eV  171.85 nm  f=0.0000  <S**2>=0.000
      12 -> 16        -0.11605
      13 -> 17         0.65791
      13 -> 18        -0.12429
      13 -> 21         0.14811

 Excited State   5:      Singlet-A      7.5276 eV  164.71 nm  f=0.0006  <S**2>=0.000
       9 -> 14         0.14327
      10 -> 14        -0.10062
      11 -> 14         0.67705

 Excited State   6:      Singlet-A      7.8182 eV  158.58 nm  f=0.1637  <S**2>=0.000
      10 -> 14        -0.38170
      11 -> 15        -0.11663
      12 -> 14         0.47950
      13 -> 15         0.26654

 Excited State   7:      Singlet-A      7.9687 eV  155.59 nm  f=0.1099  <S**2>=0.000
      10 -> 14         0.53264
      12 -> 14         0.34810
      13 -> 15         0.20824

 Excited State   8:      Singlet-A      8.2172 eV  150.88 nm  f=0.0942  <S**2>=0.000
      12 -> 15         0.46236
      12 -> 16         0.41327
      13 -> 18        -0.25680

 Excited State   9:      Singlet-A      8.3721 eV  148.09 nm  f=0.1539  <S**2>=0.000
      11 -> 15        -0.11128
      12 -> 15         0.45631
      12 -> 16        -0.33498
      13 -> 14        -0.11468
      13 -> 18         0.33592

 Excited State  10:      Singlet-A      8.4619 eV  146.52 nm  f=0.0209  <S**2>=0.000
       6 -> 15         0.10016
       9 -> 15        -0.23842
      10 -> 14        -0.20230
      10 -> 15         0.20749
      11 -> 15         0.53619
      13 -> 18         0.12098
      13 -> 19         0.13413

 Excited State  11:      Singlet-A      8.5129 eV  145.64 nm  f=0.0140  <S**2>=0.000
      11 -> 15        -0.15369
      12 -> 16         0.24248
      13 -> 18         0.28446
      13 -> 19         0.51505
      13 -> 23         0.10083

 Excited State  12:      Singlet-A      8.5811 eV  144.49 nm  f=0.0084  <S**2>=0.000
      12 -> 16         0.32999
      13 -> 17         0.14435
      13 -> 18         0.39818
      13 -> 19        -0.37965
      13 -> 24        -0.15371

 Excited State  13:      Singlet-A      9.0517 eV  136.97 nm  f=0.0022  <S**2>=0.000
       7 -> 16         0.11809
      12 -> 17         0.61738
      13 -> 20        -0.29891

 Excited State  14:      Singlet-A      9.4356 eV  131.40 nm  f=0.0506  <S**2>=0.000
       9 -> 14         0.13196
       9 -> 16        -0.15241
       9 -> 17         0.18465
      10 -> 15        -0.10446
      10 -> 16        -0.28992
      10 -> 19         0.12340
      10 -> 20         0.14708
      11 -> 16         0.42012
      11 -> 18        -0.21730

 Excited State  15:      Singlet-A      9.5728 eV  129.52 nm  f=0.0187  <S**2>=0.000
       9 -> 14        -0.32427
       9 -> 16        -0.20493
      10 -> 15         0.14092
      10 -> 16         0.26123
      10 -> 17         0.18325
      11 -> 16         0.34342
      11 -> 17        -0.14460

 The electronic state is 1-A.
 Alpha  occ. eigenvalues --   -1.79170  -1.18550  -0.97752  -0.86455  -0.81392
 Alpha  occ. eigenvalues --   -0.74246  -0.69718  -0.60743  -0.56303  -0.51860
 Alpha  occ. eigenvalues --   -0.50326  -0.46364  -0.38542
 Alpha virt. eigenvalues --    0.03770   0.08010   0.10473   0.12497   0.18816
 Alpha virt. eigenvalues --    0.19500   0.19975   0.22077   0.25732   0.26856
 Alpha virt. eigenvalues --    0.27435

 Mulliken charges:
               1
     1  C   -0.096545
     2  C   -1.247551
     3  O    2.127007
     4  C   -1.240424
     5  C   -0.132802
     6  H    0.110350
     7  H    0.191091
     8  H    0.184702
     9  H    0.104172
 Sum of Mulliken charges =   0.00000

 Dipole moment (field-independent basis, Debye):
    X=             -2.1838    Y=             -6.9819    Z=              0.4423  Tot=              7.3288
 N-N= 1.037243812608D+02 E-N=-1.700544584397D+02  KE=-1.492259680123D+01
 Orbital energies and kinetic energies (alpha):
                                 1                 2
   1         O                -1.791702         -1.199326
   2         O                -1.185504         -0.973875
   3         O                -0.977525         -0.830875
   4         O                -0.864547         -0.614947
   5         O                -0.813922         -0.677373
   6         O                -0.742462         -0.600507
   7         O                -0.697177         -0.503471

 Normal termination of Gaussian 09 at Tue Dec 15 17:05:45 2015.
