 Gaussian 09, Revision D.01,
 Gaussian 09:  ES64L-G09RevD.01 24-Apr-2013

 ------------------------------------------------------------
 #P AM1(Input,print) CIS(Singlets,NStates=15) pop(full) force
 ------------------------------------------------------------

 -----------------
 AM1-Reparam Input
 -----------------
 Symbolic Z-matrix:
 Charge =  0 Multiplicity = 1

                         Standard orientation:
 ---------------------------------------------------------------------
 Center     Atomic      Atomic             Coordinates (Angstroms)
 Number     Number       Type             X           Y           Z
 ---------------------------------------------------------------------
      1          6           0        0.476524    1.086467    0.033147
      2          6           0        1.157561   -0.080477   -0.016795
      3          8           0        0.259620   -1.161541   -0.013717
      4          6           0       -0.983331   -0.547575    0.051192
      5          6           0       -0.933816    0.784504   -0.032855
      6          1           0       -1.724804    1.440999   -0.075685
      7          1           0       -1.811747   -1.292232   -0.027602
      8          1           0        2.184792   -0.385207   -0.014027
      9          1           0        0.973178    2.071253    0.018917
 ---------------------------------------------------------------------

 SCF Done:  E(RAM1) =   1.76146703517     A.U. after   14 cycles

 Excitation energies and oscillator strengths:

 Excited State   1:      Singlet-A      5.3084 eV  233.56 nm  f=0.3530  <S**2>=0.000
      13 -> 14         0.69398
 This state for optimization and/or second-order correction.
 Total Energy, E(CIS) =   1.95654837532
 Copying the excited state density for this state as the 1-particle RhoCI density.

 Excited State   2:      Singlet-A      6.6438 eV  186.62 nm  f=0.0004  <S**2>=0.000
      10 -> 15         0.10863
      13 -> 15         0.68033

 Excited State   3:      Singlet-A      7.0220 eV  176.57 nm  f=0.0004  <S**2>=0.000
      12 -> 14         0.69739

 Excited State   4:      Singlet-A      7.1234 eV  174.05 nm  f=0.0018  <S**2>=0.000
      10 -> 16        -0.10565
      13 -> 16         0.66730
      13 -> 17        -0.10008
      13 -> 18        -0.13285

 Excited State   5:      Singlet-A      8.0210 eV  154.57 nm  f=0.0123  <S**2>=0.000
      11 -> 14         0.69573

 Excited State   6:      Singlet-A      8.6478 eV  143.37 nm  f=0.0038  <S**2>=0.000
      13 -> 15        -0.10133
      13 -> 17        -0.43009
      13 -> 18         0.48470
      13 -> 22         0.21273

 Excited State   7:      Singlet-A      9.0276 eV  137.34 nm  f=0.0142  <S**2>=0.000
      13 -> 16         0.13921
      13 -> 17         0.52517
      13 -> 18         0.41276
      13 -> 22         0.10739

 Excited State   8:      Singlet-A      9.3360 eV  132.80 nm  f=0.0576  <S**2>=0.000
      10 -> 14         0.63427
      12 -> 15         0.15110
      13 -> 20        -0.17346

 Excited State   9:      Singlet-A      9.5803 eV  129.42 nm  f=0.0041  <S**2>=0.000
      13 -> 19         0.65827
      13 -> 20         0.18485

 Excited State  10:      Singlet-A      9.7149 eV  127.62 nm  f=0.0673  <S**2>=0.000
       9 -> 15        -0.15083
      10 -> 14        -0.12520
      11 -> 16         0.10377
      11 -> 17        -0.13377
      12 -> 15         0.52069
      12 -> 16        -0.20336
      12 -> 17        -0.13423
      12 -> 18         0.20961

 Excited State  11:      Singlet-A     10.3370 eV  119.94 nm  f=0.0156  <S**2>=0.000
      11 -> 15        -0.26954
      11 -> 17         0.11336
      12 -> 15         0.20565
      12 -> 16         0.27105
      12 -> 18        -0.14695
      13 -> 19        -0.11862
      13 -> 20         0.47688

 Excited State  12:      Singlet-A     10.3487 eV  119.81 nm  f=0.1658  <S**2>=0.000
      10 -> 14         0.23500
      11 -> 15         0.15627
      11 -> 17        -0.11971
      12 -> 15        -0.21538
      12 -> 16        -0.29332
      12 -> 18         0.17370
      13 -> 19        -0.12403
      13 -> 20         0.42195

 Excited State  13:      Singlet-A     10.4144 eV  119.05 nm  f=0.2019  <S**2>=0.000
      11 -> 15         0.11019
      11 -> 16         0.28269
      11 -> 17        -0.17293
      11 -> 18        -0.11106
      12 -> 16         0.45730
      12 -> 17        -0.24795
      12 -> 18         0.10847
      12 -> 19        -0.11582
      13 -> 21         0.13131

 Excited State  14:      Singlet-A     10.5366 eV  117.67 nm  f=0.0566  <S**2>=0.000
      13 -> 18         0.16383
      13 -> 21         0.55360
      13 -> 22        -0.32459

 Excited State  15:      Singlet-A     10.7119 eV  115.74 nm  f=0.0418  <S**2>=0.000
      13 -> 18        -0.16976
      13 -> 21         0.36332
      13 -> 22         0.54781

 The electronic state is 1-A.
 Alpha  occ. eigenvalues --   -1.89552  -1.17034  -0.91460  -0.81235  -0.78028
 Alpha  occ. eigenvalues --   -0.69708  -0.66291  -0.55337  -0.54299  -0.46055
 Alpha  occ. eigenvalues --   -0.43888  -0.40614  -0.28580
 Alpha virt. eigenvalues --    0.11825   0.18071   0.20130   0.28341   0.30051
 Alpha virt. eigenvalues --    0.31442   0.31746   0.34196   0.36959   0.41138
 Alpha virt. eigenvalues --    0.43553

 Mulliken charges:
               1
     1  C   -0.161487
     2  C   -1.988840
     3  O    3.283960
     4  C   -1.984004
     5  C   -0.185442
     6  H    0.202050
     7  H    0.318752
     8  H    0.313727
     9  H    0.201284
 Sum of Mulliken charges =   0.00000

 Dipole moment (field-independent basis, Debye):
    X=              2.3519    Y=            -11.6732    Z=             -0.6228  Tot=             11.9240
 N-N= 1.034004571509D+02 E-N=-1.685749607510D+02  KE=-1.546140934715D+01
 Orbital energies and kinetic energies (alpha):
                                 1                 2
   1         O                -1.895522         -1.336439
   2         O                -1.170343         -1.061021
   3         O                -0.914596         -0.893665
   4         O                -0.812354         -0.571266
   5         O                -0.780276         -0.679390
   6         O                -0.697078         -0.592158
   7         O                -0.662909         -0.536439

 Normal termination of Gaussian 09 at Tue Dec 15 17:09:49 2015.
