 Gaussian 09, Revision D.01,
 Gaussian 09:  ES64L-G09RevD.01 24-Apr-2013

 ------------------------------------------------------------
 #P AM1(Input,print) CIS(Singlets,NStates=15) pop(full) force
 ------------------------------------------------------------

 -----------------
 AM1-Reparam Input
 -----------------
 Symbolic Z-matrix:
 Charge =  0 Multiplicity = 1

                         Standard orientation:
 ---------------------------------------------------------------------
 Center     Atomic      Atomic             Coordinates (Angstroms)
 Number     Number       Type             X           Y           Z
 ---------------------------------------------------------------------
      1          6           0       -0.019172    1.188053   -0.031530
      2          6           0        1.098895    0.359700    0.031743
      3          8           0        0.727362   -0.947149    0.002160
      4          6           0       -0.659023   -0.891027   -0.032035
      5          6           0       -1.176731    0.335006    0.033046
      6          1           0       -2.218232    0.574251    0.032953
      7          1           0       -1.151457   -1.871327   -0.002203
      8          1           0        2.139430    0.634543   -0.023351
      9          1           0       -0.052447    2.289335   -0.032020
 ---------------------------------------------------------------------

 SCF Done:  E(RAM1) =  0.164710396077E-01 A.U. after   14 cycles

 Excitation energies and oscillator strengths:

 Excited State   1:      Singlet-A      4.3591 eV  284.43 nm  f=0.0901  <S**2>=0.000
      12 -> 15         0.18263
      13 -> 14         0.67459
 This state for optimization and/or second-order correction.
 Total Energy, E(CIS) =  0.176664776256
 Copying the excited state density for this state as the 1-particle RhoCI density.

 Excited State   2:      Singlet-A      4.9017 eV  252.94 nm  f=0.0061  <S**2>=0.000
      12 -> 14         0.23623
      13 -> 15        -0.42437
      13 -> 16         0.49369

 Excited State   3:      Singlet-A      5.0718 eV  244.46 nm  f=0.0050  <S**2>=0.000
      12 -> 14        -0.31970
      13 -> 15         0.39788
      13 -> 16         0.47264

 Excited State   4:      Singlet-A      5.7087 eV  217.18 nm  f=0.0007  <S**2>=0.000
      12 -> 17         0.10116
      12 -> 21        -0.12120
      13 -> 17         0.37707
      13 -> 18         0.38595
      13 -> 19         0.12787
      13 -> 21        -0.23440
      13 -> 22         0.15717
      13 -> 23        -0.19351

 Excited State   5:      Singlet-A      6.0175 eV  206.04 nm  f=0.0070  <S**2>=0.000
       7 -> 16        -0.16755
      12 -> 15        -0.19379
      12 -> 16         0.58539
      12 -> 22         0.14714
      13 -> 19        -0.11220

 Excited State   6:      Singlet-A      6.1682 eV  201.00 nm  f=0.0937  <S**2>=0.000
      12 -> 14        -0.27393
      12 -> 15        -0.19553
      12 -> 18         0.12496
      12 -> 19        -0.10609
      12 -> 23        -0.10314
      13 -> 15        -0.19427
      13 -> 18        -0.22942
      13 -> 19         0.29996
      13 -> 20        -0.17590
      13 -> 21        -0.21148
      13 -> 22         0.10935

 Excited State   7:      Singlet-A      6.2211 eV  199.30 nm  f=0.2707  <S**2>=0.000
      12 -> 14         0.46587
      12 -> 16         0.15535
      13 -> 15         0.31056
      13 -> 18        -0.16404
      13 -> 19         0.19706
      13 -> 20        -0.10426
      13 -> 21        -0.11514

 Excited State   8:      Singlet-A      6.4219 eV  193.07 nm  f=0.0064  <S**2>=0.000
      11 -> 14        -0.12385
      12 -> 19        -0.15636
      13 -> 17        -0.42252
      13 -> 18         0.43837
      13 -> 21        -0.10652
      13 -> 23         0.16188

 Excited State   9:      Singlet-A      6.4549 eV  192.08 nm  f=0.1356  <S**2>=0.000
      12 -> 15         0.60366
      12 -> 16         0.21478
      13 -> 14        -0.15904

 Excited State  10:      Singlet-A      7.0188 eV  176.65 nm  f=0.0026  <S**2>=0.000
      11 -> 14         0.16992
      11 -> 15        -0.13828
      12 -> 17        -0.16348
      12 -> 18         0.47264
      12 -> 20         0.13010
      13 -> 19        -0.32696
      13 -> 22         0.13935

 Excited State  11:      Singlet-A      7.0826 eV  175.05 nm  f=0.0007  <S**2>=0.000
      10 -> 14         0.58551
      10 -> 15         0.28134
      11 -> 14        -0.14736

 Excited State  12:      Singlet-A      7.2001 eV  172.20 nm  f=0.0030  <S**2>=0.000
       9 -> 14        -0.22490
       9 -> 15         0.11462
      10 -> 14         0.12467
      11 -> 14         0.43826
      11 -> 15        -0.35303
      12 -> 18        -0.14851
      13 -> 17        -0.11606
      13 -> 19         0.11648

 Excited State  13:      Singlet-A      7.3647 eV  168.35 nm  f=0.0006  <S**2>=0.000
      11 -> 14        -0.15573
      11 -> 15        -0.12955
      12 -> 17         0.34734
      12 -> 19        -0.19090
      12 -> 21         0.15380
      12 -> 22        -0.13711
      12 -> 23        -0.15270
      13 -> 17         0.16918
      13 -> 19        -0.18254
      13 -> 20        -0.13333
      13 -> 22        -0.27264
      13 -> 24         0.17543

 Excited State  14:      Singlet-A      7.4113 eV  167.29 nm  f=0.0058  <S**2>=0.000
      11 -> 14        -0.14844
      11 -> 15        -0.10201
      12 -> 18        -0.11685
      12 -> 19         0.13975
      12 -> 20        -0.25542
      12 -> 23        -0.10386
      13 -> 17        -0.16759
      13 -> 18        -0.10788
      13 -> 19        -0.23741
      13 -> 20        -0.28187
      13 -> 22         0.30381
      13 -> 23        -0.14131
      13 -> 24        -0.13428

 Excited State  15:      Singlet-A      7.5538 eV  164.14 nm  f=0.0051  <S**2>=0.000
       9 -> 14        -0.11825
      11 -> 14        -0.10116
      11 -> 15        -0.22215
      12 -> 17         0.21747
      12 -> 18         0.15927
      12 -> 19         0.23654
      12 -> 22         0.11374
      13 -> 17        -0.11132
      13 -> 20         0.32653
      13 -> 21        -0.20731
      13 -> 22        -0.13209
      13 -> 23         0.16103
      13 -> 24        -0.21673

 The electronic state is 1-A.
 Alpha  occ. eigenvalues --   -1.55601  -1.24095  -1.08704  -0.81864  -0.81351
 Alpha  occ. eigenvalues --   -0.68201  -0.59831  -0.56298  -0.51976  -0.50194
 Alpha  occ. eigenvalues --   -0.48796  -0.39603  -0.34447
 Alpha virt. eigenvalues --    0.02868   0.06235   0.09784   0.13980   0.14292
 Alpha virt. eigenvalues --    0.15514   0.17643   0.18096   0.18759   0.20618
 Alpha virt. eigenvalues --    0.22020

 Mulliken charges:
               1
     1  C   -0.219636
     2  C   -0.103900
     3  O   -0.070339
     4  C   -0.111895
     5  C   -0.183363
     6  H    0.165185
     7  H    0.176897
     8  H    0.187593
     9  H    0.159458
 Sum of Mulliken charges =   0.00000

 Dipole moment (field-independent basis, Debye):
    X=             -0.3194    Y=              0.3921    Z=             -0.0152  Tot=              0.5060
 N-N= 1.031486775331D+02 E-N=-1.705311263824D+02  KE=-1.651410294016D+01
 Orbital energies and kinetic energies (alpha):
                                 1                 2
   1         O                -1.556008         -1.306331
   2         O                -1.240949         -1.053854
   3         O                -1.087036         -0.951978
   4         O                -0.818635         -0.699628
   5         O                -0.813510         -0.725494
   6         O                -0.682008         -0.601233
   7         O                -0.598311         -0.484029

 Normal termination of Gaussian 09 at Tue Dec 15 16:16:20 2015.
