 Gaussian 09, Revision D.01,
 Gaussian 09:  ES64L-G09RevD.01 24-Apr-2013

 ------------------------------------------------------------
 #P AM1(Input,print) CIS(Singlets,NStates=15) pop(full) force
 ------------------------------------------------------------

 -----------------
 AM1-Reparam Input
 -----------------
 Symbolic Z-matrix:
 Charge =  0 Multiplicity = 1

                         Standard orientation:
 ---------------------------------------------------------------------
 Center     Atomic      Atomic             Coordinates (Angstroms)
 Number     Number       Type             X           Y           Z
 ---------------------------------------------------------------------
      1          6           0       -0.876845    0.810863    0.003037
      2          6           0       -1.038661   -0.488756    0.018427
      3          8           0        0.198093   -1.086035   -0.031322
      4          6           0        1.112108   -0.203469    0.036920
      5          6           0        0.596026    1.014068   -0.009220
      6          1           0        1.077561    1.972741   -0.017671
      7          1           0        2.108694   -0.511949   -0.013008
      8          1           0       -1.906568   -1.134547    0.030369
      9          1           0       -1.620199    1.565802   -0.044097
 ---------------------------------------------------------------------

 SCF Done:  E(RAM1) =   2.62917860037     A.U. after   13 cycles

 Excitation energies and oscillator strengths:

 Excited State   1:      Singlet-A      4.7729 eV  259.77 nm  f=0.3627  <S**2>=0.000
      13 -> 14         0.69968
 This state for optimization and/or second-order correction.
 Total Energy, E(CIS) =   2.80457853813
 Copying the excited state density for this state as the 1-particle RhoCI density.

 Excited State   2:      Singlet-A      5.7659 eV  215.03 nm  f=0.0010  <S**2>=0.000
      13 -> 15         0.66509
      13 -> 17        -0.15131
      13 -> 19        -0.10517

 Excited State   3:      Singlet-A      6.2064 eV  199.77 nm  f=0.0001  <S**2>=0.000
      12 -> 14         0.69815

 Excited State   4:      Singlet-A      6.3792 eV  194.36 nm  f=0.0036  <S**2>=0.000
      13 -> 15         0.11859
      13 -> 16         0.66209
      13 -> 17         0.12503

 Excited State   5:      Singlet-A      7.4259 eV  166.96 nm  f=0.0006  <S**2>=0.000
      11 -> 14         0.16320
      13 -> 15         0.12083
      13 -> 16        -0.12617
      13 -> 17         0.63971
      13 -> 21         0.10760

 Excited State   6:      Singlet-A      7.4868 eV  165.60 nm  f=0.0046  <S**2>=0.000
      10 -> 14        -0.35264
      11 -> 14         0.57524
      13 -> 17        -0.17357

 Excited State   7:      Singlet-A      8.4615 eV  146.53 nm  f=0.1350  <S**2>=0.000
      10 -> 14         0.59208
      11 -> 14         0.36196

 Excited State   8:      Singlet-A      9.0563 eV  136.90 nm  f=0.0845  <S**2>=0.000
      10 -> 15        -0.10374
      12 -> 15         0.42659
      12 -> 16        -0.15802
      12 -> 17        -0.22779
      13 -> 18        -0.41259
      13 -> 19        -0.10294

 Excited State   9:      Singlet-A      9.0613 eV  136.83 nm  f=0.0629  <S**2>=0.000
      10 -> 15         0.13981
      12 -> 15         0.34890
      12 -> 16        -0.13319
      12 -> 17        -0.19700
      13 -> 18         0.48240
      13 -> 19         0.14582

 Excited State  10:      Singlet-A      9.4022 eV  131.87 nm  f=0.0014  <S**2>=0.000
      10 -> 16         0.17896
      11 -> 16         0.13721
      13 -> 18        -0.15643
      13 -> 19         0.63108

 Excited State  11:      Singlet-A      9.6082 eV  129.04 nm  f=0.0633  <S**2>=0.000
       9 -> 15         0.11755
      10 -> 15        -0.17326
      11 -> 15         0.29136
      11 -> 16         0.13461
      11 -> 18        -0.14333
      12 -> 15         0.34309
      12 -> 16         0.25902
      12 -> 17         0.31070
      12 -> 18        -0.10247

 Excited State  12:      Singlet-A      9.8712 eV  125.60 nm  f=0.1311  <S**2>=0.000
      10 -> 16         0.14395
      11 -> 16        -0.28681
      12 -> 16         0.51881
      12 -> 17        -0.25674

 Excited State  13:      Singlet-A     10.1084 eV  122.65 nm  f=0.0006  <S**2>=0.000
       9 -> 14         0.55657
      10 -> 15        -0.30135
      11 -> 15        -0.21377
      13 -> 18         0.10014

 Excited State  14:      Singlet-A     10.1825 eV  121.76 nm  f=0.0012  <S**2>=0.000
       7 -> 15        -0.10689
       9 -> 14         0.40526
      10 -> 15         0.42964
      11 -> 15         0.28621
      13 -> 18        -0.17059

 Excited State  15:      Singlet-A     10.4645 eV  118.48 nm  f=0.0047  <S**2>=0.000
       8 -> 15        -0.20359
       9 -> 15         0.21441
       9 -> 16         0.16207
      10 -> 15        -0.22190
      10 -> 19         0.10462
      11 -> 15         0.33764
      11 -> 17         0.12461
      11 -> 19        -0.16526
      12 -> 15        -0.14831
      12 -> 16        -0.20358
      12 -> 17        -0.14117
      12 -> 18        -0.12629

 The electronic state is 1-A.
 Alpha  occ. eigenvalues --   -1.87638  -1.13322  -0.91031  -0.81161  -0.74903
 Alpha  occ. eigenvalues --   -0.67920  -0.65347  -0.57532  -0.54648  -0.46695
 Alpha  occ. eigenvalues --   -0.46215  -0.42548  -0.29731
 Alpha virt. eigenvalues --    0.07294   0.15211   0.17294   0.23968   0.27480
 Alpha virt. eigenvalues --    0.28945   0.35351   0.39041   0.50555   0.57550
 Alpha virt. eigenvalues --    0.62487

 Mulliken charges:
               1
     1  C   -0.131595
     2  C   -1.970323
     3  O    3.428340
     4  C   -2.016099
     5  C   -0.280857
     6  H    0.203717
     7  H    0.296345
     8  H    0.280391
     9  H    0.190080
 Sum of Mulliken charges =   0.00000

 Dipole moment (field-independent basis, Debye):
    X=              1.9170    Y=            -10.3964    Z=             -0.9415  Tot=             10.6135
 N-N= 1.049560002751D+02 E-N=-1.710510900569D+02  KE=-1.442872645053D+01
 Orbital energies and kinetic energies (alpha):
                                 1                 2
   1         O                -1.876384         -1.296236
   2         O                -1.133219         -0.955791
   3         O                -0.910314         -0.802079
   4         O                -0.811610         -0.536974
   5         O                -0.749025         -0.646876
   6         O                -0.679202         -0.517981
   7         O                -0.653469         -0.499412

 Normal termination of Gaussian 09 at Tue Dec 15 17:07:44 2015.
