 Gaussian 09, Revision D.01,
 Gaussian 09:  ES64L-G09RevD.01 24-Apr-2013

 ------------------------------------------------------------
 #P AM1(Input,print) CIS(Singlets,NStates=15) pop(full) force
 ------------------------------------------------------------

 -----------------
 AM1-Reparam Input
 -----------------
 Symbolic Z-matrix:
 Charge =  0 Multiplicity = 1

                         Standard orientation:
 ---------------------------------------------------------------------
 Center     Atomic      Atomic             Coordinates (Angstroms)
 Number     Number       Type             X           Y           Z
 ---------------------------------------------------------------------
      1          6           0        0.906798    0.776835   -0.013504
      2          6           0        1.034385   -0.574751    0.020855
      3          8           0       -0.305036   -1.109669   -0.002194
      4          6           0       -1.147473   -0.105361   -0.002074
      5          6           0       -0.458687    1.060529   -0.015200
      6          1           0       -0.909003    2.133576    0.071905
      7          1           0       -2.221451   -0.316488    0.014679
      8          1           0        1.834847   -1.276483   -0.028184
      9          1           0        1.725766    1.393239    0.018693
 ---------------------------------------------------------------------

 SCF Done:  E(RAM1) =  -5.69250080561     A.U. after   13 cycles

 Excitation energies and oscillator strengths:

 Excited State   1:      Singlet-A      6.4444 eV  192.39 nm  f=0.3043  <S**2>=0.000
      13 -> 14         0.68918
 This state for optimization and/or second-order correction.
 Total Energy, E(CIS) =  -5.45567167655
 Copying the excited state density for this state as the 1-particle RhoCI density.

 Excited State   2:      Singlet-A      7.3347 eV  169.04 nm  f=0.0261  <S**2>=0.000
      10 -> 14         0.22480
      11 -> 14        -0.32291
      12 -> 14         0.57464

 Excited State   3:      Singlet-A      7.8140 eV  158.67 nm  f=0.0022  <S**2>=0.000
      10 -> 14         0.27586
      11 -> 14         0.59854
      12 -> 14         0.23761

 Excited State   4:      Singlet-A      8.7233 eV  142.13 nm  f=0.0007  <S**2>=0.000
      10 -> 14         0.56835
      11 -> 14        -0.13721
      12 -> 14        -0.30729
      13 -> 15         0.20435

 Excited State   5:      Singlet-A      8.9451 eV  138.61 nm  f=0.0049  <S**2>=0.000
      10 -> 14        -0.17377
      13 -> 15         0.65825

 Excited State   6:      Singlet-A      9.5244 eV  130.17 nm  f=0.0116  <S**2>=0.000
      13 -> 16         0.61797
      13 -> 17        -0.31057

 Excited State   7:      Singlet-A      9.8011 eV  126.50 nm  f=0.0238  <S**2>=0.000
       9 -> 14        -0.23822
      13 -> 16         0.29109
      13 -> 17         0.59379

 Excited State   8:      Singlet-A     10.7517 eV  115.32 nm  f=0.0446  <S**2>=0.000
       8 -> 14        -0.24616
       9 -> 14         0.58680
      12 -> 15         0.14127
      12 -> 16         0.13371
      13 -> 17         0.18153

 Excited State   9:      Singlet-A     10.9425 eV  113.31 nm  f=0.0091  <S**2>=0.000
       8 -> 14         0.64108
       9 -> 14         0.20931

 Excited State  10:      Singlet-A     11.1315 eV  111.38 nm  f=0.0081  <S**2>=0.000
      13 -> 18         0.65294
      13 -> 19        -0.21203

 Excited State  11:      Singlet-A     11.2678 eV  110.03 nm  f=0.1950  <S**2>=0.000
       9 -> 14        -0.13835
      11 -> 15        -0.26508
      12 -> 15         0.59390

 Excited State  12:      Singlet-A     11.4833 eV  107.97 nm  f=0.0034  <S**2>=0.000
      13 -> 18         0.20070
      13 -> 19         0.64670

 Excited State  13:      Singlet-A     11.8704 eV  104.45 nm  f=0.4697  <S**2>=0.000
      10 -> 15        -0.17534
      10 -> 19         0.11591
      11 -> 15        -0.23020
      11 -> 16        -0.23217
      11 -> 17         0.10923
      12 -> 15        -0.22153
      12 -> 16         0.41673
      12 -> 17        -0.12149
      12 -> 18        -0.10387
      12 -> 19         0.18109

 Excited State  14:      Singlet-A     12.0279 eV  103.08 nm  f=0.0125  <S**2>=0.000
      12 -> 16         0.30076
      12 -> 17         0.59982

 Excited State  15:      Singlet-A     12.2772 eV  100.99 nm  f=0.1833  <S**2>=0.000
      10 -> 15         0.27676
      11 -> 15        -0.23850
      11 -> 16         0.37855
      11 -> 17        -0.20237
      12 -> 16         0.23598
      12 -> 17        -0.20541
      12 -> 19        -0.13591

 The electronic state is 1-A.
 Alpha  occ. eigenvalues --   -3.82202  -1.25381  -0.99194  -0.94130  -0.91089
 Alpha  occ. eigenvalues --   -0.85434  -0.79198  -0.69598  -0.65851  -0.62205
 Alpha  occ. eigenvalues --   -0.59025  -0.54832  -0.48332
 Alpha virt. eigenvalues --   -0.02572   0.08101   0.11132   0.11215   0.17476
 Alpha virt. eigenvalues --    0.19012   0.23084   0.29452   0.39972   0.49103
 Alpha virt. eigenvalues --    0.55488

 Mulliken charges:
               1
     1  C   -0.219603
     2  C   -1.483610
     3  O    3.025760
     4  C   -1.549339
     5  C   -0.314653
     6  H    0.159700
     7  H    0.137925
     8  H    0.107813
     9  H    0.136006
 Sum of Mulliken charges =   0.00000

 Dipole moment (field-independent basis, Debye):
    X=             -3.3543    Y=            -10.3394    Z=             -0.0746  Tot=             10.8702
 N-N= 1.049155582951D+02 E-N=-1.715897425577D+02  KE=-2.329696501187D+01
 Orbital energies and kinetic energies (alpha):
                                 1                 2
   1         O                -3.822023         -3.058198
   2         O                -1.253813         -1.102153
   3         O                -0.991940         -0.774694
   4         O                -0.941297         -0.848886
   5         O                -0.910894         -0.789714
   6         O                -0.854336         -0.797255
   7         O                -0.791976         -0.796725

 Normal termination of Gaussian 09 at Fri Dec 11 13:41:40 2015.
