 Gaussian 09, Revision D.01,
 Gaussian 09:  ES64L-G09RevD.01 24-Apr-2013

 ------------------------------------------------------------
 #P AM1(Input,print) CIS(Singlets,NStates=15) pop(full) force
 ------------------------------------------------------------

 -----------------
 AM1-Reparam Input
 -----------------
 Symbolic Z-matrix:
 Charge =  0 Multiplicity = 1

                         Standard orientation:
 ---------------------------------------------------------------------
 Center     Atomic      Atomic             Coordinates (Angstroms)
 Number     Number       Type             X           Y           Z
 ---------------------------------------------------------------------
      1          6           0        0.760338    0.887249   -0.009021
      2          6           0        1.077972   -0.418550    0.017701
      3          8           0       -0.077139   -1.163490   -0.014097
      4          6           0       -1.145988   -0.238772    0.027431
      5          6           0       -0.613710    0.982587   -0.024102
      6          1           0       -1.233499    1.867463    0.041784
      7          1           0       -2.067250   -0.683119   -0.020846
      8          1           0        1.969513   -0.900513   -0.005957
      9          1           0        1.476681    1.749002    0.025739
 ---------------------------------------------------------------------

 SCF Done:  E(RAM1) =  0.268510888922E-01 A.U. after   14 cycles

 Excitation energies and oscillator strengths:

 Excited State   1:      Singlet-A      4.4381 eV  279.36 nm  f=0.1073  <S**2>=0.000
      12 -> 15         0.17414
      13 -> 14         0.67591
 This state for optimization and/or second-order correction.
 Total Energy, E(CIS) =  0.189948237633
 Copying the excited state density for this state as the 1-particle RhoCI density.

 Excited State   2:      Singlet-A      5.0043 eV  247.76 nm  f=0.0001  <S**2>=0.000
      13 -> 16         0.69065

 Excited State   3:      Singlet-A      5.1889 eV  238.94 nm  f=0.0050  <S**2>=0.000
      12 -> 14        -0.43730
      13 -> 15         0.54546

 Excited State   4:      Singlet-A      6.0083 eV  206.35 nm  f=0.0015  <S**2>=0.000
       7 -> 16        -0.19568
      12 -> 16         0.64447
      12 -> 22        -0.12990

 Excited State   5:      Singlet-A      6.0806 eV  203.90 nm  f=0.0008  <S**2>=0.000
      12 -> 16         0.11088
      12 -> 17         0.10451
      12 -> 18        -0.10597
      13 -> 17        -0.33075
      13 -> 18         0.33347
      13 -> 19         0.24365
      13 -> 21        -0.15995
      13 -> 22        -0.23293
      13 -> 23         0.21106

 Excited State   6:      Singlet-A      6.1721 eV  200.88 nm  f=0.0011  <S**2>=0.000
      12 -> 17         0.16720
      12 -> 20        -0.12992
      12 -> 23        -0.11434
      13 -> 17         0.40821
      13 -> 18         0.19802
      13 -> 19         0.20766
      13 -> 20        -0.23382
      13 -> 22        -0.22876
      13 -> 23        -0.19295

 Excited State   7:      Singlet-A      6.3082 eV  196.55 nm  f=0.3712  <S**2>=0.000
      11 -> 16        -0.14442
      12 -> 14         0.50919
      13 -> 15         0.42453

 Excited State   8:      Singlet-A      6.6837 eV  185.50 nm  f=0.0064  <S**2>=0.000
      12 -> 15        -0.14817
      12 -> 19         0.10752
      13 -> 18         0.46976
      13 -> 19        -0.42578
      13 -> 20         0.10251
      13 -> 23        -0.15363

 Excited State   9:      Singlet-A      6.7320 eV  184.17 nm  f=0.1078  <S**2>=0.000
      12 -> 15         0.65838
      13 -> 14        -0.15531
      13 -> 18         0.10231

 Excited State  10:      Singlet-A      7.0503 eV  175.86 nm  f=0.0027  <S**2>=0.000
       9 -> 14        -0.28128
      10 -> 14         0.12776
      10 -> 15         0.24094
      11 -> 14         0.55404
      11 -> 15        -0.10137

 Excited State  11:      Singlet-A      7.3070 eV  169.68 nm  f=0.0007  <S**2>=0.000
       7 -> 24        -0.10315
      10 -> 14        -0.18941
      12 -> 17        -0.28059
      12 -> 18         0.39571
      12 -> 19        -0.18670
      12 -> 20         0.11987
      13 -> 17         0.11241
      13 -> 18         0.20256
      13 -> 19         0.21124
      13 -> 20         0.12780
      13 -> 22         0.12055

 Excited State  12:      Singlet-A      7.3874 eV  167.83 nm  f=0.0001  <S**2>=0.000
       9 -> 15        -0.19016
      10 -> 14         0.55373
      11 -> 14        -0.11298
      11 -> 15         0.15625
      12 -> 18         0.20531
      12 -> 19        -0.10196
      13 -> 22         0.14924

 Excited State  13:      Singlet-A      7.5440 eV  164.35 nm  f=0.0007  <S**2>=0.000
       7 -> 16         0.10401
       9 -> 15        -0.10593
      11 -> 14        -0.12944
      12 -> 17        -0.24015
      12 -> 18        -0.25699
      12 -> 19        -0.13793
      12 -> 22         0.18990
      13 -> 17         0.32765
      13 -> 20         0.18804
      13 -> 21        -0.12412
      13 -> 22        -0.12277
      13 -> 23         0.10815
      13 -> 24        -0.23344

 Excited State  14:      Singlet-A      7.7182 eV  160.64 nm  f=0.0005  <S**2>=0.000
       9 -> 14         0.22219
       9 -> 15        -0.16087
      10 -> 14         0.13889
      11 -> 14         0.14994
      12 -> 17        -0.24808
      12 -> 19         0.31479
      12 -> 21         0.15355
      12 -> 23         0.15291
      13 -> 19         0.17829
      13 -> 20         0.20479
      13 -> 24         0.14702

 Excited State  15:      Singlet-A      7.8196 eV  158.56 nm  f=0.0006  <S**2>=0.000
       9 -> 14         0.46940
      11 -> 14         0.26023
      12 -> 17         0.13784
      12 -> 19        -0.14190
      13 -> 17         0.15954
      13 -> 22         0.20274
      13 -> 23         0.13275

 The electronic state is 1-A.
 Alpha  occ. eigenvalues --   -1.56087  -1.24319  -1.11166  -0.83248  -0.81172
 Alpha  occ. eigenvalues --   -0.68745  -0.59374  -0.56705  -0.51248  -0.50435
 Alpha  occ. eigenvalues --   -0.50061  -0.40556  -0.34917
 Alpha virt. eigenvalues --    0.02537   0.06837   0.09649   0.14488   0.14925
 Alpha virt. eigenvalues --    0.15297   0.17969   0.18419   0.19332   0.20716
 Alpha virt. eigenvalues --    0.21740

 Mulliken charges:
               1
     1  C   -0.210701
     2  C   -0.072749
     3  O   -0.113633
     4  C   -0.092691
     5  C   -0.183096
     6  H    0.151779
     7  H    0.182830
     8  H    0.177967
     9  H    0.160294
 Sum of Mulliken charges =   0.00000

 Dipole moment (field-independent basis, Debye):
    X=              0.0415    Y=              0.6050    Z=              0.0267  Tot=              0.6070
 N-N= 1.037780439554D+02 E-N=-1.715508533500D+02  KE=-1.659090493691D+01
 Orbital energies and kinetic energies (alpha):
                                 1                 2
   1         O                -1.560871         -1.321679
   2         O                -1.243187         -1.046638
   3         O                -1.111657         -0.971872
   4         O                -0.832480         -0.738100
   5         O                -0.811718         -0.695325
   6         O                -0.687453         -0.605356
   7         O                -0.593737         -0.484230

 Normal termination of Gaussian 09 at Tue Dec 15 16:18:08 2015.
