 Gaussian 09, Revision D.01,
 Gaussian 09:  ES64L-G09RevD.01 24-Apr-2013

 ------------------------------------------------------------
 #P AM1(Input,print) CIS(Singlets,NStates=15) pop(full) force
 ------------------------------------------------------------

 -----------------
 AM1-Reparam Input
 -----------------
 Symbolic Z-matrix:
 Charge =  0 Multiplicity = 1

                         Standard orientation:
 ---------------------------------------------------------------------
 Center     Atomic      Atomic             Coordinates (Angstroms)
 Number     Number       Type             X           Y           Z
 ---------------------------------------------------------------------
      1          6           0       -1.020417    0.619512   -0.026118
      2          6           0       -0.891285   -0.654347    0.012216
      3          8           0        0.411707   -1.029125   -0.003098
      4          6           0        1.176884    0.035336   -0.000925
      5          6           0        0.295869    1.087925    0.013852
      6          1           0        0.646310    2.146935   -0.021383
      7          1           0        2.242712   -0.100238    0.002443
      8          1           0       -1.675040   -1.535533   -0.006018
      9          1           0       -1.873945    1.191277    0.055588
 ---------------------------------------------------------------------

 SCF Done:  E(RAM1) =   1.74534147713     A.U. after   14 cycles

 Excitation energies and oscillator strengths:

 Excited State   1:      Singlet-A      5.3776 eV  230.55 nm  f=0.3165  <S**2>=0.000
      13 -> 14         0.69136
 This state for optimization and/or second-order correction.
 Total Energy, E(CIS) =   1.94296629086
 Copying the excited state density for this state as the 1-particle RhoCI density.

 Excited State   2:      Singlet-A      5.9427 eV  208.63 nm  f=0.0020  <S**2>=0.000
      11 -> 15         0.12544
      13 -> 15         0.67021
      13 -> 17         0.13277

 Excited State   3:      Singlet-A      6.4947 eV  190.90 nm  f=0.0054  <S**2>=0.000
      11 -> 16        -0.10202
      13 -> 16         0.62297
      13 -> 17         0.25729
      13 -> 19        -0.10513

 Excited State   4:      Singlet-A      6.9696 eV  177.89 nm  f=0.0002  <S**2>=0.000
      12 -> 14         0.66563
      13 -> 20        -0.12592
      13 -> 21        -0.11790

 Excited State   5:      Singlet-A      7.3002 eV  169.84 nm  f=0.0108  <S**2>=0.000
      12 -> 14         0.18773
      13 -> 15        -0.10767
      13 -> 16        -0.11202
      13 -> 17         0.43410
      13 -> 19         0.20669
      13 -> 20         0.33173
      13 -> 21         0.29662

 Excited State   6:      Singlet-A      7.7621 eV  159.73 nm  f=0.0105  <S**2>=0.000
      11 -> 16         0.11140
      13 -> 16        -0.21264
      13 -> 17         0.44662
      13 -> 18        -0.10861
      13 -> 19        -0.15581
      13 -> 20        -0.36362
      13 -> 21        -0.22524

 Excited State   7:      Singlet-A      8.1452 eV  152.22 nm  f=0.0016  <S**2>=0.000
      10 -> 14         0.67372
      11 -> 14         0.13091

 Excited State   8:      Singlet-A      8.3331 eV  148.79 nm  f=0.0003  <S**2>=0.000
      13 -> 16        -0.14345
      13 -> 18         0.49751
      13 -> 19        -0.39725
      13 -> 20         0.21431

 Excited State   9:      Singlet-A      8.6045 eV  144.09 nm  f=0.0151  <S**2>=0.000
      13 -> 18         0.46570
      13 -> 19         0.42067
      13 -> 20        -0.30767

 Excited State  10:      Singlet-A      8.7295 eV  142.03 nm  f=0.0759  <S**2>=0.000
       8 -> 15         0.13166
      10 -> 14        -0.12172
      10 -> 20         0.12352
      11 -> 14         0.52472
      12 -> 15         0.36306

 Excited State  11:      Singlet-A      9.0953 eV  136.32 nm  f=0.0715  <S**2>=0.000
      11 -> 14         0.16756
      13 -> 19        -0.23148
      13 -> 20        -0.29499
      13 -> 21         0.52911

 Excited State  12:      Singlet-A      9.1874 eV  134.95 nm  f=0.1408  <S**2>=0.000
       8 -> 15         0.12792
      11 -> 14        -0.36753
      12 -> 15         0.41837
      12 -> 16        -0.15605
      12 -> 20         0.11120
      13 -> 21         0.18791

 Excited State  13:      Singlet-A      9.4682 eV  130.95 nm  f=0.1950  <S**2>=0.000
       9 -> 16        -0.11117
      10 -> 15        -0.15735
      10 -> 16        -0.19743
      10 -> 17        -0.21490
      12 -> 15        -0.15223
      12 -> 16         0.25477
      12 -> 17         0.36700
      12 -> 20         0.26559
      12 -> 21         0.12041

 Excited State  14:      Singlet-A      9.6140 eV  128.96 nm  f=0.0752  <S**2>=0.000
      10 -> 15         0.11104
      11 -> 14        -0.12776
      11 -> 15         0.15562
      12 -> 15         0.20009
      12 -> 16         0.50421
      12 -> 18         0.22247
      12 -> 20        -0.12160
      12 -> 21        -0.17896

 Excited State  15:      Singlet-A      9.6631 eV  128.31 nm  f=0.0089  <S**2>=0.000
      11 -> 15         0.56901
      11 -> 16         0.25568
      11 -> 17         0.13998
      12 -> 16        -0.10849
      13 -> 15        -0.11729

 The electronic state is 1-A.
 Alpha  occ. eigenvalues --   -1.93647  -1.24605  -1.00590  -0.83123  -0.80144
 Alpha  occ. eigenvalues --   -0.68391  -0.65389  -0.55330  -0.51712  -0.44031
 Alpha  occ. eigenvalues --   -0.43228  -0.40232  -0.28298
 Alpha virt. eigenvalues --    0.12656   0.15874   0.18383   0.23896   0.27005
 Alpha virt. eigenvalues --    0.28381   0.28517   0.29419   0.38474   0.46917
 Alpha virt. eigenvalues --    0.52415

 Mulliken charges:
               1
     1  C   -0.076496
     2  C   -1.929492
     3  O    3.189997
     4  C   -1.958952
     5  C   -0.208887
     6  H    0.185665
     7  H    0.312305
     8  H    0.307214
     9  H    0.178647
 Sum of Mulliken charges =   0.00000

 Dipole moment (field-independent basis, Debye):
    X=              3.0030    Y=             -9.4166    Z=             -0.1313  Tot=              9.8847
 N-N= 1.048873230704D+02 E-N=-1.709020980387D+02  KE=-1.580746958293D+01
 Orbital energies and kinetic energies (alpha):
                                 1                 2
   1         O                -1.936473         -1.423914
   2         O                -1.246052         -1.109213
   3         O                -1.005898         -0.914789
   4         O                -0.831230         -0.630025
   5         O                -0.801441         -0.700777
   6         O                -0.683907         -0.581436
   7         O                -0.653887         -0.527619

 Normal termination of Gaussian 09 at Tue Dec 15 17:06:57 2015.
