 Gaussian 09, Revision D.01,
 Gaussian 09:  ES64L-G09RevD.01 24-Apr-2013

 ------------------------------------------------------------
 #P AM1(Input,print) CIS(Singlets,NStates=15) pop(full) force
 ------------------------------------------------------------

 -----------------
 AM1-Reparam Input
 -----------------
 Symbolic Z-matrix:
 Charge =  0 Multiplicity = 1

                         Standard orientation:
 ---------------------------------------------------------------------
 Center     Atomic      Atomic             Coordinates (Angstroms)
 Number     Number       Type             X           Y           Z
 ---------------------------------------------------------------------
      1          6           0       -1.158379    0.268987    0.024399
      2          6           0       -0.594766   -0.916088    0.019218
      3          8           0        0.769663   -0.928633   -0.014536
      4          6           0        1.047387    0.466421   -0.002715
      5          6           0       -0.099143    1.174056   -0.022885
      6          1           0       -0.130116    2.278516    0.031869
      7          1           0        2.082167    0.677807    0.071047
      8          1           0       -1.035090   -1.957870   -0.020945
      9          1           0       -2.244857    0.470356   -0.073788
 ---------------------------------------------------------------------

 SCF Done:  E(RAM1) =   2.63464296141     A.U. after   13 cycles

 Excitation energies and oscillator strengths:

 Excited State   1:      Singlet-A      5.1596 eV  240.30 nm  f=0.3355  <S**2>=0.000
      13 -> 14         0.69705
 This state for optimization and/or second-order correction.
 Total Energy, E(CIS) =   2.82425294574
 Copying the excited state density for this state as the 1-particle RhoCI density.

 Excited State   2:      Singlet-A      5.7886 eV  214.19 nm  f=0.0018  <S**2>=0.000
      10 -> 15         0.10834
      13 -> 15         0.67706

 Excited State   3:      Singlet-A      6.4833 eV  191.24 nm  f=0.0039  <S**2>=0.000
      10 -> 16        -0.10262
      13 -> 16         0.66536

 Excited State   4:      Singlet-A      6.6989 eV  185.08 nm  f=0.0005  <S**2>=0.000
      12 -> 14         0.69096

 Excited State   5:      Singlet-A      7.3458 eV  168.78 nm  f=0.0064  <S**2>=0.000
      11 -> 14         0.69541

 Excited State   6:      Singlet-A      7.8541 eV  157.86 nm  f=0.0002  <S**2>=0.000
      13 -> 17         0.67433
      13 -> 21        -0.12113

 Excited State   7:      Singlet-A      8.5773 eV  144.55 nm  f=0.1013  <S**2>=0.000
      10 -> 14         0.68945

 Excited State   8:      Singlet-A      8.8363 eV  140.31 nm  f=0.0065  <S**2>=0.000
      10 -> 15         0.25270
      10 -> 16        -0.10240
      12 -> 15         0.10595
      13 -> 18         0.61088
      13 -> 19        -0.11835

 Excited State   9:      Singlet-A      9.0042 eV  137.70 nm  f=0.0747  <S**2>=0.000
       9 -> 15         0.17903
      11 -> 16         0.14337
      11 -> 18        -0.13096
      12 -> 15         0.55222
      12 -> 16        -0.13668
      12 -> 17        -0.18955
      13 -> 18        -0.11803

 Excited State  10:      Singlet-A      9.3458 eV  132.66 nm  f=0.0007  <S**2>=0.000
      10 -> 16        -0.29418
      13 -> 17         0.11461
      13 -> 19         0.60289

 Excited State  11:      Singlet-A      9.4112 eV  131.74 nm  f=0.1825  <S**2>=0.000
       8 -> 15        -0.10880
      11 -> 15         0.51571
      11 -> 16         0.20414
      11 -> 18        -0.21745
      12 -> 15        -0.17970
      12 -> 17        -0.23147

 Excited State  12:      Singlet-A      9.6664 eV  128.26 nm  f=0.0588  <S**2>=0.000
       7 -> 15        -0.11535
      10 -> 15         0.52774
      11 -> 16        -0.19401
      12 -> 16        -0.18390
      12 -> 17         0.14954
      13 -> 15        -0.13385
      13 -> 18        -0.19844

 Excited State  13:      Singlet-A      9.7170 eV  127.60 nm  f=0.0868  <S**2>=0.000
      10 -> 15         0.29424
      11 -> 15        -0.22042
      11 -> 16         0.26057
      11 -> 19        -0.13126
      12 -> 16         0.44473
      12 -> 17        -0.12616
      12 -> 18        -0.11112
      12 -> 19        -0.10286
      13 -> 18        -0.11018

 Excited State  14:      Singlet-A      9.9969 eV  124.02 nm  f=0.0253  <S**2>=0.000
       8 -> 16        -0.11441
       9 -> 15         0.26185
      11 -> 15         0.23118
      11 -> 17         0.11092
      11 -> 19         0.11710
      12 -> 15         0.15711
      12 -> 16         0.40275
      12 -> 17         0.26908

 Excited State  15:      Singlet-A     10.2759 eV  120.66 nm  f=0.0042  <S**2>=0.000
      10 -> 16         0.56871
      12 -> 17        -0.14545
      13 -> 16         0.15068
      13 -> 18         0.15307
      13 -> 19         0.25274

 The electronic state is 1-A.
 Alpha  occ. eigenvalues --   -1.83633  -1.13536  -0.86326  -0.78157  -0.74665
 Alpha  occ. eigenvalues --   -0.65948  -0.62467  -0.54354  -0.52273  -0.43149
 Alpha  occ. eigenvalues --   -0.42212  -0.40593  -0.28180
 Alpha virt. eigenvalues --    0.11297   0.15919   0.19293   0.26942   0.28579
 Alpha virt. eigenvalues --    0.31220   0.37726   0.42904   0.46424   0.55062
 Alpha virt. eigenvalues --    0.57292

 Mulliken charges:
               1
     1  C   -0.213878
     2  C   -1.979180
     3  O    3.428336
     4  C   -1.960246
     5  C   -0.162592
     6  H    0.184542
     7  H    0.244235
     8  H    0.273766
     9  H    0.185018
 Sum of Mulliken charges =   0.00000

 Dipole moment (field-independent basis, Debye):
    X=              7.6199    Y=            -10.2358    Z=             -0.3184  Tot=             12.7646
 N-N= 1.038755248247D+02 E-N=-1.696255571334D+02  KE=-1.434632648512D+01
 Orbital energies and kinetic energies (alpha):
                                 1                 2
   1         O                -1.836332         -1.221105
   2         O                -1.135362         -0.991836
   3         O                -0.863258         -0.808365
   4         O                -0.781568         -0.516109
   5         O                -0.746652         -0.607125
   6         O                -0.659481         -0.545635
   7         O                -0.624675         -0.502553

 Normal termination of Gaussian 09 at Tue Dec 15 17:07:41 2015.
