 Gaussian 09, Revision D.01,
 Gaussian 09:  ES64L-G09RevD.01 24-Apr-2013

 ------------------------------------------------------------
 #P AM1(Input,print) CIS(Singlets,NStates=15) pop(full) force
 ------------------------------------------------------------

 -----------------
 AM1-Reparam Input
 -----------------
 Symbolic Z-matrix:
 Charge =  0 Multiplicity = 1

                         Standard orientation:
 ---------------------------------------------------------------------
 Center     Atomic      Atomic             Coordinates (Angstroms)
 Number     Number       Type             X           Y           Z
 ---------------------------------------------------------------------
      1          6           0        0.924730    0.802116   -0.001519
      2          6           0        0.978904   -0.505533   -0.017753
      3          8           0       -0.216221   -1.150469    0.005277
      4          6           0       -1.100722   -0.163239    0.001189
      5          6           0       -0.573084    1.091656    0.000874
      6          1           0       -1.070051    1.991082   -0.016060
      7          1           0       -2.123968   -0.465702    0.005121
      8          1           0        1.856634   -1.238558    0.028856
      9          1           0        1.688186    1.566931    0.043121
 ---------------------------------------------------------------------

 SCF Done:  E(RAM1) =   2.15063472600     A.U. after   13 cycles

 Excitation energies and oscillator strengths:

 Excited State   1:      Singlet-A      5.1138 eV  242.45 nm  f=0.3645  <S**2>=0.000
      13 -> 14         0.69731
 This state for optimization and/or second-order correction.
 Total Energy, E(CIS) =   2.33856220642
 Copying the excited state density for this state as the 1-particle RhoCI density.

 Excited State   2:      Singlet-A      5.7495 eV  215.64 nm  f=0.0002  <S**2>=0.000
      13 -> 15         0.66735
      13 -> 16        -0.14234
      13 -> 18        -0.12522

 Excited State   3:      Singlet-A      6.0236 eV  205.83 nm  f=0.0014  <S**2>=0.000
      13 -> 15         0.15153
      13 -> 16         0.66206
      13 -> 17        -0.13874

 Excited State   4:      Singlet-A      6.8456 eV  181.12 nm  f=0.0002  <S**2>=0.000
      12 -> 14         0.70232

 Excited State   5:      Singlet-A      7.6042 eV  163.05 nm  f=0.0002  <S**2>=0.000
      13 -> 17        -0.34871
      13 -> 18         0.52010
      13 -> 19         0.12098
      13 -> 21         0.12119
      13 -> 22        -0.22232

 Excited State   6:      Singlet-A      8.1575 eV  151.99 nm  f=0.0143  <S**2>=0.000
      10 -> 14        -0.24667
      13 -> 17         0.52957
      13 -> 18         0.36902

 Excited State   7:      Singlet-A      8.4343 eV  147.00 nm  f=0.0006  <S**2>=0.000
      10 -> 14         0.64848
      13 -> 17         0.20261
      13 -> 18         0.13054

 Excited State   8:      Singlet-A      8.7799 eV  141.21 nm  f=0.0017  <S**2>=0.000
      13 -> 19         0.67095
      13 -> 22         0.12086

 Excited State   9:      Singlet-A      8.8282 eV  140.44 nm  f=0.0685  <S**2>=0.000
      11 -> 14         0.59011
      12 -> 15         0.28936
      13 -> 21         0.12866

 Excited State  10:      Singlet-A      9.2078 eV  134.65 nm  f=0.2641  <S**2>=0.000
       9 -> 16        -0.11796
      11 -> 14        -0.26748
      12 -> 15         0.51929
      12 -> 16        -0.25918
      12 -> 18        -0.13736

 Excited State  11:      Singlet-A      9.3649 eV  132.39 nm  f=0.0002  <S**2>=0.000
      13 -> 17        -0.14098
      13 -> 18         0.22647
      13 -> 20        -0.11576
      13 -> 21        -0.29885
      13 -> 22         0.55954

 Excited State  12:      Singlet-A      9.6144 eV  128.96 nm  f=0.0971  <S**2>=0.000
      11 -> 15         0.11483
      13 -> 20         0.66741
      13 -> 22         0.10699

 Excited State  13:      Singlet-A      9.7967 eV  126.56 nm  f=0.0648  <S**2>=0.000
       9 -> 16         0.11057
      10 -> 15        -0.10625
      11 -> 14        -0.16234
      11 -> 15         0.10028
      12 -> 15         0.27629
      12 -> 16         0.54426
      12 -> 17        -0.13299

 Excited State  14:      Singlet-A      9.9560 eV  124.53 nm  f=0.0032  <S**2>=0.000
       7 -> 15        -0.13377
      11 -> 15         0.64404
      11 -> 16         0.13322
      13 -> 15        -0.11866

 Excited State  15:      Singlet-A     10.1175 eV  122.54 nm  f=0.0002  <S**2>=0.000
       7 -> 16         0.13923
      11 -> 15        -0.12696
      11 -> 16         0.64833
      13 -> 16         0.12210

 The electronic state is 1-A.
 Alpha  occ. eigenvalues --   -1.94600  -1.17889  -0.93241  -0.81385  -0.77271
 Alpha  occ. eigenvalues --   -0.69673  -0.66048  -0.53424  -0.52910  -0.45770
 Alpha  occ. eigenvalues --   -0.44533  -0.40477  -0.27055
 Alpha virt. eigenvalues --    0.11453   0.16069   0.17617   0.27312   0.28385
 Alpha virt. eigenvalues --    0.29967   0.32103   0.33034   0.33070   0.41752
 Alpha virt. eigenvalues --    0.45156

 Mulliken charges:
               1
     1  C   -0.118236
     2  C   -1.827038
     3  O    3.182408
     4  C   -1.868595
     5  C   -0.193588
     6  H    0.153564
     7  H    0.265903
     8  H    0.256012
     9  H    0.149570
 Sum of Mulliken charges =   0.00000

 Dipole moment (field-independent basis, Debye):
    X=             -1.7960    Y=            -11.1932    Z=              0.2791  Tot=             11.3398
 N-N= 1.041642372560D+02 E-N=-1.694193120522D+02  KE=-1.532235868281D+01
 Orbital energies and kinetic energies (alpha):
                                 1                 2
   1         O                -1.946004         -1.375894
   2         O                -1.178887         -1.048152
   3         O                -0.932407         -0.883395
   4         O                -0.813849         -0.570916
   5         O                -0.772712         -0.678608
   6         O                -0.696733         -0.574973
   7         O                -0.660478         -0.525093

 Normal termination of Gaussian 09 at Tue Dec 15 17:09:22 2015.
