 Gaussian 09, Revision D.01,
 Gaussian 09:  ES64L-G09RevD.01 24-Apr-2013

 ------------------------------------------------------------
 #P AM1(Input,print) CIS(Singlets,NStates=15) pop(full) force
 ------------------------------------------------------------

 -----------------
 AM1-Reparam Input
 -----------------
 Symbolic Z-matrix:
 Charge =  0 Multiplicity = 1

                         Standard orientation:
 ---------------------------------------------------------------------
 Center     Atomic      Atomic             Coordinates (Angstroms)
 Number     Number       Type             X           Y           Z
 ---------------------------------------------------------------------
      1          6           0       -0.600845    1.011082   -0.011114
      2          6           0       -1.134477   -0.269980   -0.037861
      3          8           0       -0.093479   -1.155839    0.034801
      4          6           0        1.096304   -0.450574   -0.034439
      5          6           0        0.759577    0.910126    0.013513
      6          1           0        1.468851    1.740545    0.047492
      7          1           0        1.958711   -0.939815   -0.005863
      8          1           0       -2.157857   -0.646201    0.045303
      9          1           0       -1.245235    1.888258    0.054067
 ---------------------------------------------------------------------

 SCF Done:  E(RAM1) =   1.81039574557     A.U. after   14 cycles

 Excitation energies and oscillator strengths:

 Excited State   1:      Singlet-A      5.9465 eV  208.50 nm  f=0.2868  <S**2>=0.000
      11 -> 17         0.11692
      13 -> 14         0.68167
 This state for optimization and/or second-order correction.
 Total Energy, E(CIS) =   2.02892694252
 Copying the excited state density for this state as the 1-particle RhoCI density.

 Excited State   2:      Singlet-A      6.9068 eV  179.51 nm  f=0.0057  <S**2>=0.000
      10 -> 15         0.11368
      13 -> 15         0.62675
      13 -> 16         0.20417
      13 -> 17        -0.18395

 Excited State   3:      Singlet-A      7.0781 eV  175.17 nm  f=0.0009  <S**2>=0.000
      12 -> 14         0.69728

 Excited State   4:      Singlet-A      7.3188 eV  169.40 nm  f=0.0031  <S**2>=0.000
      10 -> 15        -0.10622
      10 -> 16        -0.10372
      13 -> 15        -0.19417
      13 -> 16         0.62433
      13 -> 19         0.16258

 Excited State   5:      Singlet-A      7.5893 eV  163.37 nm  f=0.0031  <S**2>=0.000
      10 -> 14        -0.12165
      11 -> 14         0.68472

 Excited State   6:      Singlet-A      8.5525 eV  144.97 nm  f=0.0045  <S**2>=0.000
      10 -> 15         0.14142
      13 -> 15         0.12605
      13 -> 17         0.48606
      13 -> 18        -0.40501
      13 -> 21         0.22178

 Excited State   7:      Singlet-A      8.6879 eV  142.71 nm  f=0.0046  <S**2>=0.000
      10 -> 16        -0.15786
      13 -> 17         0.43430
      13 -> 18         0.46399
      13 -> 21        -0.21361

 Excited State   8:      Singlet-A      8.9908 eV  137.90 nm  f=0.0790  <S**2>=0.000
      10 -> 14         0.66712
      11 -> 14         0.11670

 Excited State   9:      Singlet-A      9.1084 eV  136.12 nm  f=0.0826  <S**2>=0.000
       8 -> 15        -0.10423
       9 -> 15        -0.10307
       9 -> 16         0.10298
       9 -> 19         0.10669
      11 -> 15         0.33964
      11 -> 16         0.23930
      11 -> 17        -0.27564
      12 -> 15        -0.12877
      12 -> 16         0.18403
      12 -> 18        -0.28477
      12 -> 21         0.11829
      13 -> 14         0.14704

 Excited State  10:      Singlet-A      9.4420 eV  131.31 nm  f=0.0005  <S**2>=0.000
      10 -> 15         0.15123
      10 -> 16         0.14421
      13 -> 19         0.63349
      13 -> 21         0.10988

 Excited State  11:      Singlet-A      9.6088 eV  129.03 nm  f=0.0447  <S**2>=0.000
      11 -> 15         0.33209
      11 -> 16        -0.12043
      11 -> 19        -0.11729
      12 -> 15         0.52745
      12 -> 17        -0.18596

 Excited State  12:      Singlet-A      9.8754 eV  125.55 nm  f=0.1035  <S**2>=0.000
      10 -> 15        -0.11229
      11 -> 15        -0.13841
      11 -> 16        -0.31587
      12 -> 16         0.49664
      12 -> 19         0.12785
      13 -> 18        -0.10687
      13 -> 19         0.10174
      13 -> 21        -0.13204

 Excited State  13:      Singlet-A      9.9367 eV  124.77 nm  f=0.0305  <S**2>=0.000
      10 -> 15         0.23096
      11 -> 16        -0.12736
      12 -> 16         0.17072
      13 -> 18         0.27988
      13 -> 19        -0.15752
      13 -> 21         0.48357

 Excited State  14:      Singlet-A     10.0497 eV  123.37 nm  f=0.0642  <S**2>=0.000
       8 -> 15         0.14511
       8 -> 16        -0.11352
       9 -> 15         0.15909
      10 -> 14         0.12684
      11 -> 15        -0.21549
      11 -> 16         0.15004
      11 -> 18         0.21519
      11 -> 19         0.22836
      12 -> 15         0.28167
      12 -> 16         0.13190
      12 -> 17         0.18027
      12 -> 18        -0.15355
      12 -> 20        -0.14272
      13 -> 21         0.14451

 Excited State  15:      Singlet-A     10.1036 eV  122.71 nm  f=0.0785  <S**2>=0.000
      10 -> 15         0.27619
      10 -> 16        -0.12892
      13 -> 20         0.59330
      13 -> 21        -0.14028

 The electronic state is 1-A.
 Alpha  occ. eigenvalues --   -1.93337  -1.21911  -0.97652  -0.81476  -0.80437
 Alpha  occ. eigenvalues --   -0.68943  -0.66372  -0.53153  -0.50044  -0.41998
 Alpha  occ. eigenvalues --   -0.40478  -0.39263  -0.29580
 Alpha virt. eigenvalues --    0.14010   0.19310   0.21505   0.25885   0.27746
 Alpha virt. eigenvalues --    0.30250   0.31569   0.34681   0.35570   0.44167
 Alpha virt. eigenvalues --    0.49284

 Mulliken charges:
               1
     1  C   -0.085903
     2  C   -1.959069
     3  O    3.147544
     4  C   -1.961476
     5  C   -0.075350
     6  H    0.155923
     7  H    0.307605
     8  H    0.313763
     9  H    0.156964
 Sum of Mulliken charges =   0.00000

 Dipole moment (field-independent basis, Debye):
    X=             -1.1799    Y=             -9.7386    Z=              1.2397  Tot=              9.8879
 N-N= 1.039514009281D+02 E-N=-1.693320444166D+02  KE=-1.565711623539D+01
 Orbital energies and kinetic energies (alpha):
                                 1                 2
   1         O                -1.933371         -1.401150
   2         O                -1.219115         -1.083316
   3         O                -0.976517         -0.907123
   4         O                -0.814757         -0.706654
   5         O                -0.804372         -0.611759
   6         O                -0.689434         -0.582955
   7         O                -0.663719         -0.579189

 Normal termination of Gaussian 09 at Tue Dec 15 17:09:57 2015.
