 Gaussian 09, Revision D.01,
 Gaussian 09:  ES64L-G09RevD.01 24-Apr-2013

 ------------------------------------------------------------
 #P AM1(Input,print) CIS(Singlets,NStates=15) pop(full) force
 ------------------------------------------------------------

 -----------------
 AM1-Reparam Input
 -----------------
 Symbolic Z-matrix:
 Charge =  0 Multiplicity = 1

                         Standard orientation:
 ---------------------------------------------------------------------
 Center     Atomic      Atomic             Coordinates (Angstroms)
 Number     Number       Type             X           Y           Z
 ---------------------------------------------------------------------
      1          6           0        0.657691    0.968838    0.044262
      2          6           0        1.142680   -0.235774   -0.032656
      3          8           0        0.098969   -1.115651    0.020825
      4          6           0       -1.072876   -0.403624   -0.016764
      5          6           0       -0.822255    0.845673   -0.004951
      6          1           0       -1.530414    1.715047   -0.027783
      7          1           0       -1.984058   -1.063644    0.006417
      8          1           0        2.122164   -0.697798   -0.032013
      9          1           0        1.169120    1.920926   -0.052563
 ---------------------------------------------------------------------

 SCF Done:  E(RAM1) =  0.356468955251E-01 A.U. after   13 cycles

 Excitation energies and oscillator strengths:

 Excited State   1:      Singlet-A      4.9863 eV  248.65 nm  f=0.0592  <S**2>=0.000
      12 -> 15         0.26731
      13 -> 14         0.64637
 This state for optimization and/or second-order correction.
 Total Energy, E(CIS) =  0.218889450026
 Copying the excited state density for this state as the 1-particle RhoCI density.

 Excited State   2:      Singlet-A      5.5315 eV  224.14 nm  f=0.0007  <S**2>=0.000
      12 -> 14         0.48219
      13 -> 15        -0.45953
      13 -> 16        -0.20168

 Excited State   3:      Singlet-A      5.5707 eV  222.56 nm  f=0.0004  <S**2>=0.000
      12 -> 14         0.15484
      12 -> 16         0.10716
      13 -> 15        -0.14710
      13 -> 16         0.63710

 Excited State   4:      Singlet-A      5.7779 eV  214.58 nm  f=0.0020  <S**2>=0.000
       7 -> 16        -0.16650
      12 -> 16         0.63903
      12 -> 22        -0.12895
      13 -> 16        -0.12951

 Excited State   5:      Singlet-A      6.3714 eV  194.60 nm  f=0.0300  <S**2>=0.000
      12 -> 14        -0.12995
      12 -> 15        -0.19011
      12 -> 18         0.17520
      12 -> 20        -0.10164
      12 -> 22        -0.14504
      12 -> 23        -0.10353
      13 -> 15        -0.13354
      13 -> 17        -0.13743
      13 -> 18         0.37629
      13 -> 20        -0.16425
      13 -> 22        -0.25128
      13 -> 23        -0.23425

 Excited State   6:      Singlet-A      6.4105 eV  193.41 nm  f=0.1914  <S**2>=0.000
      11 -> 16         0.10067
      12 -> 14         0.32240
      12 -> 15         0.34367
      12 -> 18         0.10126
      13 -> 14        -0.13375
      13 -> 15         0.35517
      13 -> 17        -0.18124
      13 -> 18         0.12272
      13 -> 23        -0.12346

 Excited State   7:      Singlet-A      6.4756 eV  191.46 nm  f=0.2267  <S**2>=0.000
      11 -> 16        -0.12739
      12 -> 14        -0.26420
      12 -> 15         0.44450
      13 -> 14        -0.17925
      13 -> 15        -0.31144
      13 -> 17        -0.22215

 Excited State   8:      Singlet-A      6.5318 eV  189.82 nm  f=0.0221  <S**2>=0.000
      12 -> 15         0.22829
      12 -> 19        -0.20086
      13 -> 17         0.53125
      13 -> 18         0.13308
      13 -> 20        -0.12811
      13 -> 22        -0.17895

 Excited State   9:      Singlet-A      6.5744 eV  188.59 nm  f=0.0027  <S**2>=0.000
      12 -> 18         0.11877
      12 -> 19        -0.21984
      12 -> 22         0.18749
      12 -> 23        -0.18675
      13 -> 17        -0.16557
      13 -> 18        -0.10086
      13 -> 19         0.41626
      13 -> 22        -0.25180
      13 -> 23         0.17837

 Excited State  10:      Singlet-A      6.8187 eV  181.83 nm  f=0.0055  <S**2>=0.000
      12 -> 17         0.57500
      12 -> 18         0.13831
      12 -> 19        -0.16584
      12 -> 20        -0.16070
      12 -> 21         0.14815
      13 -> 18        -0.11983
      13 -> 19        -0.14350

 Excited State  11:      Singlet-A      7.2394 eV  171.26 nm  f=0.0011  <S**2>=0.000
       9 -> 15        -0.19987
      10 -> 14        -0.37144
      11 -> 14         0.52963

 Excited State  12:      Singlet-A      7.5442 eV  164.34 nm  f=0.0001  <S**2>=0.000
       8 -> 14        -0.12871
      10 -> 15         0.12729
      11 -> 15         0.43088
      12 -> 17         0.11343
      12 -> 18        -0.26331
      12 -> 19         0.12748
      12 -> 20        -0.14537
      12 -> 21         0.14289
      12 -> 23         0.13555
      12 -> 24        -0.10743
      13 -> 18         0.18890
      13 -> 19         0.22682

 Excited State  13:      Singlet-A      7.6269 eV  162.56 nm  f=0.0063  <S**2>=0.000
       9 -> 15         0.18145
      10 -> 14         0.45349
      11 -> 14         0.40874
      12 -> 18        -0.11916
      12 -> 19        -0.11490

 Excited State  14:      Singlet-A      7.7633 eV  159.70 nm  f=0.0016  <S**2>=0.000
       8 -> 14        -0.10097
       9 -> 14         0.32350
      10 -> 15         0.35206
      11 -> 15         0.30035
      12 -> 18         0.19201
      12 -> 20         0.10388
      13 -> 18        -0.14751
      13 -> 19        -0.14664
      13 -> 21        -0.10112
      13 -> 22         0.11294

 Excited State  15:      Singlet-A      7.8268 eV  158.41 nm  f=0.0018  <S**2>=0.000
      10 -> 14        -0.18263
      12 -> 18        -0.19260
      12 -> 19        -0.22688
      12 -> 20        -0.11535
      12 -> 21        -0.17146
      12 -> 22         0.23924
      13 -> 17        -0.15589
      13 -> 18         0.27744
      13 -> 19        -0.25231
      13 -> 20         0.13676
      13 -> 21        -0.16959
      13 -> 23         0.12101
      13 -> 24         0.13377

 The electronic state is 1-A.
 Alpha  occ. eigenvalues --   -1.57561  -1.22729  -1.12675  -0.82299  -0.79947
 Alpha  occ. eigenvalues --   -0.68223  -0.60179  -0.55642  -0.51578  -0.49992
 Alpha  occ. eigenvalues --   -0.48342  -0.39348  -0.36468
 Alpha virt. eigenvalues --    0.04194   0.06870   0.09853   0.12744   0.14831
 Alpha virt. eigenvalues --    0.15323   0.17625   0.17991   0.19642   0.20648
 Alpha virt. eigenvalues --    0.22838

 Mulliken charges:
               1
     1  C   -0.217247
     2  C   -0.065933
     3  O   -0.131076
     4  C   -0.069416
     5  C   -0.213242
     6  H    0.161889
     7  H    0.190867
     8  H    0.189626
     9  H    0.154530
 Sum of Mulliken charges =   0.00000

 Dipole moment (field-independent basis, Debye):
    X=             -0.1143    Y=              0.4233    Z=             -0.1256  Tot=              0.4561
 N-N= 1.038508339303D+02 E-N=-1.717560274211D+02  KE=-1.657468416644D+01
 Orbital energies and kinetic energies (alpha):
                                 1                 2
   1         O                -1.575608         -1.330024
   2         O                -1.227292         -1.035853
   3         O                -1.126751         -0.978037
   4         O                -0.822994         -0.702284
   5         O                -0.799468         -0.716748
   6         O                -0.682229         -0.603644
   7         O                -0.601789         -0.492471

 Normal termination of Gaussian 09 at Tue Dec 15 16:15:32 2015.
