 Gaussian 09, Revision D.01,
 Gaussian 09:  ES64L-G09RevD.01 24-Apr-2013

 ------------------------------------------------------------
 #P AM1(Input,print) CIS(Singlets,NStates=15) pop(full) force
 ------------------------------------------------------------

 -----------------
 AM1-Reparam Input
 -----------------
 Symbolic Z-matrix:
 Charge =  0 Multiplicity = 1

                         Standard orientation:
 ---------------------------------------------------------------------
 Center     Atomic      Atomic             Coordinates (Angstroms)
 Number     Number       Type             X           Y           Z
 ---------------------------------------------------------------------
      1          6           0        0.788970    0.885096   -0.003663
      2          6           0        1.102359   -0.368707    0.027840
      3          8           0       -0.079589   -1.151040   -0.021614
      4          6           0       -1.150744   -0.252078    0.029135
      5          6           0       -0.671583    0.959252   -0.022512
      6          1           0       -1.227418    1.853659    0.035861
      7          1           0       -2.037413   -0.689635   -0.014642
      8          1           0        2.007510   -1.003691   -0.013128
      9          1           0        1.480020    1.706611   -0.019980
 ---------------------------------------------------------------------

 SCF Done:  E(RAM1) =  0.331711545025E-01 A.U. after   13 cycles

 Excitation energies and oscillator strengths:

 Excited State   1:      Singlet-A      4.8171 eV  257.38 nm  f=0.0741  <S**2>=0.000
      12 -> 15        -0.22081
      13 -> 14         0.66311
 This state for optimization and/or second-order correction.
 Total Energy, E(CIS) =  0.210197156651
 Copying the excited state density for this state as the 1-particle RhoCI density.

 Excited State   2:      Singlet-A      5.4599 eV  227.08 nm  f=0.0004  <S**2>=0.000
      12 -> 14         0.50302
      13 -> 15         0.47462

 Excited State   3:      Singlet-A      5.5242 eV  224.44 nm  f=0.0003  <S**2>=0.000
      12 -> 16        -0.10661
      13 -> 16         0.67123

 Excited State   4:      Singlet-A      5.7903 eV  214.13 nm  f=0.0014  <S**2>=0.000
       7 -> 16         0.18948
      12 -> 16         0.64048
      12 -> 22        -0.11013
      13 -> 16         0.12256

 Excited State   5:      Singlet-A      6.3811 eV  194.30 nm  f=0.3016  <S**2>=0.000
      11 -> 16        -0.15305
      12 -> 14        -0.39646
      13 -> 15         0.45079
      13 -> 18        -0.13325
      13 -> 19        -0.13639
      13 -> 23         0.11658

 Excited State   6:      Singlet-A      6.3892 eV  194.05 nm  f=0.0595  <S**2>=0.000
      12 -> 14        -0.16897
      12 -> 18        -0.12903
      12 -> 19        -0.14818
      12 -> 21         0.10415
      12 -> 22         0.10117
      12 -> 23         0.10455
      13 -> 15         0.19819
      13 -> 18         0.23517
      13 -> 19         0.34336
      13 -> 20        -0.14024
      13 -> 21        -0.16620
      13 -> 22        -0.20025
      13 -> 23        -0.20167

 Excited State   7:      Singlet-A      6.4597 eV  191.93 nm  f=0.0091  <S**2>=0.000
      10 -> 14        -0.10570
      12 -> 15         0.10075
      12 -> 18         0.24838
      12 -> 22         0.14926
      12 -> 23        -0.12726
      13 -> 17        -0.28483
      13 -> 18         0.31976
      13 -> 19        -0.12921
      13 -> 22         0.28011
      13 -> 23        -0.18121
      13 -> 24         0.10482

 Excited State   8:      Singlet-A      6.5417 eV  189.53 nm  f=0.0882  <S**2>=0.000
      12 -> 15         0.63786
      13 -> 14         0.19964
      13 -> 18        -0.10111

 Excited State   9:      Singlet-A      6.5812 eV  188.39 nm  f=0.0044  <S**2>=0.000
      11 -> 14         0.11765
      12 -> 15         0.10126
      13 -> 17         0.56747
      13 -> 18         0.29512
      13 -> 19        -0.16544

 Excited State  10:      Singlet-A      6.9586 eV  178.17 nm  f=0.0025  <S**2>=0.000
      12 -> 17         0.54547
      12 -> 18         0.30958
      12 -> 20        -0.13586
      13 -> 19         0.17252

 Excited State  11:      Singlet-A      7.1762 eV  172.77 nm  f=0.0037  <S**2>=0.000
       9 -> 15         0.19150
      10 -> 14        -0.25179
      11 -> 14         0.59632

 Excited State  12:      Singlet-A      7.6269 eV  162.56 nm  f=0.0001  <S**2>=0.000
      10 -> 14         0.12023
      10 -> 15        -0.10389
      11 -> 14         0.10839
      11 -> 15        -0.28248
      12 -> 17        -0.21080
      12 -> 18         0.31507
      12 -> 19         0.16436
      12 -> 20         0.17599
      12 -> 23        -0.17875
      12 -> 24        -0.17210
      13 -> 18        -0.12591
      13 -> 19         0.15000
      13 -> 20        -0.14301

 Excited State  13:      Singlet-A      7.6539 eV  161.99 nm  f=0.0037  <S**2>=0.000
       9 -> 14         0.15088
       9 -> 15        -0.14981
      10 -> 14         0.46705
      10 -> 15        -0.20343
      11 -> 14         0.24084
      12 -> 19        -0.22105
      13 -> 19        -0.15593
      13 -> 24         0.11847

 Excited State  14:      Singlet-A      7.7893 eV  159.17 nm  f=0.0011  <S**2>=0.000
       8 -> 14         0.11571
       9 -> 14         0.44061
      10 -> 15        -0.32607
      12 -> 19         0.19803
      13 -> 18         0.11494
      13 -> 19         0.13191
      13 -> 20         0.20100
      13 -> 22         0.11628
      13 -> 24        -0.12454

 Excited State  15:      Singlet-A      7.8525 eV  157.89 nm  f=0.0003  <S**2>=0.000
       9 -> 14         0.29128
      10 -> 14        -0.22841
      11 -> 14        -0.14122
      11 -> 15         0.25432
      12 -> 18         0.14221
      12 -> 19        -0.14527
      12 -> 22         0.13531
      13 -> 17         0.11418
      13 -> 18        -0.20109
      13 -> 19        -0.19613
      13 -> 20        -0.17715
      13 -> 24         0.15467

 The electronic state is 1-A.
 Alpha  occ. eigenvalues --   -1.54913  -1.23079  -1.12879  -0.82269  -0.81163
 Alpha  occ. eigenvalues --   -0.68456  -0.58686  -0.55787  -0.52059  -0.51015
 Alpha  occ. eigenvalues --   -0.49066  -0.39968  -0.36361
 Alpha virt. eigenvalues --    0.03294   0.06658   0.09939   0.13191   0.15054
 Alpha virt. eigenvalues --    0.15451   0.18198   0.18312   0.19548   0.20699
 Alpha virt. eigenvalues --    0.21734

 Mulliken charges:
               1
     1  C   -0.192589
     2  C   -0.070471
     3  O   -0.153507
     4  C   -0.051982
     5  C   -0.202449
     6  H    0.150418
     7  H    0.173600
     8  H    0.189912
     9  H    0.157069
 Sum of Mulliken charges =   0.00000

 Dipole moment (field-independent basis, Debye):
    X=              0.2164    Y=              0.5980    Z=              0.0007  Tot=              0.6359
 N-N= 1.036371083242D+02 E-N=-1.713189734790D+02  KE=-1.657491432790D+01
 Orbital energies and kinetic energies (alpha):
                                 1                 2
   1         O                -1.549133         -1.316180
   2         O                -1.230786         -1.035928
   3         O                -1.128790         -0.982889
   4         O                -0.822687         -0.723633
   5         O                -0.811626         -0.710867
   6         O                -0.684563         -0.604397
   7         O                -0.586855         -0.482195

 Normal termination of Gaussian 09 at Tue Dec 15 16:18:05 2015.
