 Gaussian 09, Revision D.01,
 Gaussian 09:  ES64L-G09RevD.01 24-Apr-2013

 ------------------------------------------------------------
 #P AM1(Input,print) CIS(Singlets,NStates=15) pop(full) force
 ------------------------------------------------------------

 -----------------
 AM1-Reparam Input
 -----------------
 Symbolic Z-matrix:
 Charge =  0 Multiplicity = 1

                         Standard orientation:
 ---------------------------------------------------------------------
 Center     Atomic      Atomic             Coordinates (Angstroms)
 Number     Number       Type             X           Y           Z
 ---------------------------------------------------------------------
      1          6           0       -0.975310    0.715668   -0.009273
      2          6           0       -0.928919   -0.602198   -0.018064
      3          8           0        0.318882   -1.148367    0.018147
      4          6           0        1.166129   -0.012823   -0.013168
      5          6           0        0.405930    1.103118    0.015270
      6          1           0        0.802026    2.164230   -0.016746
      7          1           0        2.195371   -0.198491   -0.022500
      8          1           0       -1.727105   -1.367089   -0.003242
      9          1           0       -1.828327    1.365698    0.048715
 ---------------------------------------------------------------------

 SCF Done:  E(RAM1) =  -4.66690376994     A.U. after   14 cycles

 Excitation energies and oscillator strengths:

 Excited State   1:      Singlet-A      6.8557 eV  180.85 nm  f=0.0260  <S**2>=0.000
      13 -> 14         0.34086
      13 -> 16         0.60397
 This state for optimization and/or second-order correction.
 Total Energy, E(CIS) =  -4.41496299847
 Copying the excited state density for this state as the 1-particle RhoCI density.

 Excited State   2:      Singlet-A      7.0778 eV  175.17 nm  f=0.1281  <S**2>=0.000
      12 -> 15         0.13775
      13 -> 14         0.53199
      13 -> 15        -0.24496
      13 -> 16        -0.33198

 Excited State   3:      Singlet-A      7.5190 eV  164.89 nm  f=0.1392  <S**2>=0.000
      12 -> 14        -0.21021
      13 -> 14         0.22938
      13 -> 15         0.61006
      13 -> 16        -0.10575

 Excited State   4:      Singlet-A      8.4875 eV  146.08 nm  f=0.0000  <S**2>=0.000
      11 -> 14         0.12801
      13 -> 17         0.67491

 Excited State   5:      Singlet-A      8.6093 eV  144.01 nm  f=0.0005  <S**2>=0.000
       9 -> 14        -0.13032
      11 -> 14         0.62959
      11 -> 15        -0.20906
      13 -> 17        -0.14551

 Excited State   6:      Singlet-A      9.2899 eV  133.46 nm  f=0.0050  <S**2>=0.000
       8 -> 14        -0.11480
       9 -> 14        -0.10679
      10 -> 14         0.55738
      10 -> 15        -0.33825
      11 -> 15        -0.10618
      12 -> 16        -0.10686

 Excited State   7:      Singlet-A      9.3500 eV  132.60 nm  f=0.0243  <S**2>=0.000
      12 -> 14         0.29705
      12 -> 15         0.12752
      12 -> 16         0.59255

 Excited State   8:      Singlet-A      9.6179 eV  128.91 nm  f=0.1390  <S**2>=0.000
       8 -> 16         0.12496
       9 -> 17        -0.14374
      11 -> 16         0.10422
      12 -> 14         0.25199
      12 -> 15         0.50317
      12 -> 16        -0.28646
      13 -> 14        -0.11632

 Excited State   9:      Singlet-A      9.6783 eV  128.11 nm  f=0.0878  <S**2>=0.000
      11 -> 16         0.20280
      12 -> 14         0.47648
      12 -> 15        -0.34604
      12 -> 16        -0.17301
      13 -> 15         0.15277

 Excited State  10:      Singlet-A     10.0580 eV  123.27 nm  f=0.0042  <S**2>=0.000
       8 -> 15         0.13318
       9 -> 15        -0.24382
      10 -> 14         0.17018
      11 -> 14         0.25479
      11 -> 15         0.55598

 Excited State  11:      Singlet-A     10.2088 eV  121.45 nm  f=0.0014  <S**2>=0.000
      12 -> 17        -0.19705
      13 -> 18         0.65679

 Excited State  12:      Singlet-A     10.5746 eV  117.25 nm  f=0.0178  <S**2>=0.000
       9 -> 14         0.48229
       9 -> 15        -0.15358
      10 -> 15        -0.27624
      11 -> 15        -0.17126
      11 -> 16        -0.25058
      13 -> 19         0.13295

 Excited State  13:      Singlet-A     10.6572 eV  116.34 nm  f=0.1113  <S**2>=0.000
       9 -> 14         0.17361
       9 -> 16        -0.16381
      10 -> 15        -0.16633
      10 -> 16        -0.22939
      10 -> 17         0.11246
      10 -> 21         0.10110
      11 -> 16         0.46999
      11 -> 19        -0.10131
      12 -> 14        -0.15245
      12 -> 15        -0.10522

 Excited State  14:      Singlet-A     10.8439 eV  114.34 nm  f=0.0005  <S**2>=0.000
       9 -> 15         0.11208
      10 -> 15         0.16086
      13 -> 19         0.61203
      13 -> 20         0.15273

 Excited State  15:      Singlet-A     10.9561 eV  113.16 nm  f=0.0081  <S**2>=0.000
       8 -> 15        -0.11740
       9 -> 14         0.25624
       9 -> 15         0.18298
      10 -> 14         0.10754
      10 -> 15         0.16820
      12 -> 17         0.49691
      13 -> 18         0.13575
      13 -> 19        -0.16100
      13 -> 21         0.13084

 The electronic state is 1-A.
 Alpha  occ. eigenvalues --   -3.61805  -1.23814  -0.96035  -0.89166  -0.86533
 Alpha  occ. eigenvalues --   -0.82513  -0.79061  -0.65176  -0.59119  -0.57524
 Alpha  occ. eigenvalues --   -0.55142  -0.54415  -0.44132
 Alpha virt. eigenvalues --    0.04563   0.05381   0.07283   0.11291   0.17905
 Alpha virt. eigenvalues --    0.21041   0.24289   0.25024   0.32827   0.37506
 Alpha virt. eigenvalues --    0.38343

 Mulliken charges:
               1
     1  C   -0.083852
     2  C   -0.855777
     3  O    1.855714
     4  C   -0.866736
     5  C   -0.043148
     6  H   -0.002545
     7  H   -0.005751
     8  H    0.009681
     9  H   -0.007587
 Sum of Mulliken charges =   0.00000

 Dipole moment (field-independent basis, Debye):
    X=              1.6722    Y=             -7.2472    Z=              0.2607  Tot=              7.4422
 N-N= 1.051271881754D+02 E-N=-1.735025044253D+02  KE=-2.099698234875D+01
 Orbital energies and kinetic energies (alpha):
                                 1                 2
   1         O                -3.618052         -3.040405
   2         O                -1.238136         -1.032836
   3         O                -0.960348         -0.705963
   4         O                -0.891662         -0.699585
   5         O                -0.865331         -0.777482
   6         O                -0.825128         -0.836927
   7         O                -0.790606         -0.597468

 Normal termination of Gaussian 09 at Fri Dec 11 13:41:33 2015.
