 Gaussian 09, Revision D.01,
 Gaussian 09:  ES64L-G09RevD.01 24-Apr-2013

 ------------------------------------------------------------
 #P AM1(Input,print) CIS(Singlets,NStates=15) pop(full) force
 ------------------------------------------------------------

 -----------------
 AM1-Reparam Input
 -----------------
 Symbolic Z-matrix:
 Charge =  0 Multiplicity = 1

                         Standard orientation:
 ---------------------------------------------------------------------
 Center     Atomic      Atomic             Coordinates (Angstroms)
 Number     Number       Type             X           Y           Z
 ---------------------------------------------------------------------
      1          6           0       -0.589631    1.054575   -0.016792
      2          6           0       -1.111765   -0.243624    0.022295
      3          8           0       -0.166484   -1.104616   -0.019738
      4          6           0        1.022811   -0.500155    0.018573
      5          6           0        0.862725    0.830863    0.001271
      6          1           0        1.536019    1.614345    0.031805
      7          1           0        1.917824   -1.073725   -0.032990
      8          1           0       -2.131600   -0.546810    0.034210
      9          1           0       -1.095214    1.993169   -0.027213
 ---------------------------------------------------------------------

 SCF Done:  E(RAM1) =   1.36464999385     A.U. after   13 cycles

 Excitation energies and oscillator strengths:

 Excited State   1:      Singlet-A      5.8762 eV  210.99 nm  f=0.3359  <S**2>=0.000
      13 -> 14         0.69421
 This state for optimization and/or second-order correction.
 Total Energy, E(CIS) =   1.58059796213
 Copying the excited state density for this state as the 1-particle RhoCI density.

 Excited State   2:      Singlet-A      6.3205 eV  196.16 nm  f=0.0020  <S**2>=0.000
      13 -> 15         0.65747
      13 -> 17         0.21151

 Excited State   3:      Singlet-A      6.7120 eV  184.72 nm  f=0.0002  <S**2>=0.000
      13 -> 16         0.64472
      13 -> 18        -0.13767
      13 -> 20         0.17475

 Excited State   4:      Singlet-A      7.1424 eV  173.59 nm  f=0.0005  <S**2>=0.000
      11 -> 14         0.58147
      12 -> 14         0.37636

 Excited State   5:      Singlet-A      7.8356 eV  158.23 nm  f=0.0004  <S**2>=0.000
      12 -> 15        -0.13802
      13 -> 15         0.10547
      13 -> 16        -0.13352
      13 -> 17        -0.26498
      13 -> 18        -0.31153
      13 -> 19         0.16426
      13 -> 20         0.11318
      13 -> 21         0.25265
      13 -> 22         0.40421

 Excited State   6:      Singlet-A      7.9217 eV  156.51 nm  f=0.0085  <S**2>=0.000
      10 -> 14         0.10327
      13 -> 15        -0.16051
      13 -> 17         0.59659
      13 -> 18        -0.21229
      13 -> 21         0.10346
      13 -> 22         0.16432

 Excited State   7:      Singlet-A      8.4516 eV  146.70 nm  f=0.0007  <S**2>=0.000
      10 -> 14         0.67878
      13 -> 17        -0.10943
      13 -> 19        -0.10346

 Excited State   8:      Singlet-A      8.4947 eV  145.95 nm  f=0.0950  <S**2>=0.000
      11 -> 14        -0.36442
      12 -> 14         0.56443
      13 -> 21         0.14985

 Excited State   9:      Singlet-A      8.7570 eV  141.58 nm  f=0.0083  <S**2>=0.000
      10 -> 14         0.10800
      13 -> 18         0.56702
      13 -> 19         0.18713
      13 -> 21         0.19670
      13 -> 22         0.26258

 Excited State  10:      Singlet-A      8.7991 eV  140.91 nm  f=0.0017  <S**2>=0.000
      11 -> 15         0.10229
      12 -> 15        -0.21482
      13 -> 19        -0.37312
      13 -> 20         0.52018

 Excited State  11:      Singlet-A      9.1172 eV  135.99 nm  f=0.0161  <S**2>=0.000
      11 -> 15        -0.22648
      12 -> 15         0.49742
      13 -> 16        -0.16982
      13 -> 19         0.11353
      13 -> 20         0.31769

 Excited State  12:      Singlet-A      9.2525 eV  134.00 nm  f=0.0618  <S**2>=0.000
      12 -> 15        -0.22684
      12 -> 16        -0.15489
      13 -> 19         0.47938
      13 -> 20         0.20585
      13 -> 22        -0.32765

 Excited State  13:      Singlet-A      9.7419 eV  127.27 nm  f=0.0580  <S**2>=0.000
       8 -> 15        -0.13648
      10 -> 17         0.11453
      11 -> 15        -0.14687
      11 -> 18        -0.10027
      12 -> 16         0.56358
      13 -> 19         0.12659
      13 -> 20         0.10961

 Excited State  14:      Singlet-A      9.8204 eV  126.25 nm  f=0.0465  <S**2>=0.000
       8 -> 15         0.12699
      10 -> 17        -0.12197
      11 -> 15         0.38889
      11 -> 16        -0.30651
      11 -> 18         0.13116
      12 -> 15         0.15110
      12 -> 16         0.23654
      13 -> 21         0.16010
      13 -> 22        -0.11222

 Excited State  15:      Singlet-A      9.8946 eV  125.31 nm  f=0.1481  <S**2>=0.000
       8 -> 16        -0.14274
      10 -> 17         0.10825
      11 -> 15         0.29770
      11 -> 16         0.44158
      11 -> 19         0.10900
      12 -> 14        -0.11869
      12 -> 15         0.15221
      13 -> 21         0.19505

 The electronic state is 1-A.
 Alpha  occ. eigenvalues --   -1.92172  -1.18358  -0.97316  -0.79998  -0.77352
 Alpha  occ. eigenvalues --   -0.68376  -0.63527  -0.51556  -0.47723  -0.42395
 Alpha  occ. eigenvalues --   -0.38599  -0.38003  -0.25664
 Alpha virt. eigenvalues --    0.15898   0.20672   0.22397   0.28603   0.30322
 Alpha virt. eigenvalues --    0.31994   0.33145   0.33578   0.33776   0.42797
 Alpha virt. eigenvalues --    0.49401

 Mulliken charges:
               1
     1  C   -0.106121
     2  C   -1.615610
     3  O    2.817286
     4  C   -1.581503
     5  C   -0.022708
     6  H    0.066968
     7  H    0.177651
     8  H    0.191286
     9  H    0.072750
 Sum of Mulliken charges =   0.00000

 Dipole moment (field-independent basis, Debye):
    X=             -1.2463    Y=             -8.5514    Z=             -0.5019  Tot=              8.6563
 N-N= 1.042577913037D+02 E-N=-1.710162774292D+02  KE=-1.594921618030D+01
 Orbital energies and kinetic energies (alpha):
                                 1                 2
   1         O                -1.921721         -1.432105
   2         O                -1.183579         -1.065887
   3         O                -0.973164         -0.871277
   4         O                -0.799980         -0.638635
   5         O                -0.773516         -0.713007
   6         O                -0.683758         -0.621361
   7         O                -0.635268         -0.544062

 Normal termination of Gaussian 09 at Tue Dec 15 17:08:05 2015.
