 Gaussian 09, Revision D.01,
 Gaussian 09:  ES64L-G09RevD.01 24-Apr-2013

 ------------------------------------------------------------
 #P AM1(Input,print) CIS(Singlets,NStates=15) pop(full) force
 ------------------------------------------------------------

 -----------------
 AM1-Reparam Input
 -----------------
 Symbolic Z-matrix:
 Charge =  0 Multiplicity = 1

                         Standard orientation:
 ---------------------------------------------------------------------
 Center     Atomic      Atomic             Coordinates (Angstroms)
 Number     Number       Type             X           Y           Z
 ---------------------------------------------------------------------
      1          6           0       -0.539353    1.061019   -0.012649
      2          6           0       -1.170045   -0.182549    0.028961
      3          8           0       -0.201308   -1.090727   -0.017120
      4          6           0        1.014732   -0.522020   -0.001889
      5          6           0        0.911592    0.780923   -0.009582
      6          1           0        1.622497    1.557458    0.076031
      7          1           0        1.845513   -1.197540    0.044122
      8          1           0       -2.155868   -0.461706    0.015911
      9          1           0       -1.003236    2.003364   -0.028147
 ---------------------------------------------------------------------

 SCF Done:  E(RAM1) =  -4.65830349829     A.U. after   15 cycles

 Excitation energies and oscillator strengths:

 Excited State   1:      Singlet-A      6.6973 eV  185.12 nm  f=0.1208  <S**2>=0.000
      13 -> 14         0.54863
      13 -> 15        -0.40743
 This state for optimization and/or second-order correction.
 Total Energy, E(CIS) =  -4.41218098161
 Copying the excited state density for this state as the 1-particle RhoCI density.

 Excited State   2:      Singlet-A      6.8359 eV  181.37 nm  f=0.0931  <S**2>=0.000
      13 -> 14         0.39989
      13 -> 15         0.54295
      13 -> 16         0.15950

 Excited State   3:      Singlet-A      7.9742 eV  155.48 nm  f=0.0783  <S**2>=0.000
      11 -> 14        -0.12001
      12 -> 14         0.22726
      13 -> 15        -0.16551
      13 -> 16         0.62703

 Excited State   4:      Singlet-A      8.3702 eV  148.13 nm  f=0.0006  <S**2>=0.000
       9 -> 14        -0.17697
      11 -> 14         0.57898
      12 -> 14         0.33548

 Excited State   5:      Singlet-A      8.7090 eV  142.36 nm  f=0.0000  <S**2>=0.000
      13 -> 17         0.67627
      13 -> 19        -0.11256

 Excited State   6:      Singlet-A      9.2122 eV  134.59 nm  f=0.0106  <S**2>=0.000
      10 -> 14         0.65038
      12 -> 14        -0.16607
      12 -> 15         0.11222

 Excited State   7:      Singlet-A      9.3624 eV  132.43 nm  f=0.0044  <S**2>=0.000
      10 -> 14        -0.16064
      11 -> 15        -0.22215
      12 -> 14        -0.19736
      12 -> 15         0.58124
      12 -> 16         0.14602

 Excited State   8:      Singlet-A      9.6850 eV  128.02 nm  f=0.1212  <S**2>=0.000
      10 -> 14         0.15830
      11 -> 14        -0.25596
      11 -> 15        -0.28522
      11 -> 16        -0.11725
      12 -> 14         0.46353
      12 -> 15         0.14744
      13 -> 16        -0.18591

 Excited State   9:      Singlet-A     10.3269 eV  120.06 nm  f=0.0815  <S**2>=0.000
       8 -> 15        -0.12528
       9 -> 14         0.15479
       9 -> 17        -0.17171
      10 -> 15         0.17502
      11 -> 15         0.12572
      11 -> 16        -0.21250
      11 -> 17         0.11076
      12 -> 16         0.48694
      13 -> 18        -0.20679

 Excited State  10:      Singlet-A     10.3848 eV  119.39 nm  f=0.0157  <S**2>=0.000
      11 -> 15         0.11853
      12 -> 16         0.12116
      12 -> 17         0.11164
      13 -> 18         0.63175

 Excited State  11:      Singlet-A     10.4042 eV  119.17 nm  f=0.0572  <S**2>=0.000
       9 -> 14         0.47296
      11 -> 15         0.34668
      12 -> 14         0.11536
      12 -> 15         0.20297
      12 -> 16        -0.19101

 Excited State  12:      Singlet-A     10.5215 eV  117.84 nm  f=0.1784  <S**2>=0.000
       9 -> 14        -0.38296
       9 -> 15        -0.14264
      11 -> 14        -0.17019
      11 -> 15         0.40749
      12 -> 15         0.21221
      13 -> 16        -0.11617
      13 -> 19         0.16130

 Excited State  13:      Singlet-A     10.7229 eV  115.63 nm  f=0.0134  <S**2>=0.000
       9 -> 14         0.14870
      13 -> 17         0.12102
      13 -> 19         0.64453

 Excited State  14:      Singlet-A     10.8008 eV  114.79 nm  f=0.0462  <S**2>=0.000
       9 -> 16        -0.11637
      11 -> 16         0.59685
      12 -> 16         0.27273

 Excited State  15:      Singlet-A     11.0766 eV  111.93 nm  f=0.0101  <S**2>=0.000
       9 -> 15         0.12858
      10 -> 15         0.54543
      10 -> 16         0.15844
      10 -> 18         0.10038
      10 -> 21        -0.10608
      11 -> 16         0.14475
      11 -> 19        -0.14312
      12 -> 16        -0.20790

 The electronic state is 1-A.
 Alpha  occ. eigenvalues --   -3.63462  -1.25328  -0.98370  -0.90894  -0.86548
 Alpha  occ. eigenvalues --   -0.83544  -0.79815  -0.69411  -0.60460  -0.59312
 Alpha  occ. eigenvalues --   -0.56951  -0.55987  -0.44978
 Alpha virt. eigenvalues --    0.02424   0.05874   0.07123   0.11454   0.17859
 Alpha virt. eigenvalues --    0.20977   0.24931   0.25454   0.33376   0.36533
 Alpha virt. eigenvalues --    0.37506

 Mulliken charges:
               1
     1  C   -0.084336
     2  C   -0.960404
     3  O    2.000574
     4  C   -0.941596
     5  C   -0.039432
     6  H   -0.002560
     7  H    0.016314
     8  H    0.012963
     9  H   -0.001523
 Sum of Mulliken charges =   0.00000

 Dipole moment (field-independent basis, Debye):
    X=             -0.9068    Y=             -6.8140    Z=             -0.2152  Tot=              6.8774
 N-N= 1.059051152426D+02 E-N=-1.745326175863D+02  KE=-2.109297799868D+01
 Orbital energies and kinetic energies (alpha):
                                 1                 2
   1         O                -3.634623         -3.050026
   2         O                -1.253284         -1.027013
   3         O                -0.983700         -0.710190
   4         O                -0.908944         -0.703913
   5         O                -0.865485         -0.789240
   6         O                -0.835443         -0.832514
   7         O                -0.798152         -0.593630

 Normal termination of Gaussian 09 at Fri Dec 11 13:41:33 2015.
