 Gaussian 09, Revision D.01,
 Gaussian 09:  ES64L-G09RevD.01 24-Apr-2013

 ------------------------------------------------------------
 #P AM1(Input,print) CIS(Singlets,NStates=15) pop(full) force
 ------------------------------------------------------------

 -----------------
 AM1-Reparam Input
 -----------------
 Symbolic Z-matrix:
 Charge =  0 Multiplicity = 1

                         Standard orientation:
 ---------------------------------------------------------------------
 Center     Atomic      Atomic             Coordinates (Angstroms)
 Number     Number       Type             X           Y           Z
 ---------------------------------------------------------------------
      1          6           0       -1.157311    0.290330   -0.028214
      2          6           0       -0.572330   -0.964085    0.039219
      3          8           0        0.763191   -0.880420   -0.007601
      4          6           0        1.032317    0.418708   -0.009386
      5          6           0       -0.081540    1.193798    0.014300
      6          1           0       -0.168388    2.210029    0.033333
      7          1           0        2.082468    0.696339   -0.010745
      8          1           0       -1.054420   -1.966954   -0.042835
      9          1           0       -2.292005    0.471443   -0.014456
 ---------------------------------------------------------------------

 SCF Done:  E(RAM1) =   1.72611959292     A.U. after   14 cycles

 Excitation energies and oscillator strengths:

 Excited State   1:      Singlet-A      5.6467 eV  219.57 nm  f=0.3498  <S**2>=0.000
      13 -> 14         0.69209
 This state for optimization and/or second-order correction.
 Total Energy, E(CIS) =   1.93363373475
 Copying the excited state density for this state as the 1-particle RhoCI density.

 Excited State   2:      Singlet-A      7.2057 eV  172.06 nm  f=0.0002  <S**2>=0.000
      12 -> 14         0.69449

 Excited State   3:      Singlet-A      7.2712 eV  170.51 nm  f=0.0040  <S**2>=0.000
      13 -> 15         0.63601
      13 -> 16         0.20691
      13 -> 17        -0.13922

 Excited State   4:      Singlet-A      7.3299 eV  169.15 nm  f=0.0006  <S**2>=0.000
      10 -> 16        -0.10038
      13 -> 15        -0.20638
      13 -> 16         0.63361
      13 -> 18         0.15064
      13 -> 19         0.10014

 Excited State   5:      Singlet-A      7.9582 eV  155.79 nm  f=0.0090  <S**2>=0.000
      11 -> 14         0.69657

 Excited State   6:      Singlet-A      9.0734 eV  136.65 nm  f=0.0006  <S**2>=0.000
      13 -> 17         0.34678
      13 -> 18         0.52929
      13 -> 20        -0.10023
      13 -> 21        -0.22956

 Excited State   7:      Singlet-A      9.2522 eV  134.01 nm  f=0.0098  <S**2>=0.000
      10 -> 16        -0.13906
      13 -> 16         0.12562
      13 -> 17         0.58049
      13 -> 18        -0.32361

 Excited State   8:      Singlet-A      9.3681 eV  132.35 nm  f=0.0998  <S**2>=0.000
      10 -> 14         0.68185

 Excited State   9:      Singlet-A      9.8790 eV  125.50 nm  f=0.0058  <S**2>=0.000
       8 -> 15        -0.10477
       8 -> 16        -0.12075
      11 -> 15        -0.15627
      11 -> 16        -0.19879
      11 -> 17         0.22408
      12 -> 15        -0.28082
      12 -> 16         0.32513
      12 -> 17         0.12998
      12 -> 18         0.26484
      13 -> 19         0.14471

 Excited State  10:      Singlet-A      9.9188 eV  125.00 nm  f=0.0077  <S**2>=0.000
      13 -> 19         0.65806

 Excited State  11:      Singlet-A     10.4216 eV  118.97 nm  f=0.0219  <S**2>=0.000
      11 -> 15        -0.15432
      11 -> 16         0.19296
      12 -> 15         0.45087
      12 -> 16         0.41742
      12 -> 17        -0.10842

 Excited State  12:      Singlet-A     10.4436 eV  118.72 nm  f=0.2817  <S**2>=0.000
      11 -> 15         0.30419
      11 -> 16         0.28087
      11 -> 17        -0.19136
      12 -> 15        -0.31831
      12 -> 16         0.33591
      12 -> 17        -0.12451
      12 -> 19         0.12202

 Excited State  13:      Singlet-A     10.6623 eV  116.28 nm  f=0.0614  <S**2>=0.000
       8 -> 14         0.10281
      10 -> 16         0.10412
      13 -> 18         0.20377
      13 -> 20         0.55797
      13 -> 21         0.30674

 Excited State  14:      Singlet-A     10.8586 eV  114.18 nm  f=0.0292  <S**2>=0.000
       8 -> 16        -0.18245
       9 -> 15         0.21818
      10 -> 14        -0.10303
      11 -> 15         0.34554
      11 -> 16        -0.26432
      11 -> 19        -0.26425
      12 -> 15         0.11395
      12 -> 16         0.14437
      12 -> 17         0.21489

 Excited State  15:      Singlet-A     10.9455 eV  113.27 nm  f=0.0112  <S**2>=0.000
      10 -> 15         0.35780
      10 -> 16         0.45552
      13 -> 16         0.12936
      13 -> 18        -0.14240
      13 -> 20         0.15702
      13 -> 21        -0.22960

 The electronic state is 1-A.
 Alpha  occ. eigenvalues --   -1.91475  -1.18234  -0.91497  -0.82021  -0.77666
 Alpha  occ. eigenvalues --   -0.69830  -0.68122  -0.55374  -0.54834  -0.46320
 Alpha  occ. eigenvalues --   -0.44404  -0.42082  -0.30957
 Alpha virt. eigenvalues --    0.11279   0.18564   0.18708   0.26790   0.28699
 Alpha virt. eigenvalues --    0.30416   0.32735   0.36209   0.36223   0.45053
 Alpha virt. eigenvalues --    0.48504

 Mulliken charges:
               1
     1  C   -0.145823
     2  C   -2.045173
     3  O    3.286165
     4  C   -2.028821
     5  C   -0.156136
     6  H    0.203076
     7  H    0.339432
     8  H    0.344346
     9  H    0.202934
 Sum of Mulliken charges =   0.00000

 Dipole moment (field-independent basis, Debye):
    X=              6.7762    Y=             -7.9848    Z=             -0.4603  Tot=             10.4827
 N-N= 1.041325056568D+02 E-N=-1.698458068256D+02  KE=-1.551069277705D+01
 Orbital energies and kinetic energies (alpha):
                                 1                 2
   1         O                -1.914746         -1.393942
   2         O                -1.182342         -1.064562
   3         O                -0.914974         -0.882067
   4         O                -0.820206         -0.569745
   5         O                -0.776661         -0.681395
   6         O                -0.698296         -0.592687
   7         O                -0.681215         -0.545550

 Normal termination of Gaussian 09 at Tue Dec 15 17:09:31 2015.
