 Gaussian 09, Revision D.01,
 Gaussian 09:  ES64L-G09RevD.01 24-Apr-2013

 ------------------------------------------------------------
 #P AM1(Input,print) CIS(Singlets,NStates=15) pop(full) force
 ------------------------------------------------------------

 -----------------
 AM1-Reparam Input
 -----------------
 Symbolic Z-matrix:
 Charge =  0 Multiplicity = 1

                         Standard orientation:
 ---------------------------------------------------------------------
 Center     Atomic      Atomic             Coordinates (Angstroms)
 Number     Number       Type             X           Y           Z
 ---------------------------------------------------------------------
      1          6           0       -0.619851    1.030034    0.007988
      2          6           0       -1.102430   -0.219413   -0.030448
      3          8           0       -0.134311   -1.166405    0.029321
      4          6           0        1.027502   -0.459811   -0.018884
      5          6           0        0.840039    0.864140    0.005937
      6          1           0        1.535831    1.716008   -0.021504
      7          1           0        1.951865   -1.049190   -0.017593
      8          1           0       -2.137643   -0.600521   -0.033458
      9          1           0       -1.147130    1.975245    0.050430
 ---------------------------------------------------------------------

 SCF Done:  E(RAM1) =   2.60977928713     A.U. after   13 cycles

 Excitation energies and oscillator strengths:

 Excited State   1:      Singlet-A      4.9185 eV  252.08 nm  f=0.3662  <S**2>=0.000
      13 -> 14         0.69989
 This state for optimization and/or second-order correction.
 Total Energy, E(CIS) =   2.79053224352
 Copying the excited state density for this state as the 1-particle RhoCI density.

 Excited State   2:      Singlet-A      5.8522 eV  211.86 nm  f=0.0001  <S**2>=0.000
      13 -> 15         0.66622
      13 -> 17         0.16193
      13 -> 19        -0.12899

 Excited State   3:      Singlet-A      6.2884 eV  197.16 nm  f=0.0004  <S**2>=0.000
      12 -> 14         0.69678

 Excited State   4:      Singlet-A      6.3100 eV  196.49 nm  f=0.0028  <S**2>=0.000
      11 -> 15        -0.10373
      13 -> 16         0.67693
      13 -> 18        -0.11944

 Excited State   5:      Singlet-A      7.5223 eV  164.82 nm  f=0.0046  <S**2>=0.000
      10 -> 14         0.62359
      11 -> 14        -0.10527
      13 -> 17         0.28903

 Excited State   6:      Singlet-A      7.5346 eV  164.55 nm  f=0.0011  <S**2>=0.000
      10 -> 14        -0.29709
      13 -> 15        -0.13412
      13 -> 17         0.60391
      13 -> 21         0.10630

 Excited State   7:      Singlet-A      8.4135 eV  147.36 nm  f=0.1239  <S**2>=0.000
      10 -> 14         0.11486
      11 -> 14         0.68721

 Excited State   8:      Singlet-A      8.9721 eV  138.19 nm  f=0.0110  <S**2>=0.000
      11 -> 15        -0.26263
      13 -> 18         0.63108

 Excited State   9:      Singlet-A      9.0020 eV  137.73 nm  f=0.1532  <S**2>=0.000
       9 -> 16         0.13093
      10 -> 16        -0.10863
      10 -> 18         0.12521
      12 -> 15         0.57022
      12 -> 17         0.28949

 Excited State  10:      Singlet-A      9.2198 eV  134.48 nm  f=0.0007  <S**2>=0.000
      11 -> 16        -0.20755
      13 -> 19         0.65425

 Excited State  11:      Singlet-A      9.7306 eV  127.42 nm  f=0.0357  <S**2>=0.000
      10 -> 15         0.26476
      10 -> 16         0.11559
      11 -> 15        -0.12807
      12 -> 15         0.18072
      12 -> 16         0.52717
      12 -> 17        -0.15800
      12 -> 18        -0.10194

 Excited State  12:      Singlet-A      9.7595 eV  127.04 nm  f=0.1712  <S**2>=0.000
      10 -> 16        -0.32765
      10 -> 18         0.20423
      12 -> 15        -0.24760
      12 -> 16         0.29885
      12 -> 17         0.37319
      12 -> 19         0.11067

 Excited State  13:      Singlet-A      9.9738 eV  124.31 nm  f=0.0089  <S**2>=0.000
       7 -> 16         0.11487
      10 -> 15         0.17678
      11 -> 15         0.58637
      13 -> 16         0.13471
      13 -> 18         0.25303

 Excited State  14:      Singlet-A     10.1284 eV  122.41 nm  f=0.0006  <S**2>=0.000
       7 -> 15         0.12940
      10 -> 16         0.16303
      11 -> 16         0.60341
      13 -> 15         0.13390
      13 -> 19         0.19991

 Excited State  15:      Singlet-A     10.2930 eV  120.45 nm  f=0.0147  <S**2>=0.000
       8 -> 16        -0.20812
       9 -> 15        -0.26499
      10 -> 15         0.42674
      10 -> 17        -0.12966
      10 -> 19        -0.21154
      11 -> 15        -0.13499
      12 -> 16        -0.19420
      12 -> 17         0.10117
      12 -> 18        -0.17359

 The electronic state is 1-A.
 Alpha  occ. eigenvalues --   -1.84551  -1.11785  -0.86861  -0.78984  -0.74263
 Alpha  occ. eigenvalues --   -0.66476  -0.62945  -0.54387  -0.54131  -0.44713
 Alpha  occ. eigenvalues --   -0.44343  -0.41095  -0.28516
 Alpha virt. eigenvalues --    0.09210   0.16409   0.17601   0.25430   0.28404
 Alpha virt. eigenvalues --    0.30069   0.36344   0.40765   0.48672   0.56728
 Alpha virt. eigenvalues --    0.60036

 Mulliken charges:
               1
     1  C   -0.189565
     2  C   -1.989032
     3  O    3.424199
     4  C   -1.990207
     5  C   -0.179159
     6  H    0.183685
     7  H    0.279683
     8  H    0.278459
     9  H    0.181936
 Sum of Mulliken charges =   0.00000

 Dipole moment (field-independent basis, Debye):
    X=             -1.3580    Y=            -11.6757    Z=              0.7832  Tot=             11.7804
 N-N= 1.038808939560D+02 E-N=-1.695552500521D+02  KE=-1.432596632199D+01
 Orbital energies and kinetic energies (alpha):
                                 1                 2
   1         O                -1.845513         -1.248260
   2         O                -1.117850         -0.967359
   3         O                -0.868611         -0.789153
   4         O                -0.789841         -0.527622
   5         O                -0.742630         -0.620762
   6         O                -0.664759         -0.536206
   7         O                -0.629451         -0.495985

 Normal termination of Gaussian 09 at Tue Dec 15 17:07:31 2015.
