 Gaussian 09, Revision D.01,
 Gaussian 09:  ES64L-G09RevD.01 24-Apr-2013

 ------------------------------------------------------------
 #P AM1(Input,print) CIS(Singlets,NStates=15) pop(full) force
 ------------------------------------------------------------

 -----------------
 AM1-Reparam Input
 -----------------
 Symbolic Z-matrix:
 Charge =  0 Multiplicity = 1

                         Standard orientation:
 ---------------------------------------------------------------------
 Center     Atomic      Atomic             Coordinates (Angstroms)
 Number     Number       Type             X           Y           Z
 ---------------------------------------------------------------------
      1          6           0       -0.197900    1.156390    0.043568
      2          6           0       -1.108520    0.162563   -0.029677
      3          8           0       -0.565897   -1.014703   -0.009038
      4          6           0        0.806026   -0.773399    0.040957
      5          6           0        1.094403    0.493035   -0.035791
      6          1           0        2.056486    1.014981   -0.046533
      7          1           0        1.469283   -1.654014   -0.007324
      8          1           0       -2.224715    0.233390    0.020765
      9          1           0       -0.337938    2.291729   -0.008945
 ---------------------------------------------------------------------

 SCF Done:  E(RAM1) =   2.06473500990     A.U. after   14 cycles

 Excitation energies and oscillator strengths:

 Excited State   1:      Singlet-A      5.1945 eV  238.69 nm  f=0.3455  <S**2>=0.000
      13 -> 14         0.69653
 This state for optimization and/or second-order correction.
 Total Energy, E(CIS) =   2.25562801999
 Copying the excited state density for this state as the 1-particle RhoCI density.

 Excited State   2:      Singlet-A      6.3107 eV  196.47 nm  f=0.0040  <S**2>=0.000
      13 -> 15         0.64600
      13 -> 17         0.22288
      13 -> 18         0.11697

 Excited State   3:      Singlet-A      6.4897 eV  191.05 nm  f=0.0003  <S**2>=0.000
      12 -> 14         0.69910

 Excited State   4:      Singlet-A      6.7328 eV  184.15 nm  f=0.0052  <S**2>=0.000
      13 -> 16         0.63422
      13 -> 18        -0.25045

 Excited State   5:      Singlet-A      7.7093 eV  160.82 nm  f=0.0001  <S**2>=0.000
      13 -> 15        -0.12960
      13 -> 16         0.20224
      13 -> 17         0.15936
      13 -> 18         0.46815
      13 -> 19        -0.17946
      13 -> 20         0.21943
      13 -> 21        -0.31245

 Excited State   6:      Singlet-A      7.7941 eV  159.07 nm  f=0.0110  <S**2>=0.000
      10 -> 14        -0.18816
      11 -> 14         0.66528

 Excited State   7:      Singlet-A      8.2213 eV  150.81 nm  f=0.0154  <S**2>=0.000
      13 -> 15        -0.18888
      13 -> 17         0.63105
      13 -> 18        -0.14191
      13 -> 19         0.12088

 Excited State   8:      Singlet-A      8.8060 eV  140.80 nm  f=0.0956  <S**2>=0.000
      10 -> 14         0.61526
      11 -> 14         0.18687
      12 -> 16         0.10489
      13 -> 19         0.15878

 Excited State   9:      Singlet-A      8.8500 eV  140.10 nm  f=0.0119  <S**2>=0.000
      10 -> 14        -0.19480
      13 -> 16         0.13452
      13 -> 18         0.31509
      13 -> 19         0.50998
      13 -> 20        -0.16102
      13 -> 21         0.19781

 Excited State  10:      Singlet-A      9.1071 eV  136.14 nm  f=0.0229  <S**2>=0.000
      12 -> 15         0.13946
      12 -> 16        -0.10237
      12 -> 18         0.13432
      13 -> 18        -0.20266
      13 -> 19         0.34272
      13 -> 20         0.46773
      13 -> 21        -0.19917

 Excited State  11:      Singlet-A      9.2395 eV  134.19 nm  f=0.0769  <S**2>=0.000
      11 -> 17        -0.11675
      12 -> 15         0.37968
      12 -> 16        -0.25717
      12 -> 17         0.13476
      12 -> 18         0.30601
      12 -> 21        -0.10993
      13 -> 18         0.10601
      13 -> 19        -0.15182
      13 -> 20        -0.10081
      13 -> 21         0.19747

 Excited State  12:      Singlet-A      9.5667 eV  129.60 nm  f=0.0773  <S**2>=0.000
      12 -> 15        -0.20414
      13 -> 19        -0.12243
      13 -> 20         0.39518
      13 -> 21         0.50134

 Excited State  13:      Singlet-A      9.6636 eV  128.30 nm  f=0.0272  <S**2>=0.000
      10 -> 15        -0.12229
      11 -> 15         0.21742
      11 -> 17         0.16218
      12 -> 15         0.42693
      12 -> 16         0.26013
      12 -> 17         0.16908
      12 -> 18        -0.18039
      12 -> 20        -0.11721
      13 -> 20         0.13121
      13 -> 21         0.12005

 Excited State  14:      Singlet-A     10.0396 eV  123.50 nm  f=0.1559  <S**2>=0.000
       8 -> 16         0.13250
      10 -> 15        -0.15223
      11 -> 15        -0.25698
      11 -> 16        -0.16220
      11 -> 17        -0.15330
      12 -> 16         0.45144
      12 -> 18         0.16748
      12 -> 19        -0.18261
      12 -> 21        -0.13867

 Excited State  15:      Singlet-A     10.1664 eV  121.95 nm  f=0.0233  <S**2>=0.000
       7 -> 15         0.13353
      10 -> 15         0.53738
      10 -> 17         0.10466
      11 -> 15         0.24488
      12 -> 16         0.20003
      12 -> 18         0.12063
      13 -> 15         0.10896

 The electronic state is 1-A.
 Alpha  occ. eigenvalues --   -1.94717  -1.20075  -0.95250  -0.81735  -0.77846
 Alpha  occ. eigenvalues --   -0.68257  -0.65620  -0.53779  -0.52671  -0.44199
 Alpha  occ. eigenvalues --   -0.43388  -0.39470  -0.27921
 Alpha virt. eigenvalues --    0.11607   0.17959   0.20314   0.26281   0.27441
 Alpha virt. eigenvalues --    0.29645   0.30202   0.31311   0.37187   0.46246
 Alpha virt. eigenvalues --    0.50168

 Mulliken charges:
               1
     1  C   -0.289867
     2  C   -2.015892
     3  O    3.172325
     4  C   -1.978886
     5  C   -0.150112
     6  H    0.246112
     7  H    0.368042
     8  H    0.389696
     9  H    0.258583
 Sum of Mulliken charges =   0.00000

 Dipole moment (field-independent basis, Debye):
    X=             -5.0626    Y=             -8.9099    Z=             -0.3058  Tot=             10.2523
 N-N= 1.046034768728D+02 E-N=-1.702928211245D+02  KE=-1.548613692919D+01
 Orbital energies and kinetic energies (alpha):
                                 1                 2
   1         O                -1.947167         -1.407186
   2         O                -1.200750         -1.071257
   3         O                -0.952496         -0.871803
   4         O                -0.817349         -0.586322
   5         O                -0.778460         -0.678309
   6         O                -0.682566         -0.552159
   7         O                -0.656197         -0.527232

 Normal termination of Gaussian 09 at Tue Dec 15 17:07:23 2015.
