 Gaussian 09, Revision D.01,
 Gaussian 09:  ES64L-G09RevD.01 24-Apr-2013

 ------------------------------------------------------------
 #P AM1(Input,print) CIS(Singlets,NStates=15) pop(full) force
 ------------------------------------------------------------

 -----------------
 AM1-Reparam Input
 -----------------
 Symbolic Z-matrix:
 Charge =  0 Multiplicity = 1

                         Standard orientation:
 ---------------------------------------------------------------------
 Center     Atomic      Atomic             Coordinates (Angstroms)
 Number     Number       Type             X           Y           Z
 ---------------------------------------------------------------------
      1          6           0       -0.257164    1.151475   -0.027852
      2          6           0        0.996723    0.546250   -0.011402
      3          8           0        0.909943   -0.750057    0.005757
      4          6           0       -0.485246   -1.033249   -0.014089
      5          6           0       -1.214787    0.121354    0.032600
      6          1           0       -2.271530    0.189291   -0.054279
      7          1           0       -0.693412   -2.123085    0.015739
      8          1           0        1.950343    0.986965    0.051470
      9          1           0       -0.502104    2.232304    0.065469
 ---------------------------------------------------------------------

 SCF Done:  E(RAM1) =   1.09877129298     A.U. after   14 cycles

 Excitation energies and oscillator strengths:

 Excited State   1:      Singlet-A      5.6328 eV  220.11 nm  f=0.1958  <S**2>=0.000
      12 -> 16        -0.13469
      13 -> 14         0.67860
 This state for optimization and/or second-order correction.
 Total Energy, E(CIS) =   1.30577287041
 Copying the excited state density for this state as the 1-particle RhoCI density.

 Excited State   2:      Singlet-A      6.4800 eV  191.33 nm  f=0.0054  <S**2>=0.000
      13 -> 15         0.63809
      13 -> 16         0.21847
      13 -> 19        -0.14915

 Excited State   3:      Singlet-A      6.9934 eV  177.29 nm  f=0.0080  <S**2>=0.000
      12 -> 14         0.39716
      13 -> 15        -0.18273
      13 -> 16         0.51446
      13 -> 17         0.14559

 Excited State   4:      Singlet-A      7.1382 eV  173.69 nm  f=0.0008  <S**2>=0.000
      12 -> 14        -0.10851
      13 -> 16        -0.12971
      13 -> 17         0.63973
      13 -> 18         0.14146
      13 -> 21         0.12699

 Excited State   5:      Singlet-A      7.4212 eV  167.07 nm  f=0.0010  <S**2>=0.000
       9 -> 14         0.14553
      11 -> 14         0.68403

 Excited State   6:      Singlet-A      7.9375 eV  156.20 nm  f=0.0254  <S**2>=0.000
       9 -> 14        -0.10689
      10 -> 14         0.64315
      12 -> 14         0.18117
      13 -> 16        -0.12884

 Excited State   7:      Singlet-A      8.0465 eV  154.08 nm  f=0.2295  <S**2>=0.000
      10 -> 14        -0.21242
      12 -> 14         0.52175
      12 -> 15         0.10827
      13 -> 15         0.13757
      13 -> 16        -0.33279

 Excited State   8:      Singlet-A      8.2878 eV  149.60 nm  f=0.0008  <S**2>=0.000
      12 -> 15        -0.29307
      12 -> 16        -0.10522
      12 -> 17        -0.17429
      13 -> 18         0.56766
      13 -> 24         0.14185

 Excited State   9:      Singlet-A      8.4678 eV  146.42 nm  f=0.0059  <S**2>=0.000
      12 -> 15         0.56238
      12 -> 16         0.15026
      13 -> 17        -0.12056
      13 -> 18         0.28647
      13 -> 20        -0.10915

 Excited State  10:      Singlet-A      8.7824 eV  141.17 nm  f=0.0458  <S**2>=0.000
       9 -> 15         0.15813
       9 -> 16        -0.22744
      10 -> 14         0.11882
      10 -> 16        -0.16536
      11 -> 15        -0.19446
      11 -> 16         0.47078
      12 -> 16        -0.25182
      13 -> 20        -0.14985

 Excited State  11:      Singlet-A      8.7978 eV  140.93 nm  f=0.0068  <S**2>=0.000
       9 -> 16        -0.11120
      11 -> 16         0.17969
      12 -> 16         0.15106
      12 -> 17         0.15540
      13 -> 20         0.57481
      13 -> 21        -0.13143

 Excited State  12:      Singlet-A      8.8349 eV  140.33 nm  f=0.1643  <S**2>=0.000
       9 -> 15        -0.12390
       9 -> 16        -0.13761
      11 -> 16         0.18152
      12 -> 15        -0.17325
      12 -> 16         0.53021
      13 -> 14         0.11966
      13 -> 20        -0.21035

 Excited State  13:      Singlet-A      9.0856 eV  136.46 nm  f=0.0055  <S**2>=0.000
      12 -> 17         0.50486
      13 -> 18         0.10204
      13 -> 19         0.38473
      13 -> 20        -0.18417

 Excited State  14:      Singlet-A      9.2408 eV  134.17 nm  f=0.0128  <S**2>=0.000
       9 -> 15        -0.23897
      10 -> 15         0.15133
      11 -> 15         0.52296
      11 -> 16         0.20381
      11 -> 19        -0.14973
      12 -> 16        -0.12402

 Excited State  15:      Singlet-A      9.5174 eV  130.27 nm  f=0.0003  <S**2>=0.000
       9 -> 14         0.22921
      12 -> 17        -0.16485
      13 -> 15         0.12917
      13 -> 19         0.37329
      13 -> 21         0.46710

 The electronic state is 1-A.
 Alpha  occ. eigenvalues --   -1.82664  -1.19267  -0.97698  -0.86926  -0.80761
 Alpha  occ. eigenvalues --   -0.73690  -0.71288  -0.59899  -0.55791  -0.51794
 Alpha  occ. eigenvalues --   -0.49846  -0.46897  -0.38435
 Alpha virt. eigenvalues --    0.03956   0.09551   0.09920   0.12115   0.18392
 Alpha virt. eigenvalues --    0.18888   0.20479   0.21767   0.26497   0.27403
 Alpha virt. eigenvalues --    0.27820

 Mulliken charges:
               1
     1  C   -0.192259
     2  C   -1.252236
     3  O    2.135169
     4  C   -1.260938
     5  C   -0.043141
     6  H    0.102262
     7  H    0.185980
     8  H    0.207335
     9  H    0.117827
 Sum of Mulliken charges =   0.00000

 Dipole moment (field-independent basis, Debye):
    X=              5.7430    Y=             -4.4244    Z=              0.3286  Tot=              7.2571
 N-N= 1.041608278858D+02 E-N=-1.708583136312D+02  KE=-1.496671602917D+01
 Orbital energies and kinetic energies (alpha):
                                 1                 2
   1         O                -1.826640         -1.238939
   2         O                -1.192672         -0.978618
   3         O                -0.976978         -0.797421
   4         O                -0.869256         -0.637740
   5         O                -0.807609         -0.667046
   6         O                -0.736898         -0.589490
   7         O                -0.712879         -0.512665

 Normal termination of Gaussian 09 at Tue Dec 15 17:05:43 2015.
