 Gaussian 09, Revision D.01,
 Gaussian 09:  ES64L-G09RevD.01 24-Apr-2013

 -------------------------------------------------------
 #P B3LYP/3-21G CIS(Singlets,NStates=15) pop(full) force
 -------------------------------------------------------

 --------
 FuranDFT
 --------
 Symbolic Z-matrix:
 Charge =  0 Multiplicity = 1

                         Standard orientation:
 ---------------------------------------------------------------------
 Center     Atomic      Atomic             Coordinates (Angstroms)
 Number     Number       Type             X           Y           Z
 ---------------------------------------------------------------------
      1          6           0       -1.151780    0.428735   -0.051436
      2          6           0       -0.731541   -0.889562    0.041920
      3          8           0        0.676392   -0.968070   -0.012975
      4          6           0        1.099382    0.333947   -0.022468
      5          6           0        0.067705    1.137959    0.042047
      6          1           0        0.142793    2.267538    0.026043
      7          1           0        2.179964    0.367783    0.010261
      8          1           0       -1.272615   -1.756239    0.021526
      9          1           0       -2.163874    0.799003   -0.014409
 ---------------------------------------------------------------------

 SCF Done:  E(RB3LYP) =  -228.737092663     A.U. after   14 cycles

 Excitation energies and oscillator strengths:

 Excited State   1:      Singlet-A      7.0390 eV  176.14 nm  f=0.1426  <S**2>=0.000
      17 -> 19         0.30159
      18 -> 19         0.57662
      18 -> 20         0.22217
 This state for optimization and/or second-order correction.
 Total Energy, E(CIS) =  -228.478414890
 Copying the excited state density for this state as the 1-particle RhoCI density.

 Excited State   2:      Singlet-A      7.3745 eV  168.13 nm  f=0.0757  <S**2>=0.000
      17 -> 19         0.43193
      18 -> 19        -0.36337
      18 -> 20         0.40339

 Excited State   3:      Singlet-A      8.2822 eV  149.70 nm  f=0.0001  <S**2>=0.000
      18 -> 21         0.70153

 Excited State   4:      Singlet-A      8.7112 eV  142.33 nm  f=0.0044  <S**2>=0.000
      16 -> 19         0.69998

 Excited State   5:      Singlet-A      9.2378 eV  134.21 nm  f=0.0691  <S**2>=0.000
      15 -> 19         0.21423
      17 -> 19         0.17524
      18 -> 20        -0.21515
      18 -> 22         0.58237

 Excited State   6:      Singlet-A      9.4536 eV  131.15 nm  f=0.0535  <S**2>=0.000
      15 -> 19         0.50842
      17 -> 19         0.11269
      17 -> 20         0.29690
      17 -> 21        -0.13024
      18 -> 20        -0.12477
      18 -> 22        -0.28423

 Excited State   7:      Singlet-A      9.5530 eV  129.79 nm  f=0.1223  <S**2>=0.000
      15 -> 19        -0.30259
      17 -> 19         0.18360
      17 -> 20         0.34925
      17 -> 21         0.39226
      18 -> 20        -0.20322
      18 -> 22        -0.15034

 Excited State   8:      Singlet-A      9.6011 eV  129.14 nm  f=0.0693  <S**2>=0.000
      15 -> 19         0.28843
      17 -> 19        -0.15429
      17 -> 20        -0.12909
      17 -> 21         0.53567
      18 -> 20         0.17673
      18 -> 23        -0.13195
      18 -> 24        -0.11725

 Excited State   9:      Singlet-A      9.8367 eV  126.04 nm  f=0.2817  <S**2>=0.000
      17 -> 19        -0.23961
      17 -> 20         0.46803
      17 -> 21        -0.10067
      18 -> 20         0.29763
      18 -> 22         0.16431
      18 -> 23        -0.13376
      18 -> 24        -0.13948

 Excited State  10:      Singlet-A     10.0084 eV  123.88 nm  f=0.0549  <S**2>=0.000
      17 -> 19        -0.12489
      17 -> 21         0.11925
      18 -> 20         0.14403
      18 -> 22         0.11483
      18 -> 23         0.48461
      18 -> 24         0.41332

 Excited State  11:      Singlet-A     10.2301 eV  121.20 nm  f=0.0035  <S**2>=0.000
      18 -> 23        -0.45189
      18 -> 24         0.52863

 Excited State  12:      Singlet-A     10.5282 eV  117.76 nm  f=0.0042  <S**2>=0.000
      14 -> 19        -0.35583
      16 -> 20         0.19236
      17 -> 22         0.55735

 Excited State  13:      Singlet-A     10.5678 eV  117.32 nm  f=0.0077  <S**2>=0.000
      14 -> 19         0.47635
      16 -> 20        -0.28992
      17 -> 22         0.39727

 Excited State  14:      Singlet-A     10.8014 eV  114.79 nm  f=0.0008  <S**2>=0.000
      12 -> 19         0.30238
      13 -> 19        -0.33156
      14 -> 19         0.21348
      16 -> 20         0.48342

 Excited State  15:      Singlet-A     10.9219 eV  113.52 nm  f=0.0052  <S**2>=0.000
      12 -> 19         0.32122
      13 -> 19        -0.21886
      14 -> 19        -0.26158
      16 -> 20        -0.32667
      18 -> 25         0.36796
      18 -> 26        -0.10276

 The electronic state is 1-A.
 Alpha  occ. eigenvalues --  -19.10882 -10.17420 -10.17055 -10.13061 -10.12421
 Alpha  occ. eigenvalues --   -1.11170  -0.81159  -0.74637  -0.59837  -0.57825
 Alpha  occ. eigenvalues --   -0.53834  -0.44367  -0.43898  -0.42934  -0.38898
 Alpha  occ. eigenvalues --   -0.36422  -0.28098  -0.23332
 Alpha virt. eigenvalues --    0.01446   0.08366   0.11925   0.15211   0.17975
 Alpha virt. eigenvalues --    0.18196   0.21637   0.22508   0.34685   0.42997
 Alpha virt. eigenvalues --    0.46565   0.67513   0.69883   0.70297   0.75609

 Mulliken charges:
               1
     1  C   -0.231340
     2  C    0.048954
     3  O   -0.472755
     4  C    0.105585
     5  C   -0.262553
     6  H    0.179783
     7  H    0.219961
     8  H    0.218122
     9  H    0.194244
 Sum of Mulliken charges =   0.00000

 Dipole moment (field-independent basis, Debye):
    X=             -0.5166    Y=              0.6377    Z=              0.0440  Tot=              0.8219
 Quadrupole moment (field-independent basis, Debye-Ang):
   XX=            -24.5129   YY=            -27.2374   ZZ=            -31.7658
   XY=              1.8303   XZ=              0.0359   YZ=             -0.0111

 Normal termination of Gaussian 09 at Tue Dec 15 16:14:39 2015.
