 Gaussian 09, Revision D.01,
 Gaussian 09:  ES64L-G09RevD.01 24-Apr-2013

 -------------------------------------------------------
 #P B3LYP/3-21G CIS(Singlets,NStates=15) pop(full) force
 -------------------------------------------------------

 --------
 FuranDFT
 --------
 Symbolic Z-matrix:
 Charge =  0 Multiplicity = 1

                         Standard orientation:
 ---------------------------------------------------------------------
 Center     Atomic      Atomic             Coordinates (Angstroms)
 Number     Number       Type             X           Y           Z
 ---------------------------------------------------------------------
      1          6           0        0.760338    0.887249   -0.009021
      2          6           0        1.077972   -0.418550    0.017701
      3          8           0       -0.077139   -1.163490   -0.014097
      4          6           0       -1.145988   -0.238772    0.027431
      5          6           0       -0.613710    0.982587   -0.024102
      6          1           0       -1.233499    1.867463    0.041784
      7          1           0       -2.067250   -0.683119   -0.020846
      8          1           0        1.969513   -0.900513   -0.005957
      9          1           0        1.476681    1.749002    0.025739
 ---------------------------------------------------------------------

 SCF Done:  E(RB3LYP) =  -228.739941624     A.U. after   15 cycles

 Excitation energies and oscillator strengths:

 Excited State   1:      Singlet-A      7.2218 eV  171.68 nm  f=0.2084  <S**2>=0.000
      17 -> 19         0.13633
      18 -> 19         0.65856
      18 -> 20         0.11664
 This state for optimization and/or second-order correction.
 Total Energy, E(CIS) =  -228.474546086
 Copying the excited state density for this state as the 1-particle RhoCI density.

 Excited State   2:      Singlet-A      7.4420 eV  166.60 nm  f=0.0217  <S**2>=0.000
      17 -> 19         0.52432
      18 -> 19        -0.17579
      18 -> 20         0.42394

 Excited State   3:      Singlet-A      8.4037 eV  147.54 nm  f=0.0006  <S**2>=0.000
      18 -> 21         0.70031

 Excited State   4:      Singlet-A      8.5256 eV  145.43 nm  f=0.0036  <S**2>=0.000
      16 -> 19         0.70304

 Excited State   5:      Singlet-A      9.5048 eV  130.44 nm  f=0.0005  <S**2>=0.000
      18 -> 22         0.67250
      18 -> 23        -0.11782

 Excited State   6:      Singlet-A      9.6881 eV  127.98 nm  f=0.0708  <S**2>=0.000
      17 -> 19        -0.15669
      17 -> 21         0.60825
      18 -> 20         0.20735
      18 -> 22        -0.10330
      18 -> 23        -0.18006

 Excited State   7:      Singlet-A      9.8582 eV  125.77 nm  f=0.3903  <S**2>=0.000
      17 -> 19        -0.34467
      17 -> 20         0.15071
      17 -> 21        -0.29290
      18 -> 20         0.44376

 Excited State   8:      Singlet-A      9.9768 eV  124.27 nm  f=0.1540  <S**2>=0.000
      15 -> 19        -0.23655
      17 -> 20         0.61715
      17 -> 21         0.10382

 Excited State   9:      Singlet-A     10.0609 eV  123.23 nm  f=0.0300  <S**2>=0.000
      14 -> 19         0.27542
      15 -> 19        -0.17636
      17 -> 20        -0.13001
      17 -> 21         0.10137
      18 -> 23         0.53582
      18 -> 24        -0.20711

 Excited State  10:      Singlet-A     10.1094 eV  122.64 nm  f=0.0138  <S**2>=0.000
      15 -> 19         0.59667
      16 -> 20         0.16291
      17 -> 20         0.20284
      18 -> 22         0.11563
      18 -> 23         0.19729

 Excited State  11:      Singlet-A     10.2470 eV  121.00 nm  f=0.0272  <S**2>=0.000
      14 -> 19         0.61665
      18 -> 23        -0.27363

 Excited State  12:      Singlet-A     10.4709 eV  118.41 nm  f=0.0021  <S**2>=0.000
      14 -> 19         0.17715
      18 -> 23         0.17138
      18 -> 24         0.65197

 Excited State  13:      Singlet-A     10.7738 eV  115.08 nm  f=0.0037  <S**2>=0.000
      17 -> 22         0.67776
      18 -> 25        -0.13536

 Excited State  14:      Singlet-A     10.8782 eV  113.97 nm  f=0.0003  <S**2>=0.000
      15 -> 19        -0.17046
      16 -> 20         0.67447

 Excited State  15:      Singlet-A     11.0219 eV  112.49 nm  f=0.0038  <S**2>=0.000
      12 -> 19         0.11412
      17 -> 22         0.12070
      18 -> 25         0.65455
      18 -> 26        -0.12684

 The electronic state is 1-A.
 Alpha  occ. eigenvalues --  -19.10379 -10.16797 -10.16738 -10.12230 -10.12013
 Alpha  occ. eigenvalues --   -1.10626  -0.81443  -0.75017  -0.59367  -0.58898
 Alpha  occ. eigenvalues --   -0.54082  -0.45450  -0.43886  -0.41359  -0.40799
 Alpha  occ. eigenvalues --   -0.35646  -0.28210  -0.23366
 Alpha virt. eigenvalues --    0.01638   0.09293   0.12406   0.15900   0.18447
 Alpha virt. eigenvalues --    0.18956   0.21536   0.22923   0.35941   0.43169
 Alpha virt. eigenvalues --    0.48602   0.67068   0.69956   0.72277   0.76131

 Mulliken charges:
               1
     1  C   -0.244497
     2  C    0.091668
     3  O   -0.478138
     4  C    0.059473
     5  C   -0.245092
     6  H    0.189802
     7  H    0.220436
     8  H    0.222773
     9  H    0.183575
 Sum of Mulliken charges =   0.00000

 Dipole moment (field-independent basis, Debye):
    X=              0.0276    Y=              0.8039    Z=              0.0446  Tot=              0.8056
 Quadrupole moment (field-independent basis, Debye-Ang):
   XX=            -23.3357   YY=            -28.2869   ZZ=            -31.5799
   XY=             -0.2519   XZ=              0.0295   YZ=              0.1753

 Normal termination of Gaussian 09 at Tue Dec 15 16:18:53 2015.
