 Gaussian 09, Revision D.01,
 Gaussian 09:  ES64L-G09RevD.01 24-Apr-2013

 ------------------------------------------------------------
 #P AM1(Input,print) CIS(Singlets,NStates=15) pop(full) force
 ------------------------------------------------------------

 -----------------
 AM1-Reparam Input
 -----------------
 Symbolic Z-matrix:
 Charge =  0 Multiplicity = 1

                         Standard orientation:
 ---------------------------------------------------------------------
 Center     Atomic      Atomic             Coordinates (Angstroms)
 Number     Number       Type             X           Y           Z
 ---------------------------------------------------------------------
      1          6           0        0.701226    0.967271    0.040553
      2          6           0        1.125392   -0.316932   -0.018002
      3          8           0        0.007052   -1.142557   -0.010788
      4          6           0       -1.064523   -0.340344    0.037152
      5          6           0       -0.742517    0.901630   -0.041313
      6          1           0       -1.448645    1.775495   -0.029997
      7          1           0       -2.014939   -0.928212    0.013211
      8          1           0        2.024224   -0.811181   -0.003780
      9          1           0        1.265480    1.834602   -0.003475
 ---------------------------------------------------------------------

 SCF Done:  E(RAM1) =   2.58472338768     A.U. after   13 cycles

 Excitation energies and oscillator strengths:

 Excited State   1:      Singlet-A      5.1763 eV  239.52 nm  f=0.3488  <S**2>=0.000
      13 -> 14         0.69603
 This state for optimization and/or second-order correction.
 Total Energy, E(CIS) =   2.77494904997
 Copying the excited state density for this state as the 1-particle RhoCI density.

 Excited State   2:      Singlet-A      5.7411 eV  215.96 nm  f=0.0005  <S**2>=0.000
      10 -> 15         0.10373
      13 -> 15         0.68025

 Excited State   3:      Singlet-A      6.5637 eV  188.89 nm  f=0.0024  <S**2>=0.000
      13 -> 16         0.65446
      13 -> 17        -0.16587
      13 -> 19         0.13598

 Excited State   4:      Singlet-A      6.6963 eV  185.15 nm  f=0.0002  <S**2>=0.000
       9 -> 14        -0.10185
      12 -> 14         0.69634

 Excited State   5:      Singlet-A      7.6345 eV  162.40 nm  f=0.0013  <S**2>=0.000
      13 -> 16         0.10507
      13 -> 18         0.62127
      13 -> 20         0.12057
      13 -> 21        -0.26120

 Excited State   6:      Singlet-A      7.8114 eV  158.72 nm  f=0.0109  <S**2>=0.000
      11 -> 14         0.54812
      13 -> 17         0.40441

 Excited State   7:      Singlet-A      7.9936 eV  155.10 nm  f=0.0042  <S**2>=0.000
      11 -> 14        -0.42165
      13 -> 17         0.52552
      13 -> 19         0.10578

 Excited State   8:      Singlet-A      8.7444 eV  141.79 nm  f=0.0441  <S**2>=0.000
       8 -> 15        -0.12520
      10 -> 14         0.46661
      12 -> 15         0.45556
      13 -> 19        -0.13360

 Excited State   9:      Singlet-A      8.7993 eV  140.90 nm  f=0.0040  <S**2>=0.000
      10 -> 16         0.11118
      12 -> 15         0.11538
      13 -> 16        -0.12845
      13 -> 19         0.65159

 Excited State  10:      Singlet-A      8.9858 eV  137.98 nm  f=0.1489  <S**2>=0.000
      10 -> 14         0.47816
      12 -> 15        -0.42136
      12 -> 16         0.15616
      12 -> 18        -0.15540

 Excited State  11:      Singlet-A      9.3473 eV  132.64 nm  f=0.0152  <S**2>=0.000
      11 -> 15         0.10954
      13 -> 18         0.26510
      13 -> 20        -0.38295
      13 -> 21         0.46049

 Excited State  12:      Singlet-A      9.4455 eV  131.26 nm  f=0.0109  <S**2>=0.000
       9 -> 15         0.18673
      10 -> 15        -0.10369
      11 -> 15         0.30065
      11 -> 17        -0.22519
      12 -> 15         0.17103
      12 -> 16         0.22450
      12 -> 17        -0.18401
      12 -> 18        -0.25783
      13 -> 21        -0.24146

 Excited State  13:      Singlet-A      9.7538 eV  127.11 nm  f=0.0894  <S**2>=0.000
      10 -> 15         0.31174
      11 -> 15         0.12122
      12 -> 16         0.10234
      13 -> 20         0.49937
      13 -> 21         0.30346

 Excited State  14:      Singlet-A      9.8215 eV  126.24 nm  f=0.0099  <S**2>=0.000
       7 -> 15        -0.13105
      10 -> 15         0.57181
      13 -> 15        -0.11639
      13 -> 20        -0.24994
      13 -> 21        -0.22119

 Excited State  15:      Singlet-A     10.0024 eV  123.95 nm  f=0.1432  <S**2>=0.000
      11 -> 16        -0.27620
      11 -> 17         0.15292
      12 -> 16         0.54419
      12 -> 18         0.16241
      12 -> 19         0.14120

 The electronic state is 1-A.
 Alpha  occ. eigenvalues --   -1.75062  -1.16444  -0.96820  -0.81439  -0.76662
 Alpha  occ. eigenvalues --   -0.67413  -0.65245  -0.55168  -0.50237  -0.44306
 Alpha  occ. eigenvalues --   -0.43805  -0.39988  -0.27879
 Alpha virt. eigenvalues --    0.11500   0.15375   0.19754   0.25638   0.27440
 Alpha virt. eigenvalues --    0.29464   0.31647   0.32624   0.38900   0.48186
 Alpha virt. eigenvalues --    0.52629

 Mulliken charges:
               1
     1  C   -0.064831
     2  C   -1.903796
     3  O    3.224249
     4  C   -1.885000
     5  C   -0.106200
     6  H    0.122945
     7  H    0.252482
     8  H    0.242494
     9  H    0.117659
 Sum of Mulliken charges =   0.00000

 Dipole moment (field-independent basis, Debye):
    X=             -0.6394    Y=            -10.9176    Z=             -0.2961  Tot=             10.9403
 N-N= 1.041743337674D+02 E-N=-1.692962060382D+02  KE=-1.507367989774D+01
 Orbital energies and kinetic energies (alpha):
                                 1                 2
   1         O                -1.750615         -1.247799
   2         O                -1.164440         -1.010626
   3         O                -0.968198         -0.874542
   4         O                -0.814389         -0.620939
   5         O                -0.766616         -0.687119
   6         O                -0.674133         -0.566425
   7         O                -0.652449         -0.527860

 Normal termination of Gaussian 09 at Tue Dec 15 17:06:12 2015.
