 Gaussian 09, Revision D.01,
 Gaussian 09:  ES64L-G09RevD.01 24-Apr-2013

 ------------------------------------------------------------
 #P AM1(Input,print) CIS(Singlets,NStates=15) pop(full) force
 ------------------------------------------------------------

 -----------------
 AM1-Reparam Input
 -----------------
 Symbolic Z-matrix:
 Charge =  0 Multiplicity = 1

                         Standard orientation:
 ---------------------------------------------------------------------
 Center     Atomic      Atomic             Coordinates (Angstroms)
 Number     Number       Type             X           Y           Z
 ---------------------------------------------------------------------
      1          6           0       -0.604638    1.068931   -0.015413
      2          6           0       -1.152340   -0.264023    0.032375
      3          8           0       -0.149541   -1.118586   -0.035039
      4          6           0        1.069541   -0.492961    0.036707
      5          6           0        0.853211    0.849429   -0.018215
      6          1           0        1.528250    1.653489    0.034645
      7          1           0        1.939498   -1.071980    0.000474
      8          1           0       -2.163899   -0.586992    0.032373
      9          1           0       -1.102162    1.985913    0.000107
 ---------------------------------------------------------------------

 SCF Done:  E(RAM1) =   1.11083154963     A.U. after   14 cycles

 Excitation energies and oscillator strengths:

 Excited State   1:      Singlet-A      5.4041 eV  229.43 nm  f=0.2361  <S**2>=0.000
      12 -> 16        -0.11897
      13 -> 14         0.68455
 This state for optimization and/or second-order correction.
 Total Energy, E(CIS) =   1.30942740122
 Copying the excited state density for this state as the 1-particle RhoCI density.

 Excited State   2:      Singlet-A      6.3212 eV  196.14 nm  f=0.0055  <S**2>=0.000
      13 -> 15         0.66585
      13 -> 16         0.16483
      13 -> 19        -0.11133

 Excited State   3:      Singlet-A      6.9901 eV  177.37 nm  f=0.0007  <S**2>=0.000
      12 -> 14        -0.21921
      13 -> 16        -0.26058
      13 -> 17         0.55477
      13 -> 18        -0.20430
      13 -> 21         0.11971

 Excited State   4:      Singlet-A      7.0432 eV  176.03 nm  f=0.0022  <S**2>=0.000
      12 -> 14         0.44399
      13 -> 16         0.39688
      13 -> 17         0.32314

 Excited State   5:      Singlet-A      7.0932 eV  174.79 nm  f=0.0002  <S**2>=0.000
       9 -> 14         0.20593
      11 -> 14         0.66213

 Excited State   6:      Singlet-A      7.9378 eV  156.20 nm  f=0.2465  <S**2>=0.000
      11 -> 16        -0.10449
      12 -> 14         0.48198
      13 -> 15         0.14167
      13 -> 16        -0.44971

 Excited State   7:      Singlet-A      7.9684 eV  155.59 nm  f=0.0006  <S**2>=0.000
       9 -> 14         0.12087
      10 -> 14         0.65731
      11 -> 16        -0.15252

 Excited State   8:      Singlet-A      8.0521 eV  153.98 nm  f=0.0013  <S**2>=0.000
      12 -> 15         0.31738
      13 -> 17         0.15756
      13 -> 18         0.55156
      13 -> 19         0.12675
      13 -> 22         0.13290

 Excited State   9:      Singlet-A      8.3603 eV  148.30 nm  f=0.0099  <S**2>=0.000
      11 -> 15        -0.11811
      12 -> 15         0.56942
      13 -> 17        -0.13995
      13 -> 18        -0.25624
      13 -> 19        -0.10592

 Excited State  10:      Singlet-A      8.4818 eV  146.18 nm  f=0.0169  <S**2>=0.000
       9 -> 15        -0.14821
       9 -> 16         0.15678
      10 -> 14        -0.15873
      11 -> 15         0.42071
      11 -> 16        -0.41114
      12 -> 15         0.14352

 Excited State  11:      Singlet-A      8.6929 eV  142.63 nm  f=0.0019  <S**2>=0.000
      11 -> 16         0.14291
      13 -> 19         0.13320
      13 -> 20         0.63489
      13 -> 23         0.11133

 Excited State  12:      Singlet-A      8.9392 eV  138.70 nm  f=0.0611  <S**2>=0.000
       9 -> 14         0.47288
       9 -> 17        -0.11745
      11 -> 14        -0.15512
      11 -> 15         0.21048
      11 -> 16         0.10219
      12 -> 16        -0.34582

 Excited State  13:      Singlet-A      8.9956 eV  137.83 nm  f=0.0306  <S**2>=0.000
       9 -> 14        -0.16175
       9 -> 15        -0.15912
       9 -> 16        -0.15630
      10 -> 15         0.17869
      11 -> 15         0.30010
      11 -> 16         0.38149
      11 -> 17         0.12012
      11 -> 20         0.12375
      12 -> 16         0.13926
      12 -> 17         0.11746
      13 -> 20        -0.15772

 Excited State  14:      Singlet-A      9.0659 eV  136.76 nm  f=0.1194  <S**2>=0.000
       9 -> 14         0.41022
       9 -> 17         0.12700
      11 -> 14        -0.14080
      11 -> 18        -0.11049
      12 -> 16         0.47425

 Excited State  15:      Singlet-A      9.2256 eV  134.39 nm  f=0.0043  <S**2>=0.000
      12 -> 17         0.60122
      13 -> 19         0.25342
      13 -> 21        -0.12075

 The electronic state is 1-A.
 Alpha  occ. eigenvalues --   -1.83647  -1.16965  -0.99530  -0.87392  -0.81117
 Alpha  occ. eigenvalues --   -0.74456  -0.71288  -0.62820  -0.55706  -0.53805
 Alpha  occ. eigenvalues --   -0.50191  -0.47833  -0.38928
 Alpha virt. eigenvalues --    0.01809   0.08757   0.10214   0.11557   0.17344
 Alpha virt. eigenvalues --    0.19310   0.19427   0.21151   0.25520   0.26179
 Alpha virt. eigenvalues --    0.28426

 Mulliken charges:
               1
     1  C   -0.148499
     2  C   -1.292977
     3  O    2.177961
     4  C   -1.278837
     5  C   -0.087450
     6  H    0.108219
     7  H    0.201028
     8  H    0.213639
     9  H    0.106917
 Sum of Mulliken charges =   0.00000

 Dipole moment (field-independent basis, Debye):
    X=             -0.8911    Y=             -6.5029    Z=             -0.6104  Tot=              6.5920
 N-N= 1.040272443276D+02 E-N=-1.703933503894D+02  KE=-1.496590129824D+01
 Orbital energies and kinetic energies (alpha):
                                 1                 2
   1         O                -1.836465         -1.243713
   2         O                -1.169653         -0.950138
   3         O                -0.995300         -0.789849
   4         O                -0.873924         -0.648222
   5         O                -0.811173         -0.679076
   6         O                -0.744563         -0.603116
   7         O                -0.712876         -0.502569

 Normal termination of Gaussian 09 at Tue Dec 15 17:05:35 2015.
