 Gaussian 09, Revision D.01,
 Gaussian 09:  ES64L-G09RevD.01 24-Apr-2013

 ------------------------------------------------------------
 #P AM1(Input,print) CIS(Singlets,NStates=15) pop(full) force
 ------------------------------------------------------------

 -----------------
 AM1-Reparam Input
 -----------------
 Symbolic Z-matrix:
 Charge =  0 Multiplicity = 1

                         Standard orientation:
 ---------------------------------------------------------------------
 Center     Atomic      Atomic             Coordinates (Angstroms)
 Number     Number       Type             X           Y           Z
 ---------------------------------------------------------------------
      1          6           0       -0.854886    0.855175    0.007371
      2          6           0       -1.039381   -0.523795   -0.018260
      3          8           0        0.161980   -1.110345    0.011342
      4          6           0        1.149741   -0.200510   -0.033841
      5          6           0        0.565601    1.020617    0.019370
      6          1           0        1.073919    1.971679   -0.025861
      7          1           0        2.154652   -0.508292    0.067459
      8          1           0       -1.846721   -1.133546    0.036402
      9          1           0       -1.604135    1.643992   -0.016579
 ---------------------------------------------------------------------

 SCF Done:  E(RAM1) =   1.36904919951     A.U. after   13 cycles

 Excitation energies and oscillator strengths:

 Excited State   1:      Singlet-A      6.0185 eV  206.01 nm  f=0.3273  <S**2>=0.000
      13 -> 14         0.69396
 This state for optimization and/or second-order correction.
 Total Energy, E(CIS) =   1.59022485998
 Copying the excited state density for this state as the 1-particle RhoCI density.

 Excited State   2:      Singlet-A      6.5636 eV  188.90 nm  f=0.0021  <S**2>=0.000
      12 -> 16        -0.11231
      13 -> 15         0.64328
      13 -> 17         0.22684

 Excited State   3:      Singlet-A      6.9596 eV  178.15 nm  f=0.0001  <S**2>=0.000
      12 -> 15        -0.16074
      13 -> 16         0.62758
      13 -> 18         0.11232
      13 -> 21         0.12047
      13 -> 22         0.17924

 Excited State   4:      Singlet-A      7.3756 eV  168.10 nm  f=0.0003  <S**2>=0.000
       9 -> 14         0.10738
      11 -> 14         0.68762

 Excited State   5:      Singlet-A      7.8514 eV  157.91 nm  f=0.0064  <S**2>=0.000
      10 -> 14         0.12664
      12 -> 16         0.11762
      13 -> 15        -0.18044
      13 -> 17         0.61207
      13 -> 22         0.16363

 Excited State   6:      Singlet-A      8.0398 eV  154.21 nm  f=0.0011  <S**2>=0.000
      12 -> 15         0.14706
      13 -> 17        -0.20245
      13 -> 18         0.37396
      13 -> 21        -0.16803
      13 -> 22         0.48129

 Excited State   7:      Singlet-A      8.3486 eV  148.51 nm  f=0.0008  <S**2>=0.000
      10 -> 14         0.68364
      13 -> 17        -0.13468

 Excited State   8:      Singlet-A      8.4787 eV  146.23 nm  f=0.0679  <S**2>=0.000
      12 -> 14         0.65084
      13 -> 19         0.23257

 Excited State   9:      Singlet-A      8.7899 eV  141.05 nm  f=0.0007  <S**2>=0.000
      12 -> 15        -0.15973
      13 -> 18         0.53926
      13 -> 21        -0.10086
      13 -> 22        -0.39256

 Excited State  10:      Singlet-A      8.8927 eV  139.42 nm  f=0.0040  <S**2>=0.000
      12 -> 15         0.16608
      13 -> 16        -0.12166
      13 -> 18         0.20471
      13 -> 20        -0.32877
      13 -> 21         0.53347

 Excited State  11:      Singlet-A      9.2070 eV  134.66 nm  f=0.0797  <S**2>=0.000
      12 -> 16        -0.20964
      13 -> 19        -0.34131
      13 -> 20         0.44582
      13 -> 21         0.33794

 Excited State  12:      Singlet-A      9.3794 eV  132.19 nm  f=0.0009  <S**2>=0.000
      12 -> 15         0.57521
      12 -> 17         0.13916
      12 -> 20        -0.11280
      13 -> 16         0.22790
      13 -> 21        -0.10556
      13 -> 22        -0.20026

 Excited State  13:      Singlet-A      9.6437 eV  128.57 nm  f=0.1474  <S**2>=0.000
      11 -> 15         0.10294
      12 -> 14        -0.23143
      12 -> 16        -0.15022
      13 -> 19         0.52747
      13 -> 20         0.29122
      13 -> 21         0.10982

 Excited State  14:      Singlet-A      9.8963 eV  125.28 nm  f=0.0303  <S**2>=0.000
      10 -> 17         0.11060
      11 -> 15         0.20170
      11 -> 16        -0.11823
      11 -> 18        -0.11517
      12 -> 16         0.51934
      12 -> 21         0.10194
      13 -> 15         0.14864
      13 -> 20         0.20517

 Excited State  15:      Singlet-A      9.9015 eV  125.22 nm  f=0.0147  <S**2>=0.000
       8 -> 15        -0.14563
      10 -> 15         0.20834
      10 -> 17         0.31452
      11 -> 16        -0.29597
      11 -> 17        -0.17727
      11 -> 18        -0.28073
      11 -> 22        -0.13391
      12 -> 16        -0.20186

 The electronic state is 1-A.
 Alpha  occ. eigenvalues --   -1.90742  -1.18427  -0.97451  -0.79414  -0.77983
 Alpha  occ. eigenvalues --   -0.68112  -0.62647  -0.51919  -0.48289  -0.41469
 Alpha  occ. eigenvalues --   -0.38668  -0.37814  -0.26040
 Alpha virt. eigenvalues --    0.16338   0.21709   0.23166   0.27775   0.29898
 Alpha virt. eigenvalues --    0.31217   0.32206   0.32912   0.34015   0.40989
 Alpha virt. eigenvalues --    0.47519

 Mulliken charges:
               1
     1  C   -0.069065
     2  C   -1.589507
     3  O    2.816688
     4  C   -1.583782
     5  C   -0.060666
     6  H    0.069589
     7  H    0.177463
     8  H    0.166768
     9  H    0.072513
 Sum of Mulliken charges =   0.00000

 Dipole moment (field-independent basis, Debye):
    X=              1.4102    Y=             -8.7111    Z=              0.6280  Tot=              8.8468
 N-N= 1.039338747651D+02 E-N=-1.704372206035D+02  KE=-1.591294600348D+01
 Orbital energies and kinetic energies (alpha):
                                 1                 2
   1         O                -1.907423         -1.406925
   2         O                -1.184269         -1.061079
   3         O                -0.974511         -0.874663
   4         O                -0.794136         -0.649350
   5         O                -0.779829         -0.706144
   6         O                -0.681119         -0.622204
   7         O                -0.626468         -0.543602

 Normal termination of Gaussian 09 at Tue Dec 15 17:08:03 2015.
