 Gaussian 09, Revision D.01,
 Gaussian 09:  ES64L-G09RevD.01 24-Apr-2013

 ------------------------------------------------------------
 #P AM1(Input,print) CIS(Singlets,NStates=15) pop(full) force
 ------------------------------------------------------------

 -----------------
 AM1-Reparam Input
 -----------------
 Symbolic Z-matrix:
 Charge =  0 Multiplicity = 1

                         Standard orientation:
 ---------------------------------------------------------------------
 Center     Atomic      Atomic             Coordinates (Angstroms)
 Number     Number       Type             X           Y           Z
 ---------------------------------------------------------------------
      1          6           0       -0.520978    1.102256   -0.031309
      2          6           0       -1.158001   -0.172240   -0.009191
      3          8           0       -0.207656   -1.147392    0.007263
      4          6           0        1.042012   -0.528583   -0.022241
      5          6           0        0.868888    0.809823    0.035096
      6          1           0        1.608042    1.564539    0.007360
      7          1           0        1.895582   -1.141840   -0.003126
      8          1           0       -2.203763   -0.517997    0.079096
      9          1           0       -1.030141    2.006900    0.024441
 ---------------------------------------------------------------------

 SCF Done:  E(RAM1) =   2.51252451934     A.U. after   14 cycles

 Excitation energies and oscillator strengths:

 Excited State   1:      Singlet-A      5.4464 eV  227.65 nm  f=0.3536  <S**2>=0.000
      13 -> 14         0.69514
 This state for optimization and/or second-order correction.
 Total Energy, E(CIS) =   2.71267542134
 Copying the excited state density for this state as the 1-particle RhoCI density.

 Excited State   2:      Singlet-A      6.5525 eV  189.22 nm  f=0.0035  <S**2>=0.000
      11 -> 15        -0.11608
      13 -> 15         0.64401
      13 -> 17         0.22540

 Excited State   3:      Singlet-A      6.8780 eV  180.26 nm  f=0.0019  <S**2>=0.000
      11 -> 16         0.11923
      13 -> 16         0.65199
      13 -> 18        -0.14609
      13 -> 19         0.13250

 Excited State   4:      Singlet-A      6.9273 eV  178.98 nm  f=0.0007  <S**2>=0.000
       9 -> 14         0.11739
      12 -> 14         0.69199

 Excited State   5:      Singlet-A      7.8909 eV  157.12 nm  f=0.0057  <S**2>=0.000
      10 -> 14         0.67837
      13 -> 17         0.12673

 Excited State   6:      Singlet-A      8.0506 eV  154.01 nm  f=0.0001  <S**2>=0.000
      10 -> 14        -0.15697
      11 -> 15         0.11079
      13 -> 15        -0.11831
      13 -> 17         0.30575
      13 -> 18         0.49687
      13 -> 21        -0.29426

 Excited State   7:      Singlet-A      8.4226 eV  147.20 nm  f=0.0135  <S**2>=0.000
      11 -> 15         0.10406
      11 -> 16        -0.11617
      13 -> 15        -0.13753
      13 -> 17         0.55742
      13 -> 18        -0.31290
      13 -> 21         0.13228

 Excited State   8:      Singlet-A      8.7106 eV  142.34 nm  f=0.0930  <S**2>=0.000
      11 -> 14         0.68569

 Excited State   9:      Singlet-A      9.0600 eV  136.85 nm  f=0.0004  <S**2>=0.000
      11 -> 16        -0.10849
      13 -> 16        -0.11708
      13 -> 19         0.66118

 Excited State  10:      Singlet-A      9.5081 eV  130.40 nm  f=0.0186  <S**2>=0.000
       8 -> 15         0.12710
      10 -> 15        -0.14453
      10 -> 16        -0.17541
      10 -> 17        -0.21571
      12 -> 15         0.36903
      12 -> 16        -0.19492
      12 -> 17         0.17368
      12 -> 18         0.28011

 Excited State  11:      Singlet-A      9.6551 eV  128.41 nm  f=0.0002  <S**2>=0.000
      13 -> 18         0.33316
      13 -> 20         0.18863
      13 -> 21         0.56211

 Excited State  12:      Singlet-A      9.8869 eV  125.40 nm  f=0.0241  <S**2>=0.000
      10 -> 15         0.20201
      10 -> 17         0.12185
      11 -> 15         0.45290
      12 -> 15         0.30024
      12 -> 16         0.19173
      12 -> 18        -0.13499
      13 -> 15         0.13469
      13 -> 21         0.11241

 Excited State  13:      Singlet-A      9.9485 eV  124.63 nm  f=0.0591  <S**2>=0.000
       9 -> 15         0.10078
      10 -> 15        -0.32854
      10 -> 17        -0.11266
      11 -> 15         0.38710
      12 -> 15        -0.34466
      12 -> 17        -0.10804
      13 -> 20         0.20427

 Excited State  14:      Singlet-A      9.9939 eV  124.06 nm  f=0.1801  <S**2>=0.000
       9 -> 16        -0.11382
      10 -> 15        -0.15483
      10 -> 16        -0.19122
      10 -> 17        -0.10204
      12 -> 16         0.58416
      12 -> 17         0.10142
      12 -> 19         0.14864

 Excited State  15:      Singlet-A     10.0352 eV  123.55 nm  f=0.0847  <S**2>=0.000
       9 -> 14         0.14450
      10 -> 15         0.14236
      11 -> 15        -0.11732
      11 -> 16        -0.11743
      13 -> 20         0.59969
      13 -> 21        -0.18433

 The electronic state is 1-A.
 Alpha  occ. eigenvalues --   -1.72234  -1.15295  -0.94315  -0.80652  -0.76382
 Alpha  occ. eigenvalues --   -0.67716  -0.63391  -0.55419  -0.50371  -0.44400
 Alpha  occ. eigenvalues --   -0.43607  -0.41266  -0.29524
 Alpha virt. eigenvalues --    0.11144   0.17477   0.19182   0.25079   0.27556
 Alpha virt. eigenvalues --    0.28708   0.31198   0.31954   0.38659   0.47715
 Alpha virt. eigenvalues --    0.52584

 Mulliken charges:
               1
     1  C   -0.085457
     2  C   -1.951602
     3  O    3.234391
     4  C   -1.922074
     5  C   -0.030316
     6  H    0.117285
     7  H    0.257202
     8  H    0.258824
     9  H    0.121746
 Sum of Mulliken charges =   0.00000

 Dipole moment (field-independent basis, Debye):
    X=             -1.7853    Y=            -10.3789    Z=              0.5422  Tot=             10.5453
 N-N= 1.032742840085D+02 E-N=-1.678307731437D+02  KE=-1.500129828170D+01
 Orbital energies and kinetic energies (alpha):
                                 1                 2
   1         O                -1.722338         -1.210454
   2         O                -1.152954         -1.014575
   3         O                -0.943152         -0.858382
   4         O                -0.806522         -0.618788
   5         O                -0.763817         -0.680060
   6         O                -0.677162         -0.587483
   7         O                -0.633908         -0.516299

 Normal termination of Gaussian 09 at Tue Dec 15 17:06:11 2015.
