 Gaussian 09, Revision D.01,
 Gaussian 09:  ES64L-G09RevD.01 24-Apr-2013

 ------------------------------------------------------------
 #P AM1(Input,print) CIS(Singlets,NStates=15) pop(full) force
 ------------------------------------------------------------

 -----------------
 AM1-Reparam Input
 -----------------
 Symbolic Z-matrix:
 Charge =  0 Multiplicity = 1

                         Standard orientation:
 ---------------------------------------------------------------------
 Center     Atomic      Atomic             Coordinates (Angstroms)
 Number     Number       Type             X           Y           Z
 ---------------------------------------------------------------------
      1          6           0        0.136899    1.145612    0.021080
      2          6           0       -1.020423    0.469537   -0.029252
      3          8           0       -0.771031   -0.829433    0.032619
      4          6           0        0.514860   -0.998840   -0.016891
      5          6           0        1.165948    0.247622   -0.024180
      6          1           0        2.287033    0.389486    0.061056
      7          1           0        0.891306   -1.977307   -0.014250
      8          1           0       -2.083258    0.774374   -0.043303
      9          1           0        0.289466    2.265327    0.031001
 ---------------------------------------------------------------------

 SCF Done:  E(RAM1) =   1.69583536572     A.U. after   14 cycles

 Excitation energies and oscillator strengths:

 Excited State   1:      Singlet-A      5.7622 eV  215.17 nm  f=0.3185  <S**2>=0.000
      10 -> 17         0.10615
      13 -> 14         0.68967
 This state for optimization and/or second-order correction.
 Total Energy, E(CIS) =   1.90759225417
 Copying the excited state density for this state as the 1-particle RhoCI density.

 Excited State   2:      Singlet-A      6.6106 eV  187.55 nm  f=0.0075  <S**2>=0.000
      11 -> 16        -0.10370
      13 -> 15         0.58914
      13 -> 16         0.24949
      13 -> 17        -0.25660

 Excited State   3:      Singlet-A      6.9013 eV  179.65 nm  f=0.0008  <S**2>=0.000
      11 -> 15        -0.15168
      13 -> 15        -0.27088
      13 -> 16         0.58290
      13 -> 20        -0.15900
      13 -> 21        -0.11447

 Excited State   4:      Singlet-A      7.2692 eV  170.56 nm  f=0.0012  <S**2>=0.000
      11 -> 14        -0.13985
      12 -> 14         0.66826
      13 -> 21        -0.13077

 Excited State   5:      Singlet-A      7.8756 eV  157.43 nm  f=0.0062  <S**2>=0.000
      10 -> 14        -0.27094
      11 -> 16        -0.10668
      12 -> 14         0.10865
      13 -> 15         0.12322
      13 -> 16         0.13261
      13 -> 17         0.43761
      13 -> 18         0.12402
      13 -> 19         0.12507
      13 -> 21         0.37264

 Excited State   6:      Singlet-A      8.0678 eV  153.68 nm  f=0.0095  <S**2>=0.000
      10 -> 14         0.11638
      12 -> 14         0.10095
      13 -> 15        -0.13321
      13 -> 17        -0.37404
      13 -> 21         0.54255

 Excited State   7:      Singlet-A      8.1420 eV  152.28 nm  f=0.0003  <S**2>=0.000
      10 -> 14         0.61992
      13 -> 17         0.27537

 Excited State   8:      Singlet-A      8.5403 eV  145.18 nm  f=0.0001  <S**2>=0.000
      13 -> 16        -0.11117
      13 -> 18         0.66865

 Excited State   9:      Singlet-A      8.7297 eV  142.03 nm  f=0.0676  <S**2>=0.000
      10 -> 14         0.10575
      11 -> 14         0.64421
      12 -> 14         0.12744

 Excited State  10:      Singlet-A      8.7775 eV  141.25 nm  f=0.0025  <S**2>=0.000
      13 -> 16         0.11756
      13 -> 18         0.12060
      13 -> 19        -0.30918
      13 -> 20         0.58595

 Excited State  11:      Singlet-A      9.1028 eV  136.20 nm  f=0.0935  <S**2>=0.000
      11 -> 16         0.10828
      13 -> 19         0.58556
      13 -> 20         0.30907
      13 -> 21        -0.11014

 Excited State  12:      Singlet-A      9.3788 eV  132.20 nm  f=0.0681  <S**2>=0.000
       8 -> 15        -0.14284
       9 -> 16         0.11640
      10 -> 15        -0.27550
      10 -> 17         0.30108
      11 -> 14         0.12252
      12 -> 16         0.29855
      12 -> 17        -0.16048
      12 -> 18         0.17422
      12 -> 21        -0.17646
      13 -> 19        -0.11310

 Excited State  13:      Singlet-A      9.5576 eV  129.72 nm  f=0.0183  <S**2>=0.000
      11 -> 15         0.46090
      11 -> 16         0.24786
      11 -> 17        -0.13321
      12 -> 15         0.33248
      13 -> 16         0.18473

 Excited State  14:      Singlet-A      9.7578 eV  127.06 nm  f=0.1072  <S**2>=0.000
      11 -> 14        -0.11480
      11 -> 15        -0.23310
      11 -> 16        -0.21757
      12 -> 15         0.48656
      12 -> 18        -0.11610
      12 -> 19         0.18767

 Excited State  15:      Singlet-A      9.9976 eV  124.01 nm  f=0.0612  <S**2>=0.000
      10 -> 16        -0.10463
      10 -> 19        -0.15129
      11 -> 15        -0.22330
      11 -> 16         0.39163
      12 -> 16         0.21196
      12 -> 17         0.18786
      12 -> 18        -0.14602
      12 -> 19         0.21944
      13 -> 15         0.13636

 The electronic state is 1-A.
 Alpha  occ. eigenvalues --   -1.93920  -1.23628  -0.99826  -0.82249  -0.80605
 Alpha  occ. eigenvalues --   -0.68661  -0.65188  -0.54730  -0.51850  -0.43605
 Alpha  occ. eigenvalues --   -0.42435  -0.41304  -0.29916
 Alpha virt. eigenvalues --    0.12865   0.17576   0.18637   0.23554   0.25379
 Alpha virt. eigenvalues --    0.27197   0.28024   0.29430   0.40066   0.48591
 Alpha virt. eigenvalues --    0.53699

 Mulliken charges:
               1
     1  C   -0.086350
     2  C   -1.950558
     3  O    3.181730
     4  C   -1.992354
     5  C   -0.129048
     6  H    0.181192
     7  H    0.312737
     8  H    0.309449
     9  H    0.173200
 Sum of Mulliken charges =   0.00000

 Dipole moment (field-independent basis, Debye):
    X=             -6.4636    Y=             -6.7603    Z=              0.8038  Tot=              9.3875
 N-N= 1.047443277138D+02 E-N=-1.707347501892D+02  KE=-1.580390459306D+01
 Orbital energies and kinetic energies (alpha):
                                 1                 2
   1         O                -1.939199         -1.434497
   2         O                -1.236283         -1.104645
   3         O                -0.998259         -0.898049
   4         O                -0.822493         -0.636075
   5         O                -0.806054         -0.702591
   6         O                -0.686605         -0.588218
   7         O                -0.651876         -0.524349

 Normal termination of Gaussian 09 at Tue Dec 15 17:07:08 2015.
