 Gaussian 09, Revision D.01,
 Gaussian 09:  ES64L-G09RevD.01 24-Apr-2013

 ----------------------------
 #P AM1(Input,print) Opt Freq
 ----------------------------

 -----------------
 AM1-Reparam Input
 -----------------
 Symbolic Z-matrix:
 Charge =  0 Multiplicity = 1

 SCF Done:  E(RAM1) =   1.77836856426     A.U. after   13 cycles
 SCF Done:  E(RAM1) =   1.75558728174     A.U. after   12 cycles
 SCF Done:  E(RAM1) =   1.75337090600     A.U. after   11 cycles
 SCF Done:  E(RAM1) =   1.75231147489     A.U. after   11 cycles
 SCF Done:  E(RAM1) =   1.75203083615     A.U. after   10 cycles
 SCF Done:  E(RAM1) =   1.75205941490     A.U. after   10 cycles
 SCF Done:  E(RAM1) =   1.75201880500     A.U. after   10 cycles
 Optimization completed.
    -- Stationary point found.
 Normal termination of Gaussian 09 at Tue Dec  1 17:37:54 2015.

 -------------------------------------------------------------
 #P Geom=AllCheck Guess=TCheck SCRF=Check GenChk RAM1/ZDO Freq
 -------------------------------------------------------------

 Structure from the checkpoint file:  "/home/Applications/g09/scratch/Gau-23895.chk"
 -----------------
 AM1-Reparam Input
 -----------------
 Charge =  0 Multiplicity = 1

                         Standard orientation:
 ---------------------------------------------------------------------
 Center     Atomic      Atomic             Coordinates (Angstroms)
 Number     Number       Type             X           Y           Z
 ---------------------------------------------------------------------
      1          6           0        0.681825    0.909576   -0.000149
      2          6           0        1.079196   -0.326768    0.000108
      3          8           0       -0.002475   -1.140901   -0.000012
      4          6           0       -1.080618   -0.322412    0.000023
      5          6           0       -0.677828    0.912268    0.000014
      6          1           0       -1.300209    1.797454    0.000373
      7          1           0       -2.058859   -0.744980   -0.000271
      8          1           0        2.055575   -0.753299    0.000013
      9          1           0        1.307841    1.792051    0.000009
 ---------------------------------------------------------------------

 SCF Done:  E(RAM1) =   1.75201880500     A.U. after    2 cycles

 The electronic state is 1-A.
 Alpha  occ. eigenvalues --   -1.58343  -1.12499  -0.93854  -0.86513  -0.81473
 Alpha  occ. eigenvalues --   -0.73508  -0.71370  -0.58536  -0.56183  -0.53705
 Alpha  occ. eigenvalues --   -0.51301  -0.48209  -0.40836
 Alpha virt. eigenvalues --    0.02921   0.07859   0.12698   0.13970   0.19243
 Alpha virt. eigenvalues --    0.20925   0.21529   0.39830   0.49350   0.60335
 Alpha virt. eigenvalues --    0.69780

 Mulliken charges:
               1
     1  C   -0.098824
     2  C    0.356062
     3  O   -0.287477
     4  C    0.356102
     5  C   -0.098998
     6  H   -0.022987
     7  H   -0.090401
     8  H   -0.090415
     9  H   -0.023060
 Sum of Mulliken charges =   0.00000

 Dipole moment (field-independent basis, Debye):
    X=              0.0006    Y=              0.4403    Z=              0.0004  Tot=              0.4403
 N-N= 1.049820223451D+02 E-N=-1.735478358636D+02  KE=-1.318558128546D+01
  Exact polarizability:  35.612   0.006  36.498   0.001  -0.001   6.386
 Approx polarizability:  28.081   0.015  33.529   0.001  -0.001   5.004
 Leave Link  601 at Tue Dec  1 17:37:54 2015, MaxMem=    33554432 cpu:         0.0
 (Enter /home/Applications/g09/g09/l701.exe)
 Compute integral second derivatives.
 ... and contract with generalized density number  0.
 Leave Link  701 at Tue Dec  1 17:37:54 2015, MaxMem=    33554432 cpu:         0.0
 (Enter /home/Applications/g09/g09/l702.exe)
 L702 exits ... SP integral derivatives will be done elsewhere.

                      1                      2                      3
                      A                      A                      A
 Frequencies --    649.5897               657.4620               773.6300
 Red. masses --      2.1628                 1.7732                 7.1202
 Frc consts  --      0.5377                 0.4516                 2.5108
 IR Inten    --      3.4313                 0.0004                 4.3022

                      4                      5                      6
                      A                      A                      A
 Frequencies --    837.9404               992.2142              1130.8510
 Red. masses --      7.7058                 1.1751                 1.0454
 Frc consts  --      3.1878                 0.6816                 0.7877
 IR Inten    --      0.0070                 3.6293                 5.8138

                      7                      8                      9
                      A                      A                      A
 Frequencies --   1132.5783              1155.4157              1171.3861
 Red. masses --      1.2956                 1.0973                 1.8049
 Frc consts  --      0.9792                 0.8631                 1.4592
 IR Inten    --      0.0003                 9.8935                33.0980

                     10                     11                     12
                      A                      A                      A
 Frequencies --   1183.7681              1251.1537              1340.5221
 Red. masses --      1.9265                 1.0812                 1.1694
 Frc consts  --      1.5906                 0.9972                 1.2381
 IR Inten    --      0.0058                 0.7465                 2.8273

                     13                     14                     15
                      A                      A                      A
 Frequencies --   1558.8367              1641.9825              1771.5044
 Red. masses --      7.9935                10.2168                 6.8502
 Frc consts  --     11.4442                16.2293                12.6660
 IR Inten    --     30.7698                 2.6710                36.5996

                     16                     17                     18
                      A                      A                      A
 Frequencies --   1945.7901              2016.7327              3275.9405
 Red. masses --      9.5560                 8.4794                 1.0779
 Frc consts  --     21.3166                20.3194                 6.8157
 IR Inten    --     52.5665                 2.2158                84.7336

                     19                     20                     21
                      A                      A                      A
 Frequencies --   3292.7464              3386.6260              3388.4830
 Red. masses --      1.0859                 1.0790                 1.0814
 Frc consts  --      6.9367                 7.2915                 7.3155
 IR Inten    --    146.4905                57.0592                 9.8261

 - Thermochemistry -
 -------------------
 Temperature   298.150 Kelvin.  Pressure   1.00000 Atm.
 Atom     1 has atomic number  6 and mass  12.00000

 Molecular mass:    68.02621 amu.
 Principal axes and moments of inertia in atomic units:
                           1         2         3
     Eigenvalues --   181.49596 182.26473 363.76069
           X            0.99934  -0.03623   0.00000
           Y            0.03623   0.99934   0.00002
           Z            0.00000  -0.00002   1.00000
 This molecule is an asymmetric top.
 Rotational symmetry number  1.
 Rotational temperatures (Kelvin)      0.47722     0.47521     0.23811
 Rotational constants (GHZ):           9.94370     9.90176     4.96134
 Zero-point vibrational energy     206685.7 (Joules/Mol)
                                   49.39907 (Kcal/Mol)
 Vibrational temperatures:    934.61   945.94  1113.08  1205.61  1427.57
          (Kelvin)           1627.04  1629.53  1662.38  1685.36  1703.18
                             1800.13  1928.71  2242.82  2362.44  2548.80
                             2799.55  2901.62  4713.34  4737.52  4872.59
                             4875.27

 Zero-point correction=                           0.078722 (Hartree/Particle)
 Thermal correction to Energy=                    0.082146
 Thermal correction to Enthalpy=                  0.083090
 Thermal correction to Gibbs Free Energy=         0.052617
 Sum of electronic and zero-point Energies=              1.830741
 Sum of electronic and thermal Energies=                 1.834165
 Sum of electronic and thermal Enthalpies=               1.835109
 Sum of electronic and thermal Free Energies=            1.804635

                     E (Thermal)             CV                S
                      KCal/Mol        Cal/Mol-Kelvin    Cal/Mol-Kelvin
 Total                   51.548             11.122             64.138
 Electronic               0.000              0.000              0.000
 Translational            0.889              2.981             38.570
 Rotational               0.889              2.981             24.002
 Vibrational             49.770              5.160              1.566

 Optimization completed.
    -- Stationary point found.
 Normal termination of Gaussian 09 at Tue Dec  1 17:37:54 2015.
