 Gaussian 09, Revision D.01,
 Gaussian 09:  ES64L-G09RevD.01 24-Apr-2013

 ------------------------------------------------------------
 #P AM1(Input,print) CIS(Singlets,NStates=15) pop(full) force
 ------------------------------------------------------------

 -----------------
 AM1-Reparam Input
 -----------------
 Symbolic Z-matrix:
 Charge =  0 Multiplicity = 1

                         Standard orientation:
 ---------------------------------------------------------------------
 Center     Atomic      Atomic             Coordinates (Angstroms)
 Number     Number       Type             X           Y           Z
 ---------------------------------------------------------------------
      1          6           0        0.701226    0.967271    0.040553
      2          6           0        1.125392   -0.316932   -0.018002
      3          8           0        0.007052   -1.142557   -0.010788
      4          6           0       -1.064523   -0.340344    0.037152
      5          6           0       -0.742517    0.901630   -0.041313
      6          1           0       -1.448645    1.775495   -0.029997
      7          1           0       -2.014939   -0.928212    0.013211
      8          1           0        2.024224   -0.811181   -0.003780
      9          1           0        1.265480    1.834602   -0.003475
 ---------------------------------------------------------------------

 SCF Done:  E(RAM1) =   1.75710253835     A.U. after   14 cycles

 Excitation energies and oscillator strengths:

 Excited State   1:      Singlet-A      5.2035 eV  238.27 nm  f=0.3417  <S**2>=0.000
      13 -> 14         0.69459
 This state for optimization and/or second-order correction.
 Total Energy, E(CIS) =   1.94832684872
 Copying the excited state density for this state as the 1-particle RhoCI density.

 Excited State   2:      Singlet-A      5.6552 eV  219.24 nm  f=0.0005  <S**2>=0.000
      11 -> 15         0.10920
      13 -> 15         0.67766
      13 -> 17         0.10386

 Excited State   3:      Singlet-A      6.5006 eV  190.73 nm  f=0.0037  <S**2>=0.000
      11 -> 16        -0.10423
      13 -> 16         0.62792
      13 -> 17         0.18620
      13 -> 19        -0.20362
      13 -> 20         0.10804

 Excited State   4:      Singlet-A      6.8886 eV  179.98 nm  f=0.0005  <S**2>=0.000
      12 -> 14         0.66928
      13 -> 20         0.16744

 Excited State   5:      Singlet-A      7.2481 eV  171.06 nm  f=0.0038  <S**2>=0.000
      12 -> 14        -0.19362
      13 -> 17        -0.26348
      13 -> 19        -0.23657
      13 -> 20         0.54653

 Excited State   6:      Singlet-A      7.4926 eV  165.48 nm  f=0.0154  <S**2>=0.000
      13 -> 16        -0.19640
      13 -> 17         0.59063
      13 -> 18         0.10028
      13 -> 20         0.27181

 Excited State   7:      Singlet-A      8.1310 eV  152.48 nm  f=0.0020  <S**2>=0.000
      10 -> 14         0.62890
      13 -> 18         0.26190
      13 -> 21         0.13414

 Excited State   8:      Singlet-A      8.2108 eV  151.00 nm  f=0.0021  <S**2>=0.000
      10 -> 14        -0.26289
      13 -> 16         0.12921
      13 -> 17        -0.15911
      13 -> 18         0.50897
      13 -> 19         0.27973
      13 -> 20         0.15652

 Excited State   9:      Singlet-A      8.4127 eV  147.38 nm  f=0.0179  <S**2>=0.000
      13 -> 18        -0.36759
      13 -> 19         0.49590
      13 -> 20         0.15793
      13 -> 21         0.25601

 Excited State  10:      Singlet-A      8.6759 eV  142.91 nm  f=0.0427  <S**2>=0.000
       8 -> 15        -0.11712
      11 -> 14         0.57319
      12 -> 15         0.32414

 Excited State  11:      Singlet-A      8.8629 eV  139.89 nm  f=0.0698  <S**2>=0.000
      10 -> 14        -0.11345
      11 -> 14         0.10280
      12 -> 15        -0.16376
      13 -> 19        -0.21242
      13 -> 20        -0.15313
      13 -> 21         0.57809

 Excited State  12:      Singlet-A      9.0387 eV  137.17 nm  f=0.1817  <S**2>=0.000
       8 -> 15        -0.12289
      10 -> 17        -0.11347
      11 -> 14        -0.31624
      12 -> 15         0.46544
      12 -> 16        -0.14836
      12 -> 20        -0.13708
      13 -> 21         0.23643

 Excited State  13:      Singlet-A      9.5183 eV  130.26 nm  f=0.0079  <S**2>=0.000
       7 -> 15        -0.11672
      10 -> 15         0.10316
      10 -> 17         0.16137
      11 -> 15         0.50681
      12 -> 15         0.15902
      12 -> 16         0.18602
      12 -> 20         0.21282

 Excited State  14:      Singlet-A      9.6132 eV  128.97 nm  f=0.0268  <S**2>=0.000
       9 -> 15        -0.10114
      10 -> 15        -0.28528
      10 -> 17        -0.19264
      11 -> 15         0.40512
      12 -> 15        -0.23131
      12 -> 16        -0.14745
      12 -> 17        -0.11206
      12 -> 20        -0.21152

 Excited State  15:      Singlet-A     10.0099 eV  123.86 nm  f=0.2123  <S**2>=0.000
       8 -> 15        -0.12021
       8 -> 16         0.10986
       9 -> 15        -0.17574
      10 -> 15        -0.28160
      10 -> 17        -0.14996
      10 -> 19        -0.12654
      10 -> 21        -0.10273
      11 -> 14        -0.13173
      12 -> 16         0.29896
      12 -> 17        -0.25583
      12 -> 19        -0.24765
      12 -> 20         0.13418

 The electronic state is 1-A.
 Alpha  occ. eigenvalues --   -1.92327  -1.22958  -1.00903  -0.82570  -0.80912
 Alpha  occ. eigenvalues --   -0.68903  -0.64102  -0.54240  -0.51980  -0.43629
 Alpha  occ. eigenvalues --   -0.42751  -0.39781  -0.26814
 Alpha virt. eigenvalues --    0.12747   0.15865   0.20361   0.25271   0.27669
 Alpha virt. eigenvalues --    0.28856   0.29089   0.29882   0.36010   0.45028
 Alpha virt. eigenvalues --    0.49583

 Mulliken charges:
               1
     1  C   -0.132318
     2  C   -1.920078
     3  O    3.176954
     4  C   -1.892741
     5  C   -0.163320
     6  H    0.176873
     7  H    0.290306
     8  H    0.287016
     9  H    0.177309
 Sum of Mulliken charges =   0.00000

 Dipole moment (field-independent basis, Debye):
    X=             -0.6638    Y=            -10.7039    Z=             -0.3004  Tot=             10.7287
 N-N= 1.043829810903D+02 E-N=-1.700397062602D+02  KE=-1.577464455602D+01
 Orbital energies and kinetic energies (alpha):
                                 1                 2
   1         O                -1.923274         -1.389103
   2         O                -1.229579         -1.100417
   3         O                -1.009029         -0.924251
   4         O                -0.825704         -0.635055
   5         O                -0.809119         -0.705321
   6         O                -0.689030         -0.580759
   7         O                -0.641021         -0.517846

 Normal termination of Gaussian 09 at Tue Dec 15 17:06:53 2015.
