 Gaussian 09, Revision D.01,
 Gaussian 09:  ES64L-G09RevD.01 24-Apr-2013

 ----------------------------
 #P AM1(Input,print) Opt Freq
 ----------------------------

 -----------------
 AM1-Reparam Input
 -----------------
 Symbolic Z-matrix:
 Charge =  0 Multiplicity = 1

 SCF Done:  E(RAM1) =   1.80625961436     A.U. after   13 cycles
 SCF Done:  E(RAM1) =   1.75756410164     A.U. after   11 cycles
 SCF Done:  E(RAM1) =   1.75346948079     A.U. after   11 cycles
 SCF Done:  E(RAM1) =   1.75401652204     A.U. after   11 cycles
 SCF Done:  E(RAM1) =   1.75243266572     A.U. after    9 cycles
 SCF Done:  E(RAM1) =   1.75212259153     A.U. after   10 cycles
 SCF Done:  E(RAM1) =   1.75217078418     A.U. after   10 cycles
 SCF Done:  E(RAM1) =   1.75204612181     A.U. after    7 cycles
 SCF Done:  E(RAM1) =   1.75202165107     A.U. after    9 cycles
 SCF Done:  E(RAM1) =   1.75201882966     A.U. after    9 cycles
 Optimization completed.
    -- Stationary point found.
 Normal termination of Gaussian 09 at Tue Dec  1 17:37:52 2015.

 -------------------------------------------------------------
 #P Geom=AllCheck Guess=TCheck SCRF=Check GenChk RAM1/ZDO Freq
 -------------------------------------------------------------

 Structure from the checkpoint file:  "/home/Applications/g09/scratch/Gau-23892.chk"
 -----------------
 AM1-Reparam Input
 -----------------
 Charge =  0 Multiplicity = 1

                         Standard orientation:
 ---------------------------------------------------------------------
 Center     Atomic      Atomic             Coordinates (Angstroms)
 Number     Number       Type             X           Y           Z
 ---------------------------------------------------------------------
      1          6           0        0.678001    0.912098   -0.000164
      2          6           0        1.080507   -0.322689   -0.000106
      3          8           0        0.002117   -1.141021   -0.000107
      4          6           0       -1.079288   -0.326441    0.000202
      5          6           0       -0.681451    0.909772   -0.000201
      6          1           0       -1.306588    1.792935    0.000221
      7          1           0       -2.055699   -0.752722    0.000426
      8          1           0        2.058398   -0.745736    0.000839
      9          1           0        1.300335    1.797250    0.000980
 ---------------------------------------------------------------------

 SCF Done:  E(RAM1) =   1.75201882966     A.U. after    2 cycles

 The electronic state is 1-A.
 Alpha  occ. eigenvalues --   -1.58338  -1.12506  -0.93850  -0.86508  -0.81482
 Alpha  occ. eigenvalues --   -0.73506  -0.71372  -0.58535  -0.56183  -0.53704
 Alpha  occ. eigenvalues --   -0.51304  -0.48211  -0.40834
 Alpha virt. eigenvalues --    0.02919   0.07860   0.12699   0.13968   0.19244
 Alpha virt. eigenvalues --    0.20923   0.21526   0.39831   0.49351   0.60334
 Alpha virt. eigenvalues --    0.69782

 Mulliken charges:
               1
     1  C   -0.098965
     2  C    0.356089
     3  O   -0.287406
     4  C    0.356002
     5  C   -0.098860
     6  H   -0.023008
     7  H   -0.090430
     8  H   -0.090438
     9  H   -0.022983
 Sum of Mulliken charges =   0.00000

 Dipole moment (field-independent basis, Debye):
    X=             -0.0004    Y=              0.4411    Z=              0.0002  Tot=              0.4411
 N-N= 1.049823068057D+02 E-N=-1.735482797550D+02  KE=-1.318563011107D+01
  Exact polarizability:  35.607  -0.006  36.503   0.000   0.000   6.386
 Approx polarizability:  28.077  -0.013  33.535   0.000  -0.001   5.004
 Leave Link  601 at Tue Dec  1 17:37:53 2015, MaxMem=    33554432 cpu:         0.0
 (Enter /home/Applications/g09/g09/l701.exe)
 Compute integral second derivatives.
 ... and contract with generalized density number  0.
 Leave Link  701 at Tue Dec  1 17:37:53 2015, MaxMem=    33554432 cpu:         0.0
 (Enter /home/Applications/g09/g09/l702.exe)
 L702 exits ... SP integral derivatives will be done elsewhere.

                      1                      2                      3
                      A                      A                      A
 Frequencies --    649.4639               657.2871               773.4928
 Red. masses --      2.1607                 1.7731                 7.1203
 Frc consts  --      0.5370                 0.4513                 2.5099
 IR Inten    --      3.4146                 0.0001                 4.2976

                      4                      5                      6
                      A                      A                      A
 Frequencies --    837.9588               992.0759              1130.9373
 Red. masses --      7.7036                 1.1754                 1.0454
 Frc consts  --      3.1870                 0.6816                 0.7878
 IR Inten    --      0.0067                 3.6424                 5.8321

                      7                      8                      9
                      A                      A                      A
 Frequencies --   1132.3334              1155.2991              1171.1985
 Red. masses --      1.2952                 1.0973                 1.8058
 Frc consts  --      0.9784                 0.8629                 1.4594
 IR Inten    --      0.0002                 9.8628                33.1036

                     10                     11                     12
                      A                      A                      A
 Frequencies --   1183.6146              1250.9671              1340.3665
 Red. masses --      1.9275                 1.0811                 1.1695
 Frc consts  --      1.5910                 0.9968                 1.2379
 IR Inten    --      0.0012                 0.7445                 2.8365

                     13                     14                     15
                      A                      A                      A
 Frequencies --   1558.7630              1641.6640              1771.9756
 Red. masses --      7.9935                10.2150                 6.8513
 Frc consts  --     11.4432                16.2203                12.6748
 IR Inten    --     30.8214                 2.6533                36.6591

                     16                     17                     18
                      A                      A                      A
 Frequencies --   1945.8399              2016.5904              3275.9634
 Red. masses --      9.5610                 8.4776                 1.0779
 Frc consts  --     21.3289                20.3123                 6.8158
 IR Inten    --     52.3818                 2.2106                84.7124

                     19                     20                     21
                      A                      A                      A
 Frequencies --   3292.8000              3387.3920              3389.0897
 Red. masses --      1.0859                 1.0789                 1.0815
 Frc consts  --      6.9370                 7.2940                 7.3188
 IR Inten    --    146.5799                59.0816                 7.7470

 - Thermochemistry -
 -------------------
 Temperature   298.150 Kelvin.  Pressure   1.00000 Atm.
 Atom     1 has atomic number  6 and mass  12.00000

 Molecular mass:    68.02621 amu.
 Principal axes and moments of inertia in atomic units:
                           1         2         3
     Eigenvalues --   181.52193 182.23531 363.75722
           X            0.99946   0.03293   0.00004
           Y           -0.03293   0.99946   0.00003
           Z           -0.00003  -0.00003   1.00000
 This molecule is an asymmetric top.
 Rotational symmetry number  1.
 Rotational temperatures (Kelvin)      0.47715     0.47529     0.23811
 Rotational constants (GHZ):           9.94228     9.90336     4.96139
 Zero-point vibrational energy     206685.2 (Joules/Mol)
                                   49.39896 (Kcal/Mol)
 Vibrational temperatures:    934.43   945.69  1112.88  1205.63  1427.37
          (Kelvin)           1627.16  1629.17  1662.22  1685.09  1702.96
                             1799.86  1928.49  2242.71  2361.99  2549.47
                             2799.63  2901.42  4713.37  4737.60  4873.70
                             4876.14

 Zero-point correction=                           0.078722 (Hartree/Particle)
 Thermal correction to Energy=                    0.082146
 Thermal correction to Enthalpy=                  0.083091
 Thermal correction to Gibbs Free Energy=         0.052616
 Sum of electronic and zero-point Energies=              1.830741
 Sum of electronic and thermal Energies=                 1.834165
 Sum of electronic and thermal Enthalpies=               1.835109
 Sum of electronic and thermal Free Energies=            1.804635

                     E (Thermal)             CV                S
                      KCal/Mol        Cal/Mol-Kelvin    Cal/Mol-Kelvin
 Total                   51.548             11.123             64.138
 Electronic               0.000              0.000              0.000
 Translational            0.889              2.981             38.570
 Rotational               0.889              2.981             24.002
 Vibrational             49.770              5.162              1.567

 Optimization completed.
    -- Stationary point found.
 Normal termination of Gaussian 09 at Tue Dec  1 17:37:53 2015.
