 Gaussian 09, Revision D.01,
 Gaussian 09:  ES64L-G09RevD.01 24-Apr-2013

 ------------------------------------------------------------
 #P AM1(Input,print) CIS(Singlets,NStates=15) pop(full) force
 ------------------------------------------------------------

 -----------------
 AM1-Reparam Input
 -----------------
 Symbolic Z-matrix:
 Charge =  0 Multiplicity = 1

                         Standard orientation:
 ---------------------------------------------------------------------
 Center     Atomic      Atomic             Coordinates (Angstroms)
 Number     Number       Type             X           Y           Z
 ---------------------------------------------------------------------
      1          6           0       -0.539353    1.061019   -0.012649
      2          6           0       -1.170045   -0.182549    0.028961
      3          8           0       -0.201308   -1.090727   -0.017120
      4          6           0        1.014732   -0.522020   -0.001889
      5          6           0        0.911592    0.780923   -0.009582
      6          1           0        1.622497    1.557458    0.076031
      7          1           0        1.845513   -1.197540    0.044122
      8          1           0       -2.155868   -0.461706    0.015911
      9          1           0       -1.003236    2.003364   -0.028147
 ---------------------------------------------------------------------

 SCF Done:  E(RAM1) =  -5.62356562880     A.U. after   15 cycles

 Excitation energies and oscillator strengths:

 Excited State   1:      Singlet-A      6.1870 eV  200.40 nm  f=0.2514  <S**2>=0.000
      13 -> 14         0.66205
      13 -> 15        -0.17431
 This state for optimization and/or second-order correction.
 Total Energy, E(CIS) =  -5.39619888393
 Copying the excited state density for this state as the 1-particle RhoCI density.

 Excited State   2:      Singlet-A      6.3607 eV  194.92 nm  f=0.0322  <S**2>=0.000
      13 -> 14         0.17538
      13 -> 15         0.64904
      13 -> 16         0.20013

 Excited State   3:      Singlet-A      6.9598 eV  178.14 nm  f=0.1329  <S**2>=0.000
      10 -> 14         0.14075
      13 -> 15        -0.19687
      13 -> 16         0.65454

 Excited State   4:      Singlet-A      7.3194 eV  169.39 nm  f=0.0013  <S**2>=0.000
      12 -> 14         0.69510

 Excited State   5:      Singlet-A      8.3362 eV  148.73 nm  f=0.0001  <S**2>=0.000
      13 -> 17         0.64658
      13 -> 19         0.10365
      13 -> 20        -0.18173
      13 -> 22         0.12253

 Excited State   6:      Singlet-A      8.4077 eV  147.46 nm  f=0.0067  <S**2>=0.000
      10 -> 14         0.28470
      11 -> 14         0.63566

 Excited State   7:      Singlet-A      9.4263 eV  131.53 nm  f=0.0008  <S**2>=0.000
      10 -> 14        -0.13484
      10 -> 15         0.48439
      10 -> 16         0.17309
      11 -> 15        -0.30565
      12 -> 15         0.27097

 Excited State   8:      Singlet-A      9.5739 eV  129.50 nm  f=0.0057  <S**2>=0.000
      10 -> 14        -0.14293
      10 -> 15        -0.23148
      11 -> 15         0.21050
      12 -> 15         0.57394
      12 -> 16         0.15157

 Excited State   9:      Singlet-A      9.8158 eV  126.31 nm  f=0.0620  <S**2>=0.000
      10 -> 14         0.31834
      11 -> 14        -0.17351
      12 -> 15         0.14034
      12 -> 16        -0.13879
      12 -> 17         0.10091
      13 -> 17         0.10378
      13 -> 18         0.43159
      13 -> 19        -0.17613
      13 -> 21        -0.13921

 Excited State  10:      Singlet-A      9.8687 eV  125.63 nm  f=0.0993  <S**2>=0.000
      10 -> 14        -0.37760
      10 -> 16        -0.11688
      11 -> 14         0.15465
      12 -> 15        -0.13523
      13 -> 18         0.43114
      13 -> 19        -0.15349

 Excited State  11:      Singlet-A      9.9483 eV  124.63 nm  f=0.0131  <S**2>=0.000
      10 -> 16         0.17360
      11 -> 15         0.13021
      12 -> 15        -0.17122
      12 -> 16         0.58650
      12 -> 17         0.11824
      13 -> 20         0.11496

 Excited State  12:      Singlet-A     10.0551 eV  123.30 nm  f=0.1439  <S**2>=0.000
       8 -> 15        -0.10748
      10 -> 14        -0.28232
      10 -> 16         0.33918
      11 -> 14         0.11329
      11 -> 15         0.23964
      11 -> 16        -0.12019
      12 -> 16        -0.26611
      12 -> 17         0.20485
      12 -> 20        -0.15978

 Excited State  13:      Singlet-A     10.0849 eV  122.94 nm  f=0.0061  <S**2>=0.000
      10 -> 16        -0.10744
      13 -> 17         0.18890
      13 -> 18        -0.15664
      13 -> 19        -0.25618
      13 -> 20         0.53251
      13 -> 23         0.20041

 Excited State  14:      Singlet-A     10.5962 eV  117.01 nm  f=0.0364  <S**2>=0.000
      10 -> 15         0.37563
      10 -> 16        -0.20785
      11 -> 15         0.33760
      11 -> 16         0.37231

 Excited State  15:      Singlet-A     10.7556 eV  115.27 nm  f=0.0029  <S**2>=0.000
      11 -> 15         0.14213
      13 -> 18         0.12184
      13 -> 19         0.53435
      13 -> 20         0.23549
      13 -> 21        -0.25872

 The electronic state is 1-A.
 Alpha  occ. eigenvalues --   -4.05813  -1.21084  -0.91049  -0.89166  -0.87232
 Alpha  occ. eigenvalues --   -0.82368  -0.74677  -0.63563  -0.61403  -0.52130
 Alpha  occ. eigenvalues --   -0.51627  -0.48786  -0.37118
 Alpha virt. eigenvalues --    0.07672   0.11080   0.11894   0.18955   0.24165
 Alpha virt. eigenvalues --    0.27569   0.28374   0.28591   0.31996   0.33874
 Alpha virt. eigenvalues --    0.34800

 Mulliken charges:
               1
     1  C   -0.178923
     2  C   -1.525756
     3  O    2.631708
     4  C   -1.496149
     5  C   -0.106652
     6  H    0.122104
     7  H    0.214047
     8  H    0.212794
     9  H    0.126828
 Sum of Mulliken charges =   0.00000

 Dipole moment (field-independent basis, Debye):
    X=             -1.0567    Y=             -8.3489    Z=             -0.2399  Tot=              8.4189
 N-N= 1.054051283892D+02 E-N=-1.732449680434D+02  KE=-2.349210048890D+01
 Orbital energies and kinetic energies (alpha):
                                 1                 2
   1         O                -4.058127         -3.411429
   2         O                -1.210842         -1.143523
   3         O                -0.910488         -0.836443
   4         O                -0.891655         -0.819745
   5         O                -0.872323         -0.934446
   6         O                -0.823681         -0.771634
   7         O                -0.746767         -0.730370

 Normal termination of Gaussian 09 at Fri Dec 11 13:41:19 2015.
