 Gaussian 09, Revision D.01,
 Gaussian 09:  ES64L-G09RevD.01 24-Apr-2013

 ------------------------------------------------------------
 #P AM1(Input,print) CIS(Singlets,NStates=15) pop(full) force
 ------------------------------------------------------------

 -----------------
 AM1-Reparam Input
 -----------------
 Symbolic Z-matrix:
 Charge =  0 Multiplicity = 1

                         Standard orientation:
 ---------------------------------------------------------------------
 Center     Atomic      Atomic             Coordinates (Angstroms)
 Number     Number       Type             X           Y           Z
 ---------------------------------------------------------------------
      1          6           0        1.007904    0.735301   -0.010651
      2          6           0        0.916886   -0.666669   -0.015906
      3          8           0       -0.356045   -1.062698    0.009082
      4          6           0       -1.117933   -0.040962   -0.017816
      5          6           0       -0.431617    1.100602    0.019935
      6          1           0       -0.735326    2.120375   -0.047185
      7          1           0       -2.221389   -0.217233    0.035419
      8          1           0        1.722424   -1.466074    0.028507
      9          1           0        1.831221    1.294886    0.057225
 ---------------------------------------------------------------------

 SCF Done:  E(RAM1) =   2.52791926884     A.U. after   14 cycles

 Excitation energies and oscillator strengths:

 Excited State   1:      Singlet-A      5.2159 eV  237.71 nm  f=0.3679  <S**2>=0.000
      13 -> 14         0.69691
 This state for optimization and/or second-order correction.
 Total Energy, E(CIS) =   2.71959859662
 Copying the excited state density for this state as the 1-particle RhoCI density.

 Excited State   2:      Singlet-A      6.1095 eV  202.94 nm  f=0.0022  <S**2>=0.000
      11 -> 15         0.10031
      13 -> 15         0.67338
      13 -> 18         0.16331

 Excited State   3:      Singlet-A      6.4251 eV  192.97 nm  f=0.0028  <S**2>=0.000
      11 -> 16        -0.10622
      12 -> 14         0.13327
      13 -> 16         0.63579
      13 -> 17         0.21635

 Excited State   4:      Singlet-A      6.5096 eV  190.46 nm  f=0.0001  <S**2>=0.000
       9 -> 14         0.12119
      12 -> 14         0.67955
      13 -> 16        -0.12641

 Excited State   5:      Singlet-A      7.6511 eV  162.05 nm  f=0.0001  <S**2>=0.000
      11 -> 16        -0.10103
      13 -> 16         0.17043
      13 -> 17        -0.36662
      13 -> 18         0.45747
      13 -> 19         0.18482
      13 -> 20         0.19421
      13 -> 21        -0.18654

 Excited State   6:      Singlet-A      8.0316 eV  154.37 nm  f=0.0092  <S**2>=0.000
       9 -> 14         0.15273
      10 -> 14         0.64545
      13 -> 17        -0.14222
      13 -> 18        -0.13894

 Excited State   7:      Singlet-A      8.2666 eV  149.98 nm  f=0.0123  <S**2>=0.000
      10 -> 14         0.20657
      13 -> 15        -0.12358
      13 -> 17         0.50586
      13 -> 18         0.38598

 Excited State   8:      Singlet-A      8.5817 eV  144.47 nm  f=0.0929  <S**2>=0.000
      11 -> 14         0.66590
      12 -> 15        -0.16352

 Excited State   9:      Singlet-A      8.7745 eV  141.30 nm  f=0.0031  <S**2>=0.000
      11 -> 16         0.11312
      13 -> 16        -0.10868
      13 -> 17         0.12397
      13 -> 18        -0.13113
      13 -> 19         0.64378

 Excited State  10:      Singlet-A      9.0248 eV  137.38 nm  f=0.1502  <S**2>=0.000
      11 -> 14         0.15716
      12 -> 15         0.60933
      12 -> 16        -0.18614
      12 -> 18         0.17202

 Excited State  11:      Singlet-A      9.3796 eV  132.19 nm  f=0.0057  <S**2>=0.000
       9 -> 14         0.50974
      10 -> 14        -0.10852
      12 -> 14        -0.11510
      13 -> 18        -0.13338
      13 -> 19        -0.16227
      13 -> 20         0.29098
      13 -> 21        -0.24454

 Excited State  12:      Singlet-A      9.3887 eV  132.06 nm  f=0.0221  <S**2>=0.000
       9 -> 14         0.17281
       9 -> 15        -0.21435
       9 -> 18        -0.10510
      10 -> 15        -0.13782
      10 -> 17        -0.13728
      12 -> 15         0.20528
      12 -> 16         0.43964
      12 -> 17         0.23767
      12 -> 18        -0.13211

 Excited State  13:      Singlet-A      9.4695 eV  130.93 nm  f=0.0109  <S**2>=0.000
       9 -> 14        -0.38974
      12 -> 16         0.11705
      13 -> 18        -0.21193
      13 -> 20         0.40594
      13 -> 21        -0.28997

 Excited State  14:      Singlet-A      9.7330 eV  127.39 nm  f=0.0096  <S**2>=0.000
       7 -> 15        -0.13493
      11 -> 15         0.61276
      11 -> 16         0.17610
      13 -> 15        -0.11414
      13 -> 20         0.13717

 Excited State  15:      Singlet-A      9.8351 eV  126.06 nm  f=0.0722  <S**2>=0.000
       9 -> 15         0.14317
      10 -> 16         0.28266
      10 -> 17         0.14704
      11 -> 16        -0.22007
      12 -> 16         0.36239
      12 -> 17        -0.12304
      12 -> 18         0.15877
      12 -> 19         0.18245
      13 -> 20         0.11175
      13 -> 21         0.24073

 The electronic state is 1-A.
 Alpha  occ. eigenvalues --   -1.77132  -1.15199  -0.95878  -0.82437  -0.74966
 Alpha  occ. eigenvalues --   -0.67936  -0.66020  -0.55611  -0.49043  -0.46086
 Alpha  occ. eigenvalues --   -0.44538  -0.40863  -0.29425
 Alpha virt. eigenvalues --    0.09791   0.15150   0.17012   0.24971   0.26320
 Alpha virt. eigenvalues --    0.28177   0.30532   0.31160   0.43416   0.52048
 Alpha virt. eigenvalues --    0.57449

 Mulliken charges:
               1
     1  C   -0.033720
     2  C   -1.953658
     3  O    3.219935
     4  C   -1.936710
     5  C   -0.095460
     6  H    0.124508
     7  H    0.286542
     8  H    0.272195
     9  H    0.116368
 Sum of Mulliken charges =   0.00000

 Dipole moment (field-independent basis, Debye):
    X=             -3.4245    Y=             -9.1346    Z=              0.5152  Tot=              9.7690
 N-N= 1.042134287347D+02 E-N=-1.694086655800D+02  KE=-1.505967091876D+01
 Orbital energies and kinetic energies (alpha):
                                 1                 2
   1         O                -1.771321         -1.285866
   2         O                -1.151987         -1.009792
   3         O                -0.958779         -0.848304
   4         O                -0.824372         -0.628545
   5         O                -0.749656         -0.683697
   6         O                -0.679362         -0.575722
   7         O                -0.660201         -0.525339

 Normal termination of Gaussian 09 at Tue Dec 15 17:06:19 2015.
