 Gaussian 09, Revision D.01,
 Gaussian 09:  ES64L-G09RevD.01 24-Apr-2013

 ------------------------------------------------------------
 #P AM1(Input,print) CIS(Singlets,NStates=15) pop(full) force
 ------------------------------------------------------------

 -----------------
 AM1-Reparam Input
 -----------------
 Symbolic Z-matrix:
 Charge =  0 Multiplicity = 1

                         Standard orientation:
 ---------------------------------------------------------------------
 Center     Atomic      Atomic             Coordinates (Angstroms)
 Number     Number       Type             X           Y           Z
 ---------------------------------------------------------------------
      1          6           0        0.867254    0.750367   -0.006659
      2          6           0        1.031277   -0.573175    0.003733
      3          8           0       -0.267478   -1.103384   -0.017968
      4          6           0       -1.161435   -0.142458    0.039961
      5          6           0       -0.452088    1.109645   -0.021723
      6          1           0       -0.915346    2.034524    0.000670
      7          1           0       -2.163544   -0.350638   -0.026643
      8          1           0        1.785176   -1.221629    0.023659
      9          1           0        1.723492    1.498536    0.054184
 ---------------------------------------------------------------------

 SCF Done:  E(RAM1) =   2.82957100523     A.U. after   14 cycles

 Excitation energies and oscillator strengths:

 Excited State   1:      Singlet-A      5.5855 eV  221.98 nm  f=0.3162  <S**2>=0.000
      13 -> 14         0.69035
 This state for optimization and/or second-order correction.
 Total Energy, E(CIS) =   3.03483262627
 Copying the excited state density for this state as the 1-particle RhoCI density.

 Excited State   2:      Singlet-A      6.6524 eV  186.38 nm  f=0.0124  <S**2>=0.000
      13 -> 15         0.65120
      13 -> 17        -0.20127

 Excited State   3:      Singlet-A      6.8493 eV  181.02 nm  f=0.0038  <S**2>=0.000
       9 -> 14         0.12496
      12 -> 14         0.68549

 Excited State   4:      Singlet-A      7.3845 eV  167.90 nm  f=0.0024  <S**2>=0.000
      13 -> 16         0.63443
      13 -> 19        -0.22339
      13 -> 21        -0.11376

 Excited State   5:      Singlet-A      7.7817 eV  159.33 nm  f=0.0043  <S**2>=0.000
       9 -> 14         0.10882
      10 -> 14         0.61408
      11 -> 14        -0.29133

 Excited State   6:      Singlet-A      8.1547 eV  152.04 nm  f=0.0004  <S**2>=0.000
      10 -> 14         0.11135
      11 -> 15        -0.10982
      13 -> 16        -0.10828
      13 -> 17         0.30209
      13 -> 18         0.32027
      13 -> 19        -0.21793
      13 -> 20         0.31213
      13 -> 21        -0.31992

 Excited State   7:      Singlet-A      8.5402 eV  145.18 nm  f=0.0095  <S**2>=0.000
      11 -> 16         0.14210
      13 -> 15         0.13443
      13 -> 17         0.56816
      13 -> 18        -0.13693
      13 -> 19         0.17796
      13 -> 20        -0.21317
      13 -> 21         0.13250

 Excited State   8:      Singlet-A      8.6513 eV  143.31 nm  f=0.0650  <S**2>=0.000
      10 -> 14         0.28574
      11 -> 14         0.59634
      12 -> 17         0.12566

 Excited State   9:      Singlet-A      8.9928 eV  137.87 nm  f=0.0044  <S**2>=0.000
      11 -> 15         0.15186
      13 -> 16         0.15055
      13 -> 18         0.54667
      13 -> 19         0.29847
      13 -> 21         0.17249

 Excited State  10:      Singlet-A      9.3670 eV  132.36 nm  f=0.0926  <S**2>=0.000
      10 -> 15        -0.17566
      10 -> 16        -0.10909
      10 -> 17         0.11577
      11 -> 14         0.11886
      12 -> 15         0.26561
      12 -> 17        -0.14774
      12 -> 18        -0.10172
      13 -> 18        -0.13741
      13 -> 19         0.34169
      13 -> 20         0.13903
      13 -> 21        -0.26367

 Excited State  11:      Singlet-A      9.3737 eV  132.27 nm  f=0.0986  <S**2>=0.000
      10 -> 15         0.14365
      10 -> 16         0.12725
      11 -> 14        -0.13234
      12 -> 15        -0.25539
      12 -> 17         0.16860
      12 -> 18         0.12062
      13 -> 18        -0.12215
      13 -> 19         0.36737
      13 -> 20         0.17526
      13 -> 21        -0.24488

 Excited State  12:      Singlet-A      9.6808 eV  128.07 nm  f=0.0245  <S**2>=0.000
      10 -> 15         0.40034
      10 -> 17        -0.12929
      11 -> 15        -0.23426
      12 -> 15         0.40174
      12 -> 16         0.19032

 Excited State  13:      Singlet-A      9.8059 eV  126.44 nm  f=0.0836  <S**2>=0.000
      10 -> 15        -0.12145
      11 -> 15        -0.10067
      13 -> 18        -0.10424
      13 -> 20         0.50052
      13 -> 21         0.42382

 Excited State  14:      Singlet-A      9.8928 eV  125.33 nm  f=0.0536  <S**2>=0.000
       9 -> 14         0.11869
      11 -> 15         0.41921
      12 -> 16         0.41194
      12 -> 17         0.14641
      12 -> 18         0.10723
      12 -> 19        -0.15517

 Excited State  15:      Singlet-A      9.9216 eV  124.96 nm  f=0.0154  <S**2>=0.000
       9 -> 14         0.53175
      10 -> 15         0.17165
      10 -> 18         0.10793
      11 -> 15         0.12578
      12 -> 16        -0.17730
      12 -> 17        -0.12211
      12 -> 18        -0.14385
      13 -> 20         0.15680

 The electronic state is 1-A.
 Alpha  occ. eigenvalues --   -1.72700  -1.12896  -0.93735  -0.79502  -0.76620
 Alpha  occ. eigenvalues --   -0.67356  -0.64315  -0.56077  -0.50230  -0.44109
 Alpha  occ. eigenvalues --   -0.43626  -0.40684  -0.30728
 Alpha virt. eigenvalues --    0.11098   0.18142   0.20953   0.23359   0.26363
 Alpha virt. eigenvalues --    0.26993   0.29275   0.29776   0.37520   0.45823
 Alpha virt. eigenvalues --    0.50927

 Mulliken charges:
               1
     1  C   -0.062051
     2  C   -1.947956
     3  O    3.233104
     4  C   -2.020812
     5  C   -0.185771
     6  H    0.189949
     7  H    0.316825
     8  H    0.293039
     9  H    0.183672
 Sum of Mulliken charges =   0.00000

 Dipole moment (field-independent basis, Debye):
    X=             -2.2366    Y=             -9.2250    Z=             -0.5689  Tot=              9.5093
 N-N= 1.043186105603D+02 E-N=-1.694991210171D+02  KE=-1.482742272067D+01
 Orbital energies and kinetic energies (alpha):
                                 1                 2
   1         O                -1.726996         -1.223969
   2         O                -1.128965         -0.985875
   3         O                -0.937345         -0.849086
   4         O                -0.795019         -0.602514
   5         O                -0.766205         -0.687668
   6         O                -0.673562         -0.579217
   7         O                -0.643149         -0.524293

 Normal termination of Gaussian 09 at Tue Dec 15 17:06:07 2015.
