 Gaussian 09, Revision D.01,
 Gaussian 09:  ES64L-G09RevD.01 24-Apr-2013

 ------------------------------------------------------------
 #P AM1(Input,print) CIS(Singlets,NStates=15) pop(full) force
 ------------------------------------------------------------

 -----------------
 AM1-Reparam Input
 -----------------
 Symbolic Z-matrix:
 Charge =  0 Multiplicity = 1

                         Standard orientation:
 ---------------------------------------------------------------------
 Center     Atomic      Atomic             Coordinates (Angstroms)
 Number     Number       Type             X           Y           Z
 ---------------------------------------------------------------------
      1          6           0       -0.716696    0.974194   -0.001533
      2          6           0       -1.107298   -0.366008   -0.010851
      3          8           0       -0.014993   -1.126145    0.021393
      4          6           0        1.125713   -0.343801   -0.025532
      5          6           0        0.713331    0.902906    0.003358
      6          1           0        1.455381    1.817331    0.048706
      7          1           0        2.036707   -0.850826   -0.004192
      8          1           0       -2.092884   -0.817018   -0.011359
      9          1           0       -1.369558    1.855927    0.003043
 ---------------------------------------------------------------------

 SCF Done:  E(RAM1) =   2.10154546585     A.U. after   13 cycles

 Excitation energies and oscillator strengths:

 Excited State   1:      Singlet-A      5.4822 eV  226.16 nm  f=0.3510  <S**2>=0.000
      13 -> 14         0.69478
 This state for optimization and/or second-order correction.
 Total Energy, E(CIS) =   2.30301247709
 Copying the excited state density for this state as the 1-particle RhoCI density.

 Excited State   2:      Singlet-A      6.5147 eV  190.32 nm  f=0.0041  <S**2>=0.000
      13 -> 15         0.66225
      13 -> 17        -0.15343
      13 -> 19         0.11743

 Excited State   3:      Singlet-A      6.9326 eV  178.84 nm  f=0.0007  <S**2>=0.000
      10 -> 16         0.10154
      13 -> 16         0.65738
      13 -> 19        -0.12391
      13 -> 20        -0.11568

 Excited State   4:      Singlet-A      7.0897 eV  174.88 nm  f=0.0008  <S**2>=0.000
      12 -> 14         0.69443

 Excited State   5:      Singlet-A      7.9652 eV  155.66 nm  f=0.0025  <S**2>=0.000
      11 -> 14        -0.26083
      13 -> 15         0.11622
      13 -> 17         0.49697
      13 -> 18        -0.23870
      13 -> 19        -0.10672
      13 -> 20        -0.15181
      13 -> 21         0.25468

 Excited State   6:      Singlet-A      8.1158 eV  152.77 nm  f=0.0040  <S**2>=0.000
      10 -> 14         0.14251
      11 -> 14         0.61409
      13 -> 17         0.12382
      13 -> 18        -0.22248
      13 -> 21         0.13392

 Excited State   7:      Singlet-A      8.4077 eV  147.47 nm  f=0.0023  <S**2>=0.000
      10 -> 16         0.10193
      11 -> 14         0.13629
      13 -> 16         0.11680
      13 -> 17         0.43319
      13 -> 18         0.41872
      13 -> 19         0.12773
      13 -> 20         0.11696
      13 -> 21        -0.22103

 Excited State   8:      Singlet-A      8.9917 eV  137.89 nm  f=0.0038  <S**2>=0.000
      10 -> 15         0.10310
      13 -> 18        -0.38111
      13 -> 19         0.48821
      13 -> 20         0.23937
      13 -> 21        -0.13443

 Excited State   9:      Singlet-A      9.0649 eV  136.77 nm  f=0.0656  <S**2>=0.000
      10 -> 14         0.64336
      11 -> 14        -0.14594
      12 -> 17         0.13980
      13 -> 22         0.12480

 Excited State  10:      Singlet-A      9.4997 eV  130.51 nm  f=0.0127  <S**2>=0.000
      13 -> 18         0.23297
      13 -> 19         0.39680
      13 -> 20        -0.21165
      13 -> 21         0.47055

 Excited State  11:      Singlet-A      9.7130 eV  127.65 nm  f=0.0923  <S**2>=0.000
      10 -> 14         0.10414
      11 -> 16        -0.18539
      11 -> 17         0.16359
      11 -> 18         0.16878
      12 -> 15         0.37631
      12 -> 17        -0.35922
      12 -> 18         0.17989

 Excited State  12:      Singlet-A      9.8900 eV  125.36 nm  f=0.0921  <S**2>=0.000
      13 -> 19        -0.13664
      13 -> 20         0.56231
      13 -> 21         0.34199

 Excited State  13:      Singlet-A      9.9827 eV  124.20 nm  f=0.1435  <S**2>=0.000
      12 -> 16         0.65120
      12 -> 20        -0.11356

 Excited State  14:      Singlet-A     10.1996 eV  121.56 nm  f=0.2585  <S**2>=0.000
       8 -> 15         0.12031
      10 -> 14        -0.13036
      11 -> 15         0.32435
      11 -> 17        -0.12687
      12 -> 15         0.43995
      12 -> 17         0.24561
      12 -> 18        -0.18175
      12 -> 19         0.15240

 Excited State  15:      Singlet-A     10.3509 eV  119.78 nm  f=0.0010  <S**2>=0.000
       7 -> 15         0.11619
      10 -> 15         0.61714
      11 -> 15        -0.17977
      13 -> 15         0.14014
      13 -> 19        -0.11010

 The electronic state is 1-A.
 Alpha  occ. eigenvalues --   -1.94606  -1.18532  -0.94217  -0.80764  -0.78376
 Alpha  occ. eigenvalues --   -0.68951  -0.66501  -0.57271  -0.53944  -0.45456
 Alpha  occ. eigenvalues --   -0.44919  -0.41465  -0.29646
 Alpha virt. eigenvalues --    0.11103   0.17560   0.19138   0.23951   0.26699
 Alpha virt. eigenvalues --    0.28679   0.30496   0.31086   0.32282   0.39963
 Alpha virt. eigenvalues --    0.45202

 Mulliken charges:
               1
     1  C   -0.194175
     2  C   -1.928848
     3  O    3.228444
     4  C   -1.867364
     5  C   -0.118278
     6  H    0.164435
     7  H    0.262000
     8  H    0.285248
     9  H    0.168538
 Sum of Mulliken charges =   0.00000

 Dipole moment (field-independent basis, Debye):
    X=             -0.0958    Y=            -10.1349    Z=              0.6063  Tot=             10.1535
 N-N= 1.040765970583D+02 E-N=-1.691477652089D+02  KE=-1.530935857452D+01
 Orbital energies and kinetic energies (alpha):
                                 1                 2
   1         O                -1.946061         -1.374093
   2         O                -1.185315         -1.028537
   3         O                -0.942174         -0.878213
   4         O                -0.807641         -0.564074
   5         O                -0.783762         -0.697075
   6         O                -0.689509         -0.577973
   7         O                -0.665010         -0.528824

 Normal termination of Gaussian 09 at Tue Dec 15 17:08:36 2015.
