 Gaussian 09, Revision D.01,
 Gaussian 09:  ES64L-G09RevD.01 24-Apr-2013

 ------------------------------------------------------------
 #P AM1(Input,print) CIS(Singlets,NStates=15) pop(full) force
 ------------------------------------------------------------

 -----------------
 AM1-Reparam Input
 -----------------
 Symbolic Z-matrix:
 Charge =  0 Multiplicity = 1

                         Standard orientation:
 ---------------------------------------------------------------------
 Center     Atomic      Atomic             Coordinates (Angstroms)
 Number     Number       Type             X           Y           Z
 ---------------------------------------------------------------------
      1          6           0        0.285540    1.128025   -0.022795
      2          6           0        1.182488    0.050844   -0.009044
      3          8           0        0.402109   -1.082291    0.000520
      4          6           0       -0.907967   -0.694371    0.000924
      5          6           0       -0.980951    0.676219    0.016464
      6          1           0       -1.943050    1.161635   -0.007027
      7          1           0       -1.636924   -1.524341   -0.014432
      8          1           0        2.254782   -0.096142    0.061871
      9          1           0        0.633659    2.152871    0.042130
 ---------------------------------------------------------------------

 SCF Done:  E(RAM1) =   1.09143242043     A.U. after   13 cycles

 Excitation energies and oscillator strengths:

 Excited State   1:      Singlet-A      5.8978 eV  210.22 nm  f=0.1469  <S**2>=0.000
      12 -> 15         0.16788
      13 -> 14         0.66463
 This state for optimization and/or second-order correction.
 Total Energy, E(CIS) =   1.30817190582
 Copying the excited state density for this state as the 1-particle RhoCI density.

 Excited State   2:      Singlet-A      6.7653 eV  183.26 nm  f=0.0045  <S**2>=0.000
      13 -> 16         0.67521

 Excited State   3:      Singlet-A      7.1321 eV  173.84 nm  f=0.0010  <S**2>=0.000
      12 -> 14        -0.46616
      13 -> 15         0.51349

 Excited State   4:      Singlet-A      7.4741 eV  165.89 nm  f=0.0004  <S**2>=0.000
      11 -> 14        -0.11059
      12 -> 16        -0.20718
      13 -> 17         0.62271
      13 -> 21        -0.16313

 Excited State   5:      Singlet-A      7.5303 eV  164.65 nm  f=0.0015  <S**2>=0.000
      10 -> 14        -0.18722
      11 -> 14         0.65293
      13 -> 17         0.10069

 Excited State   6:      Singlet-A      7.9261 eV  156.43 nm  f=0.0049  <S**2>=0.000
       9 -> 14         0.18181
      10 -> 14         0.64061
      11 -> 14         0.16860

 Excited State   7:      Singlet-A      8.1005 eV  153.06 nm  f=0.2380  <S**2>=0.000
      10 -> 14        -0.10130
      12 -> 14         0.50320
      13 -> 15         0.43657

 Excited State   8:      Singlet-A      8.2747 eV  149.84 nm  f=0.0060  <S**2>=0.000
      12 -> 16         0.60598
      12 -> 17         0.10242
      12 -> 20         0.12232
      13 -> 17         0.15997
      13 -> 18         0.16132
      13 -> 19        -0.13004

 Excited State   9:      Singlet-A      8.4730 eV  146.33 nm  f=0.0395  <S**2>=0.000
       9 -> 15        -0.21525
      10 -> 14         0.10746
      10 -> 15         0.38982
      11 -> 15         0.46264
      12 -> 15        -0.21628

 Excited State  10:      Singlet-A      8.5724 eV  144.63 nm  f=0.1971  <S**2>=0.000
      10 -> 15         0.12900
      11 -> 15         0.16695
      12 -> 15         0.62344
      13 -> 14        -0.13027

 Excited State  11:      Singlet-A      8.7382 eV  141.89 nm  f=0.0014  <S**2>=0.000
      12 -> 16        -0.15353
      13 -> 17        -0.14778
      13 -> 18         0.51108
      13 -> 19        -0.34762
      13 -> 20         0.13039
      13 -> 24        -0.17283

 Excited State  12:      Singlet-A      8.8195 eV  140.58 nm  f=0.0045  <S**2>=0.000
      12 -> 17         0.31863
      13 -> 20         0.59467
      13 -> 22         0.10041

 Excited State  13:      Singlet-A      8.9463 eV  138.59 nm  f=0.0037  <S**2>=0.000
       7 -> 16         0.11598
      12 -> 16        -0.11673
      12 -> 17         0.52182
      13 -> 18        -0.13112
      13 -> 19        -0.31856
      13 -> 20        -0.23400

 Excited State  14:      Singlet-A      9.2316 eV  134.30 nm  f=0.1032  <S**2>=0.000
       9 -> 16        -0.14916
       9 -> 17        -0.14364
      10 -> 16         0.11750
      10 -> 20         0.13048
      11 -> 16         0.50794
      11 -> 17         0.25901
      11 -> 18        -0.14550

 Excited State  15:      Singlet-A      9.2791 eV  133.62 nm  f=0.0862  <S**2>=0.000
       9 -> 16        -0.17627
       9 -> 17         0.13679
      10 -> 16         0.54431
      10 -> 19        -0.19608
      11 -> 18         0.15072
      11 -> 20         0.11326
      13 -> 14         0.11350

 The electronic state is 1-A.
 Alpha  occ. eigenvalues --   -1.82050  -1.20447  -0.97801  -0.87243  -0.81194
 Alpha  occ. eigenvalues --   -0.73227  -0.71275  -0.60937  -0.56588  -0.51075
 Alpha  occ. eigenvalues --   -0.50055  -0.46470  -0.40003
 Alpha virt. eigenvalues --    0.04242   0.09179   0.09709   0.11730   0.18250
 Alpha virt. eigenvalues --    0.18580   0.19325   0.21295   0.26758   0.27084
 Alpha virt. eigenvalues --    0.27813

 Mulliken charges:
               1
     1  C   -0.129660
     2  C   -1.269246
     3  O    2.155405
     4  C   -1.274143
     5  C   -0.114225
     6  H    0.116444
     7  H    0.202261
     8  H    0.195170
     9  H    0.117992
 Sum of Mulliken charges =   0.00000

 Dipole moment (field-independent basis, Debye):
    X=              2.1917    Y=             -6.7372    Z=              0.1386  Tot=              7.0861
 N-N= 1.042753449911D+02 E-N=-1.710321027494D+02  KE=-1.496842014246D+01
 Orbital energies and kinetic energies (alpha):
                                 1                 2
   1         O                -1.820503         -1.234251
   2         O                -1.204465         -0.981184
   3         O                -0.978008         -0.802922
   4         O                -0.872427         -0.635166
   5         O                -0.811944         -0.653311
   6         O                -0.732270         -0.610225
   7         O                -0.712752         -0.517262

 Normal termination of Gaussian 09 at Tue Dec 15 17:05:37 2015.
