 Gaussian 09, Revision D.01,
 Gaussian 09:  ES64L-G09RevD.01 24-Apr-2013

 ------------------------------------------------------------
 #P AM1(Input,print) CIS(Singlets,NStates=15) pop(full) force
 ------------------------------------------------------------

 -----------------
 AM1-Reparam Input
 -----------------
 Symbolic Z-matrix:
 Charge =  0 Multiplicity = 1

                         Standard orientation:
 ---------------------------------------------------------------------
 Center     Atomic      Atomic             Coordinates (Angstroms)
 Number     Number       Type             X           Y           Z
 ---------------------------------------------------------------------
      1          6           0        0.788970    0.885096   -0.003663
      2          6           0        1.102359   -0.368707    0.027840
      3          8           0       -0.079589   -1.151040   -0.021614
      4          6           0       -1.150744   -0.252078    0.029135
      5          6           0       -0.671583    0.959252   -0.022512
      6          1           0       -1.227418    1.853659    0.035861
      7          1           0       -2.037413   -0.689635   -0.014642
      8          1           0        2.007510   -1.003691   -0.013128
      9          1           0        1.480020    1.706611   -0.019980
 ---------------------------------------------------------------------

 SCF Done:  E(RAM1) =   2.91202639045     A.U. after   14 cycles

 Excitation energies and oscillator strengths:

 Excited State   1:      Singlet-A      4.9590 eV  250.02 nm  f=0.3406  <S**2>=0.000
      13 -> 14         0.69606
 This state for optimization and/or second-order correction.
 Total Energy, E(CIS) =   3.09426566278
 Copying the excited state density for this state as the 1-particle RhoCI density.

 Excited State   2:      Singlet-A      5.9915 eV  206.93 nm  f=0.0002  <S**2>=0.000
      10 -> 15         0.10645
      13 -> 15         0.65248
      13 -> 16        -0.10372
      13 -> 17         0.11522
      13 -> 18        -0.17081

 Excited State   3:      Singlet-A      6.3091 eV  196.51 nm  f=0.0033  <S**2>=0.000
      13 -> 15         0.11734
      13 -> 16         0.64089
      13 -> 17         0.17039
      13 -> 18         0.15274

 Excited State   4:      Singlet-A      6.5300 eV  189.87 nm  f=0.0002  <S**2>=0.000
      12 -> 14         0.69648

 Excited State   5:      Singlet-A      7.2692 eV  170.56 nm  f=0.0037  <S**2>=0.000
      13 -> 15         0.15983
      13 -> 17        -0.28708
      13 -> 18         0.51589
      13 -> 19        -0.15486
      13 -> 20        -0.13272
      13 -> 21         0.25242

 Excited State   6:      Singlet-A      7.6142 eV  162.83 nm  f=0.0186  <S**2>=0.000
      11 -> 14        -0.33876
      13 -> 16        -0.16624
      13 -> 17         0.51927
      13 -> 18         0.20241
      13 -> 19        -0.11544
      13 -> 21         0.13461

 Excited State   7:      Singlet-A      7.7904 eV  159.15 nm  f=0.0005  <S**2>=0.000
      11 -> 14         0.61267
      13 -> 17         0.31236

 Excited State   8:      Singlet-A      8.2666 eV  149.98 nm  f=0.0001  <S**2>=0.000
      13 -> 16        -0.12531
      13 -> 18         0.20731
      13 -> 19         0.64374

 Excited State   9:      Singlet-A      8.7173 eV  142.23 nm  f=0.0557  <S**2>=0.000
      10 -> 14         0.63038
      12 -> 15         0.21713
      13 -> 22         0.13417

 Excited State  10:      Singlet-A      8.9001 eV  139.31 nm  f=0.0013  <S**2>=0.000
      13 -> 18        -0.29047
      13 -> 19         0.17248
      13 -> 20        -0.25817
      13 -> 21         0.55542

 Excited State  11:      Singlet-A      9.0738 eV  136.64 nm  f=0.0942  <S**2>=0.000
       8 -> 15        -0.10194
      10 -> 14        -0.16993
      11 -> 17        -0.17156
      12 -> 15         0.44875
      12 -> 16        -0.26829
      12 -> 18        -0.29979
      13 -> 20         0.10764

 Excited State  12:      Singlet-A      9.1868 eV  134.96 nm  f=0.0912  <S**2>=0.000
      13 -> 20         0.61598
      13 -> 21         0.30663

 Excited State  13:      Singlet-A      9.5929 eV  129.25 nm  f=0.0789  <S**2>=0.000
      10 -> 14        -0.15057
      11 -> 15         0.26000
      11 -> 17         0.19548
      12 -> 15         0.39387
      12 -> 16         0.28154
      12 -> 18         0.25607
      12 -> 19        -0.12689

 Excited State  14:      Singlet-A      9.7649 eV  126.97 nm  f=0.1223  <S**2>=0.000
       9 -> 16        -0.10843
      11 -> 16        -0.27212
      11 -> 17        -0.19354
      12 -> 16         0.48356
      12 -> 17         0.16329
      12 -> 18        -0.17208
      12 -> 19         0.20686

 Excited State  15:      Singlet-A     10.1087 eV  122.65 nm  f=0.0645  <S**2>=0.000
       9 -> 14        -0.10933
      10 -> 14        -0.14370
      13 -> 22         0.65814

 The electronic state is 1-A.
 Alpha  occ. eigenvalues --   -1.70855  -1.12130  -0.94171  -0.79318  -0.76091
 Alpha  occ. eigenvalues --   -0.66438  -0.63226  -0.54076  -0.50420  -0.43549
 Alpha  occ. eigenvalues --   -0.42707  -0.38705  -0.26268
 Alpha virt. eigenvalues --    0.11992   0.18135   0.20311   0.26019   0.28075
 Alpha virt. eigenvalues --    0.29231   0.31102   0.31416   0.33707   0.42917
 Alpha virt. eigenvalues --    0.46581

 Mulliken charges:
               1
     1  C   -0.147246
     2  C   -1.889786
     3  O    3.211895
     4  C   -1.902523
     5  C   -0.195596
     6  H    0.183567
     7  H    0.281505
     8  H    0.279417
     9  H    0.178768
 Sum of Mulliken charges =   0.00000

 Dipole moment (field-independent basis, Debye):
    X=             -0.4528    Y=            -11.3482    Z=             -0.7850  Tot=             11.3843
 N-N= 1.040452599977D+02 E-N=-1.691194890065D+02  KE=-1.478792688177D+01
 Orbital energies and kinetic energies (alpha):
                                 1                 2
   1         O                -1.708546         -1.183908
   2         O                -1.121304         -0.981724
   3         O                -0.941706         -0.871189
   4         O                -0.793182         -0.602856
   5         O                -0.760908         -0.682272
   6         O                -0.664383         -0.554531
   7         O                -0.632260         -0.525001

 Normal termination of Gaussian 09 at Tue Dec 15 17:05:56 2015.
