 Gaussian 09, Revision D.01,
 Gaussian 09:  ES64L-G09RevD.01 24-Apr-2013

 ------------------------------------------------------------
 #P AM1(Input,print) CIS(Singlets,NStates=15) pop(full) force
 ------------------------------------------------------------

 -----------------
 AM1-Reparam Input
 -----------------
 Symbolic Z-matrix:
 Charge =  0 Multiplicity = 1

                         Standard orientation:
 ---------------------------------------------------------------------
 Center     Atomic      Atomic             Coordinates (Angstroms)
 Number     Number       Type             X           Y           Z
 ---------------------------------------------------------------------
      1          6           0       -0.948388    0.813173   -0.020257
      2          6           0       -0.985423   -0.618480   -0.014085
      3          8           0        0.261296   -1.072863    0.015507
      4          6           0        1.185691   -0.120481   -0.012115
      5          6           0        0.485941    1.046557    0.028516
      6          1           0        0.912059    2.022266   -0.028832
      7          1           0        2.133718   -0.338212   -0.046274
      8          1           0       -1.858493   -1.254421    0.018396
      9          1           0       -1.704583    1.428654    0.040298
 ---------------------------------------------------------------------

 SCF Done:  E(RAM1) =   1.71912706431     A.U. after   13 cycles

 Excitation energies and oscillator strengths:

 Excited State   1:      Singlet-A      5.4371 eV  228.03 nm  f=0.3799  <S**2>=0.000
      13 -> 14         0.69441
 This state for optimization and/or second-order correction.
 Total Energy, E(CIS) =   1.91893838149
 Copying the excited state density for this state as the 1-particle RhoCI density.

 Excited State   2:      Singlet-A      6.7367 eV  184.04 nm  f=0.0011  <S**2>=0.000
      12 -> 14         0.70054

 Excited State   3:      Singlet-A      7.3619 eV  168.41 nm  f=0.0102  <S**2>=0.000
      13 -> 15         0.66893
      13 -> 17        -0.17993

 Excited State   4:      Singlet-A      7.8084 eV  158.78 nm  f=0.0045  <S**2>=0.000
      13 -> 16         0.66147
      13 -> 18        -0.16422
      13 -> 19        -0.11418

 Excited State   5:      Singlet-A      8.1557 eV  152.02 nm  f=0.0048  <S**2>=0.000
      11 -> 14         0.69802

 Excited State   6:      Singlet-A      8.8582 eV  139.97 nm  f=0.0001  <S**2>=0.000
      10 -> 15        -0.10667
      13 -> 15         0.11420
      13 -> 16        -0.12625
      13 -> 17         0.51077
      13 -> 18        -0.34543
      13 -> 19         0.12457
      13 -> 20         0.12623
      13 -> 21        -0.20438

 Excited State   7:      Singlet-A      9.1727 eV  135.17 nm  f=0.1311  <S**2>=0.000
      10 -> 14         0.69140

 Excited State   8:      Singlet-A      9.9121 eV  125.08 nm  f=0.0148  <S**2>=0.000
      10 -> 16         0.13199
      12 -> 15        -0.15274
      13 -> 17         0.37466
      13 -> 18         0.47019
      13 -> 19        -0.10894
      13 -> 20        -0.14772

 Excited State   9:      Singlet-A      9.9694 eV  124.37 nm  f=0.0411  <S**2>=0.000
       9 -> 16        -0.10501
      11 -> 15        -0.13954
      11 -> 16        -0.16776
      11 -> 18         0.16525
      12 -> 15         0.42558
      12 -> 17        -0.31053
      12 -> 18         0.12998
      13 -> 17         0.14301
      13 -> 18         0.15782

 Excited State  10:      Singlet-A     10.1680 eV  121.94 nm  f=0.0039  <S**2>=0.000
      10 -> 15         0.13400
      13 -> 16         0.11586
      13 -> 19         0.64728

 Excited State  11:      Singlet-A     10.4338 eV  118.83 nm  f=0.1100  <S**2>=0.000
      12 -> 15         0.18656
      12 -> 16         0.62910
      12 -> 18        -0.17146

 Excited State  12:      Singlet-A     10.6938 eV  115.94 nm  f=0.0016  <S**2>=0.000
       9 -> 14         0.66465
      13 -> 21         0.14807

 Excited State  13:      Singlet-A     10.7592 eV  115.24 nm  f=0.1400  <S**2>=0.000
       8 -> 15         0.10858
      11 -> 15         0.23189
      12 -> 15         0.40310
      12 -> 16        -0.16306
      12 -> 17         0.26349
      12 -> 18        -0.16930
      12 -> 19         0.26614

 Excited State  14:      Singlet-A     10.9163 eV  113.58 nm  f=0.0127  <S**2>=0.000
       9 -> 14        -0.16968
      13 -> 17         0.10301
      13 -> 18        -0.25575
      13 -> 20        -0.36585
      13 -> 21         0.48345

 Excited State  15:      Singlet-A     11.0746 eV  111.95 nm  f=0.0474  <S**2>=0.000
       9 -> 15        -0.19348
      11 -> 15         0.52663
      11 -> 19         0.19204
      12 -> 17        -0.23742
      12 -> 19        -0.10759

 The electronic state is 1-A.
 Alpha  occ. eigenvalues --   -1.92560  -1.17154  -0.94860  -0.83714  -0.78996
 Alpha  occ. eigenvalues --   -0.71586  -0.68944  -0.60428  -0.55810  -0.48691
 Alpha  occ. eigenvalues --   -0.48465  -0.43608  -0.33038
 Alpha virt. eigenvalues --    0.07672   0.17900   0.19766   0.25451   0.27748
 Alpha virt. eigenvalues --    0.28342   0.31374   0.32503   0.36093   0.43477
 Alpha virt. eigenvalues --    0.49421

 Mulliken charges:
               1
     1  C   -0.157461
     2  C   -2.090505
     3  O    3.322180
     4  C   -2.040159
     5  C   -0.164034
     6  H    0.221999
     7  H    0.337214
     8  H    0.358528
     9  H    0.212238
 Sum of Mulliken charges =   0.00000

 Dipole moment (field-independent basis, Debye):
    X=              1.9537    Y=             -8.8702    Z=              0.4029  Tot=              9.0917
 N-N= 1.042730026949D+02 E-N=-1.696049932835D+02  KE=-1.554568285746D+01
 Orbital energies and kinetic energies (alpha):
                                 1                 2
   1         O                -1.925598         -1.402034
   2         O                -1.171540         -1.032351
   3         O                -0.948600         -0.888388
   4         O                -0.837140         -0.581260
   5         O                -0.789964         -0.709265
   6         O                -0.715855         -0.596944
   7         O                -0.689443         -0.530531

 Normal termination of Gaussian 09 at Tue Dec 15 17:09:40 2015.
