 Gaussian 09, Revision D.01,
 Gaussian 09:  ES64L-G09RevD.01 24-Apr-2013

 -------------------------------------------------------
 #P B3LYP/3-21G CIS(Singlets,NStates=15) pop(full) force
 -------------------------------------------------------

 --------
 FuranDFT
 --------
 Symbolic Z-matrix:
 Charge =  0 Multiplicity = 1

                         Standard orientation:
 ---------------------------------------------------------------------
 Center     Atomic      Atomic             Coordinates (Angstroms)
 Number     Number       Type             X           Y           Z
 ---------------------------------------------------------------------
      1          6           0        1.141479    0.413954    0.016338
      2          6           0        0.675203   -0.894648   -0.006323
      3          8           0       -0.623343   -0.945061   -0.007641
      4          6           0       -1.108052    0.250006    0.000708
      5          6           0       -0.059486    1.230923   -0.011408
      6          1           0       -0.130946    2.239811   -0.017631
      7          1           0       -2.215799    0.387332    0.065965
      8          1           0        1.272325   -1.838166    0.018469
      9          1           0        2.166301    0.770099   -0.001566
 ---------------------------------------------------------------------

 SCF Done:  E(RB3LYP) =  -228.726304334     A.U. after   14 cycles

 Excitation energies and oscillator strengths:

 Excited State   1:      Singlet-A      6.9590 eV  178.16 nm  f=0.0028  <S**2>=0.000
      17 -> 19        -0.47315
      18 -> 20         0.51921
 This state for optimization and/or second-order correction.
 Total Energy, E(CIS) =  -228.470564502
 Copying the excited state density for this state as the 1-particle RhoCI density.

 Excited State   2:      Singlet-A      7.2996 eV  169.85 nm  f=0.2486  <S**2>=0.000
      18 -> 19         0.68248

 Excited State   3:      Singlet-A      8.5866 eV  144.39 nm  f=0.0008  <S**2>=0.000
      18 -> 21         0.69362

 Excited State   4:      Singlet-A      8.7776 eV  141.25 nm  f=0.0051  <S**2>=0.000
      16 -> 19         0.69447

 Excited State   5:      Singlet-A      9.2283 eV  134.35 nm  f=0.3277  <S**2>=0.000
      16 -> 25        -0.12218
      17 -> 19         0.34964
      17 -> 20         0.46042
      18 -> 20         0.31105
      18 -> 23        -0.12567

 Excited State   6:      Singlet-A      9.2514 eV  134.02 nm  f=0.0006  <S**2>=0.000
      18 -> 22         0.67748
      18 -> 23         0.13216

 Excited State   7:      Singlet-A      9.3922 eV  132.01 nm  f=0.0399  <S**2>=0.000
      17 -> 20         0.27884
      17 -> 21        -0.13267
      18 -> 22        -0.14015
      18 -> 23         0.59121

 Excited State   8:      Singlet-A      9.5349 eV  130.03 nm  f=0.3677  <S**2>=0.000
      17 -> 19        -0.32678
      17 -> 20         0.40693
      18 -> 20        -0.30199
      18 -> 23        -0.28129

 Excited State   9:      Singlet-A      9.8531 eV  125.83 nm  f=0.0110  <S**2>=0.000
      14 -> 19         0.17504
      15 -> 19        -0.22648
      16 -> 20         0.62634

 Excited State  10:      Singlet-A      9.9318 eV  124.84 nm  f=0.0109  <S**2>=0.000
      17 -> 21         0.67034
      17 -> 22         0.11043
      18 -> 23         0.13397

 Excited State  11:      Singlet-A     10.2964 eV  120.41 nm  f=0.0014  <S**2>=0.000
      14 -> 19         0.18686
      15 -> 19         0.63489
      16 -> 20         0.17175
      18 -> 24         0.10327

 Excited State  12:      Singlet-A     10.4170 eV  119.02 nm  f=0.0017  <S**2>=0.000
      14 -> 19         0.64477
      15 -> 19        -0.13852
      16 -> 20        -0.22206

 Excited State  13:      Singlet-A     10.4511 eV  118.63 nm  f=0.0004  <S**2>=0.000
      17 -> 22         0.15723
      18 -> 24         0.66651

 Excited State  14:      Singlet-A     10.5733 eV  117.26 nm  f=0.0005  <S**2>=0.000
      15 -> 19         0.11258
      17 -> 22         0.66608
      18 -> 24        -0.15527

 Excited State  15:      Singlet-A     10.9192 eV  113.55 nm  f=0.0003  <S**2>=0.000
      17 -> 23         0.69683

 The electronic state is 1-A.
 Alpha  occ. eigenvalues --  -19.13359 -10.18386 -10.17890 -10.12769 -10.12408
 Alpha  occ. eigenvalues --   -1.18136  -0.79505  -0.76309  -0.61472  -0.55819
 Alpha  occ. eigenvalues --   -0.55080  -0.47812  -0.45833  -0.41169  -0.40631
 Alpha  occ. eigenvalues --   -0.35412  -0.27439  -0.22396
 Alpha virt. eigenvalues --    0.02627   0.06831   0.13230   0.15940   0.16699
 Alpha virt. eigenvalues --    0.19967   0.23268   0.24006   0.34167   0.40106
 Alpha virt. eigenvalues --    0.47594   0.69747   0.70120   0.71989   0.73098

 Mulliken charges:
               1
     1  C   -0.252584
     2  C    0.113233
     3  O   -0.503035
     4  C    0.117563
     5  C   -0.267163
     6  H    0.184925
     7  H    0.209746
     8  H    0.210369
     9  H    0.186947
 Sum of Mulliken charges =   0.00000

 Dipole moment (field-independent basis, Debye):
    X=              0.2595    Y=              0.3715    Z=              0.0634  Tot=              0.4575
 Quadrupole moment (field-independent basis, Debye-Ang):
   XX=            -25.0680   YY=            -26.8394   ZZ=            -31.9446
   XY=             -1.6368   XZ=             -0.1581   YZ=             -0.0559

 Normal termination of Gaussian 09 at Sat Nov 14 17:21:46 2015.
