 Gaussian 09, Revision D.01,
 Gaussian 09:  ES64L-G09RevD.01 24-Apr-2013

 -------------------------------------------------------
 #P B3LYP/3-21G CIS(Singlets,NStates=15) pop(full) force
 -------------------------------------------------------

 --------
 FuranDFT
 --------
 Symbolic Z-matrix:
 Charge =  0 Multiplicity = 1

                         Standard orientation:
 ---------------------------------------------------------------------
 Center     Atomic      Atomic             Coordinates (Angstroms)
 Number     Number       Type             X           Y           Z
 ---------------------------------------------------------------------
      1          6           0        0.569653    1.043992    0.004934
      2          6           0        1.183941   -0.220889   -0.006324
      3          8           0        0.135734   -1.131821   -0.002770
      4          6           0       -1.038320   -0.454336    0.013365
      5          6           0       -0.867145    0.820923   -0.009065
      6          1           0       -1.586914    1.554453   -0.018553
      7          1           0       -1.864804   -1.070508   -0.002558
      8          1           0        2.119918   -0.536569    0.003201
      9          1           0        1.157157    1.969053    0.022617
 ---------------------------------------------------------------------

 SCF Done:  E(RB3LYP) =  -228.731954376     A.U. after   15 cycles

 Excitation energies and oscillator strengths:

 Excited State   1:      Singlet-A      7.2918 eV  170.03 nm  f=0.0060  <S**2>=0.000
      17 -> 19         0.54024
      18 -> 20         0.44330
 This state for optimization and/or second-order correction.
 Total Energy, E(CIS) =  -228.463985048
 Copying the excited state density for this state as the 1-particle RhoCI density.

 Excited State   2:      Singlet-A      7.4104 eV  167.31 nm  f=0.2148  <S**2>=0.000
      18 -> 19         0.67312

 Excited State   3:      Singlet-A      8.4961 eV  145.93 nm  f=0.0024  <S**2>=0.000
      16 -> 19         0.70211

 Excited State   4:      Singlet-A      8.8925 eV  139.43 nm  f=0.0040  <S**2>=0.000
      18 -> 21         0.68547
      18 -> 22        -0.11184

 Excited State   5:      Singlet-A      9.2276 eV  134.36 nm  f=0.2572  <S**2>=0.000
      17 -> 19         0.29492
      17 -> 20         0.46703
      18 -> 20        -0.38002

 Excited State   6:      Singlet-A      9.6144 eV  128.96 nm  f=0.0032  <S**2>=0.000
      18 -> 21         0.11217
      18 -> 22         0.67301

 Excited State   7:      Singlet-A      9.9393 eV  124.74 nm  f=0.0434  <S**2>=0.000
      17 -> 20        -0.13969
      17 -> 21         0.62857
      18 -> 20        -0.11595
      18 -> 23        -0.14316
      18 -> 24        -0.15548

 Excited State   8:      Singlet-A     10.0115 eV  123.84 nm  f=0.0024  <S**2>=0.000
      15 -> 19         0.63661
      17 -> 21        -0.12297
      18 -> 23        -0.23055

 Excited State   9:      Singlet-A     10.0617 eV  123.22 nm  f=0.3933  <S**2>=0.000
      17 -> 19        -0.25959
      17 -> 20         0.46113
      17 -> 21         0.18695
      18 -> 20         0.31114

 Excited State  10:      Singlet-A     10.2408 eV  121.07 nm  f=0.0047  <S**2>=0.000
      14 -> 19        -0.14577
      15 -> 19         0.21647
      16 -> 20        -0.18536
      17 -> 21         0.18773
      18 -> 23         0.50690
      18 -> 24         0.28942

 Excited State  11:      Singlet-A     10.2789 eV  120.62 nm  f=0.0079  <S**2>=0.000
      14 -> 19         0.35819
      15 -> 19         0.18698
      16 -> 20         0.52421
      18 -> 23         0.19924

 Excited State  12:      Singlet-A     10.5073 eV  118.00 nm  f=0.0011  <S**2>=0.000
      16 -> 20         0.13129
      17 -> 22        -0.11323
      18 -> 23        -0.30918
      18 -> 24         0.59482

 Excited State  13:      Singlet-A     10.6452 eV  116.47 nm  f=0.0015  <S**2>=0.000
      16 -> 20        -0.14756
      17 -> 22         0.65406
      18 -> 24         0.14091

 Excited State  14:      Singlet-A     10.7319 eV  115.53 nm  f=0.0022  <S**2>=0.000
      14 -> 19         0.56487
      16 -> 20        -0.36753
      17 -> 22        -0.15819

 Excited State  15:      Singlet-A     11.2689 eV  110.02 nm  f=0.0061  <S**2>=0.000
      18 -> 23         0.11095
      18 -> 25         0.67585

 The electronic state is 1-A.
 Alpha  occ. eigenvalues --  -19.10376 -10.17121 -10.16461 -10.13072 -10.11501
 Alpha  occ. eigenvalues --   -1.11631  -0.80338  -0.75460  -0.60416  -0.58618
 Alpha  occ. eigenvalues --   -0.54227  -0.46363  -0.44291  -0.42126  -0.40260
 Alpha  occ. eigenvalues --   -0.35106  -0.27428  -0.23507
 Alpha virt. eigenvalues --    0.02121   0.08409   0.14065   0.16168   0.18733
 Alpha virt. eigenvalues --    0.19237   0.22064   0.22816   0.35430   0.41984
 Alpha virt. eigenvalues --    0.48006   0.67197   0.69915   0.70725   0.75608

 Mulliken charges:
               1
     1  C   -0.246536
     2  C    0.065751
     3  O   -0.492313
     4  C    0.120738
     5  C   -0.263534
     6  H    0.189685
     7  H    0.222068
     8  H    0.222002
     9  H    0.182139
 Sum of Mulliken charges =   0.00000

 Dipole moment (field-independent basis, Debye):
    X=             -0.0710    Y=              0.6638    Z=              0.0096  Tot=              0.6676
 Quadrupole moment (field-independent basis, Debye-Ang):
   XX=            -23.2177   YY=            -28.2193   ZZ=            -31.5882
   XY=              0.4348   XZ=              0.0822   YZ=              0.0188

 Normal termination of Gaussian 09 at Tue Dec 15 16:19:44 2015.
