 Gaussian 09, Revision D.01,
 Gaussian 09:  ES64L-G09RevD.01 24-Apr-2013

 ------------------------------------------------------------
 #P AM1(Input,print) CIS(Singlets,NStates=15) pop(full) force
 ------------------------------------------------------------

 -----------------
 AM1-Reparam Input
 -----------------
 Symbolic Z-matrix:
 Charge =  0 Multiplicity = 1

                         Standard orientation:
 ---------------------------------------------------------------------
 Center     Atomic      Atomic             Coordinates (Angstroms)
 Number     Number       Type             X           Y           Z
 ---------------------------------------------------------------------
      1          6           0       -1.066028    0.549571    0.013166
      2          6           0       -0.878971   -0.796044   -0.016967
      3          8           0        0.582850   -1.035453    0.006998
      4          6           0        1.153102    0.178886   -0.007447
      5          6           0        0.175993    1.158476   -0.003216
      6          1           0        0.382676    2.257368   -0.024410
      7          1           0        2.218832    0.183356    0.032427
      8          1           0       -1.469872   -1.686384    0.003517
      9          1           0       -2.099014    0.983952    0.019260
 ---------------------------------------------------------------------

 SCF Done:  E(RAM1) =   1.72964832621     A.U. after   14 cycles

 Excitation energies and oscillator strengths:

 Excited State   1:      Singlet-A      5.6248 eV  220.42 nm  f=0.3272  <S**2>=0.000
      13 -> 14         0.69003
 This state for optimization and/or second-order correction.
 Total Energy, E(CIS) =   1.93635765657
 Copying the excited state density for this state as the 1-particle RhoCI density.

 Excited State   2:      Singlet-A      7.0590 eV  175.64 nm  f=0.0029  <S**2>=0.000
      10 -> 15         0.11542
      13 -> 15         0.66873
      13 -> 17        -0.14708

 Excited State   3:      Singlet-A      7.3563 eV  168.54 nm  f=0.0001  <S**2>=0.000
      12 -> 14         0.69833

 Excited State   4:      Singlet-A      7.7065 eV  160.88 nm  f=0.0061  <S**2>=0.000
      11 -> 14         0.45039
      13 -> 16         0.50354

 Excited State   5:      Singlet-A      7.8034 eV  158.89 nm  f=0.0021  <S**2>=0.000
      11 -> 14         0.53546
      13 -> 16        -0.43543

 Excited State   6:      Singlet-A      9.0903 eV  136.39 nm  f=0.0100  <S**2>=0.000
      10 -> 16        -0.10346
      13 -> 15         0.11540
      13 -> 17         0.64641
      13 -> 18         0.17914

 Excited State   7:      Singlet-A      9.1179 eV  135.98 nm  f=0.0010  <S**2>=0.000
      13 -> 17        -0.16430
      13 -> 18         0.59630
      13 -> 19        -0.13730
      13 -> 22        -0.25933

 Excited State   8:      Singlet-A      9.4542 eV  131.14 nm  f=0.0593  <S**2>=0.000
      10 -> 14         0.62799
      11 -> 15        -0.11274
      11 -> 17         0.11706
      13 -> 20        -0.14966

 Excited State   9:      Singlet-A      9.8509 eV  125.86 nm  f=0.0001  <S**2>=0.000
      13 -> 18         0.20167
      13 -> 19         0.62894
      13 -> 21        -0.13040

 Excited State  10:      Singlet-A     10.0229 eV  123.70 nm  f=0.0473  <S**2>=0.000
       9 -> 15         0.15042
      10 -> 14         0.17774
      11 -> 15         0.17234
      11 -> 16         0.21626
      11 -> 17        -0.27528
      12 -> 15         0.31545
      12 -> 16        -0.13679
      12 -> 18         0.29304
      13 -> 14         0.10291
      13 -> 20        -0.13222

 Excited State  11:      Singlet-A     10.1754 eV  121.85 nm  f=0.1415  <S**2>=0.000
      10 -> 14        -0.10320
      11 -> 15        -0.42208
      11 -> 17         0.13860
      12 -> 15         0.48621
      12 -> 17        -0.12314

 Excited State  12:      Singlet-A     10.5329 eV  117.71 nm  f=0.0746  <S**2>=0.000
      10 -> 14         0.18368
      13 -> 19        -0.11318
      13 -> 20         0.61436
      13 -> 21        -0.16341
      13 -> 22         0.10777

 Excited State  13:      Singlet-A     10.5798 eV  117.19 nm  f=0.0563  <S**2>=0.000
      13 -> 18        -0.17426
      13 -> 19         0.18022
      13 -> 20         0.20896
      13 -> 21         0.49144
      13 -> 22        -0.34966

 Excited State  14:      Singlet-A     10.7718 eV  115.10 nm  f=0.2042  <S**2>=0.000
      11 -> 16         0.31827
      11 -> 19         0.12852
      12 -> 16         0.56530
      12 -> 17        -0.10581

 Excited State  15:      Singlet-A     10.8774 eV  113.98 nm  f=0.0286  <S**2>=0.000
      10 -> 15         0.38338
      13 -> 18         0.14956
      13 -> 21         0.33268
      13 -> 22         0.42441

 The electronic state is 1-A.
 Alpha  occ. eigenvalues --   -1.89350  -1.17009  -0.91018  -0.80975  -0.78016
 Alpha  occ. eigenvalues --   -0.69267  -0.66397  -0.56643  -0.54953  -0.46114
 Alpha  occ. eigenvalues --   -0.42569  -0.41513  -0.30116
 Alpha virt. eigenvalues --    0.12196   0.18341   0.21962   0.26910   0.28872
 Alpha virt. eigenvalues --    0.30736   0.31208   0.33264   0.36531   0.39981
 Alpha virt. eigenvalues --    0.43298

 Mulliken charges:
               1
     1  C   -0.079914
     2  C   -1.998762
     3  O    3.302639
     4  C   -2.029706
     5  C   -0.247466
     6  H    0.213690
     7  H    0.330705
     8  H    0.308037
     9  H    0.200777
 Sum of Mulliken charges =   0.00000

 Dipole moment (field-independent basis, Debye):
    X=              5.8094    Y=             -9.7800    Z=              0.3894  Tot=             11.3820
 N-N= 1.030784946860D+02 E-N=-1.679814191015D+02  KE=-1.543744895329D+01
 Orbital energies and kinetic energies (alpha):
                                 1                 2
   1         O                -1.893497         -1.327640
   2         O                -1.170090         -1.053927
   3         O                -0.910184         -0.880010
   4         O                -0.809753         -0.583292
   5         O                -0.780158         -0.678723
   6         O                -0.692668         -0.585661
   7         O                -0.663975         -0.533577

 Normal termination of Gaussian 09 at Tue Dec 15 17:09:44 2015.
