 Gaussian 09, Revision D.01,
 Gaussian 09:  ES64L-G09RevD.01 24-Apr-2013

 ------------------------------------------------------------
 #P AM1(Input,print) CIS(Singlets,NStates=15) pop(full) force
 ------------------------------------------------------------

 -----------------
 AM1-Reparam Input
 -----------------
 Symbolic Z-matrix:
 Charge =  0 Multiplicity = 1

                         Standard orientation:
 ---------------------------------------------------------------------
 Center     Atomic      Atomic             Coordinates (Angstroms)
 Number     Number       Type             X           Y           Z
 ---------------------------------------------------------------------
      1          6           0       -1.158379    0.268987    0.024399
      2          6           0       -0.594766   -0.916088    0.019218
      3          8           0        0.769663   -0.928633   -0.014536
      4          6           0        1.047387    0.466421   -0.002715
      5          6           0       -0.099143    1.174056   -0.022885
      6          1           0       -0.130116    2.278516    0.031869
      7          1           0        2.082167    0.677807    0.071047
      8          1           0       -1.035090   -1.957870   -0.020945
      9          1           0       -2.244857    0.470356   -0.073788
 ---------------------------------------------------------------------

 SCF Done:  E(RAM1) =  0.257873286691E-01 A.U. after   14 cycles

 Excitation energies and oscillator strengths:

 Excited State   1:      Singlet-A      4.4074 eV  281.31 nm  f=0.0912  <S**2>=0.000
      12 -> 15         0.16206
      13 -> 14         0.67982
 This state for optimization and/or second-order correction.
 Total Energy, E(CIS) =  0.187756674949
 Copying the excited state density for this state as the 1-particle RhoCI density.

 Excited State   2:      Singlet-A      5.1741 eV  239.62 nm  f=0.0050  <S**2>=0.000
      12 -> 14        -0.28558
      13 -> 15         0.43743
      13 -> 16         0.45295

 Excited State   3:      Singlet-A      5.2523 eV  236.06 nm  f=0.0030  <S**2>=0.000
      12 -> 14         0.30504
      13 -> 15        -0.36126
      13 -> 16         0.50536

 Excited State   4:      Singlet-A      5.9954 eV  206.80 nm  f=0.0033  <S**2>=0.000
      12 -> 16         0.13986
      12 -> 19         0.10386
      12 -> 22         0.18685
      13 -> 18         0.55353
      13 -> 21        -0.14768
      13 -> 23        -0.19915
      13 -> 24        -0.15248

 Excited State   5:      Singlet-A      6.1147 eV  202.76 nm  f=0.0016  <S**2>=0.000
      12 -> 18         0.20720
      12 -> 24        -0.11547
      13 -> 18        -0.12385
      13 -> 19         0.45286
      13 -> 22         0.40814

 Excited State   6:      Singlet-A      6.2092 eV  199.68 nm  f=0.0013  <S**2>=0.000
       7 -> 16        -0.20050
      12 -> 15         0.11735
      12 -> 16         0.61021
      12 -> 21         0.11110
      13 -> 18        -0.11633

 Excited State   7:      Singlet-A      6.3754 eV  194.47 nm  f=0.3671  <S**2>=0.000
       9 -> 16        -0.10147
      12 -> 14         0.52104
      13 -> 15         0.39128

 Excited State   8:      Singlet-A      6.4875 eV  191.11 nm  f=0.0119  <S**2>=0.000
      11 -> 14         0.10432
      12 -> 15         0.12470
      12 -> 19        -0.10747
      13 -> 17         0.59394
      13 -> 18         0.11581
      13 -> 22         0.12567
      13 -> 23         0.13540
      13 -> 24         0.10677

 Excited State   9:      Singlet-A      6.7389 eV  183.98 nm  f=0.1069  <S**2>=0.000
      12 -> 15         0.65258
      12 -> 16        -0.10799
      13 -> 14        -0.14622
      13 -> 17        -0.11765

 Excited State  10:      Singlet-A      7.0914 eV  174.84 nm  f=0.0006  <S**2>=0.000
      12 -> 17         0.29268
      12 -> 18         0.38909
      12 -> 19        -0.17998
      13 -> 19        -0.35425
      13 -> 22         0.20470

 Excited State  11:      Singlet-A      7.2232 eV  171.65 nm  f=0.0038  <S**2>=0.000
       9 -> 15         0.16264
      10 -> 14         0.28396
      11 -> 14         0.52879
      11 -> 15        -0.23254

 Excited State  12:      Singlet-A      7.4004 eV  167.54 nm  f=0.0019  <S**2>=0.000
       9 -> 14         0.51885
       9 -> 15         0.11189
      10 -> 14         0.18593
      10 -> 15         0.21737
      11 -> 15         0.21197
      12 -> 19        -0.12158
      12 -> 22        -0.10320
      13 -> 20        -0.12636
      13 -> 24         0.15103

 Excited State  13:      Singlet-A      7.4974 eV  165.37 nm  f=0.0022  <S**2>=0.000
      11 -> 14        -0.10885
      12 -> 17        -0.10120
      12 -> 18         0.34900
      12 -> 19         0.11560
      13 -> 16         0.10012
      13 -> 17         0.14190
      13 -> 18        -0.15685
      13 -> 20        -0.14849
      13 -> 21        -0.28663
      13 -> 22        -0.29863
      13 -> 24        -0.15874

 Excited State  14:      Singlet-A      7.5572 eV  164.06 nm  f=0.0013  <S**2>=0.000
       9 -> 14         0.21157
      10 -> 14        -0.10607
      11 -> 14         0.13983
      11 -> 15         0.12275
      12 -> 19         0.28741
      12 -> 21         0.10247
      12 -> 22         0.16983
      13 -> 18        -0.22095
      13 -> 19        -0.17407
      13 -> 20         0.24847
      13 -> 22         0.20946
      13 -> 24        -0.21845

 Excited State  15:      Singlet-A      7.6426 eV  162.23 nm  f=0.0020  <S**2>=0.000
       8 -> 14        -0.11431
      10 -> 14         0.35044
      10 -> 15         0.15444
      11 -> 14        -0.23291
      11 -> 15        -0.10027
      12 -> 17         0.24741
      12 -> 18        -0.10032
      12 -> 20         0.18937
      12 -> 22         0.11450
      12 -> 23         0.12320
      13 -> 17         0.19090
      13 -> 18        -0.13704
      13 -> 20         0.15107
      13 -> 21         0.10311
      13 -> 23        -0.14170
      13 -> 24        -0.11403

 The electronic state is 1-A.
 Alpha  occ. eigenvalues --   -1.55943  -1.25180  -1.09123  -0.81863  -0.80987
 Alpha  occ. eigenvalues --   -0.67994  -0.59458  -0.54940  -0.51692  -0.50536
 Alpha  occ. eigenvalues --   -0.49474  -0.40495  -0.34933
 Alpha virt. eigenvalues --    0.02816   0.06871   0.10268   0.13830   0.14067
 Alpha virt. eigenvalues --    0.14798   0.17630   0.18088   0.18653   0.20589
 Alpha virt. eigenvalues --    0.21807

 Mulliken charges:
               1
     1  C   -0.201812
     2  C   -0.091257
     3  O   -0.095346
     4  C   -0.115183
     5  C   -0.179120
     6  H    0.159243
     7  H    0.181251
     8  H    0.176646
     9  H    0.165579
 Sum of Mulliken charges =   0.00000

 Dipole moment (field-independent basis, Debye):
    X=             -0.4361    Y=              0.4264    Z=              0.0003  Tot=              0.6099
 N-N= 1.034398551603D+02 E-N=-1.710455006423D+02  KE=-1.653025933852D+01
 Orbital energies and kinetic energies (alpha):
                                 1                 2
   1         O                -1.559427         -1.319693
   2         O                -1.251804         -1.053222
   3         O                -1.091235         -0.954323
   4         O                -0.818629         -0.723891
   5         O                -0.809872         -0.694379
   6         O                -0.679939         -0.602178
   7         O                -0.594581         -0.484847

 Normal termination of Gaussian 09 at Tue Dec 15 16:21:25 2015.
