 Gaussian 09, Revision D.01,
 Gaussian 09:  ES64L-G09RevD.01 24-Apr-2013

 ------------------------------------------------------------
 #P AM1(Input,print) CIS(Singlets,NStates=15) pop(full) force
 ------------------------------------------------------------

 -----------------
 AM1-Reparam Input
 -----------------
 Symbolic Z-matrix:
 Charge =  0 Multiplicity = 1

                         Standard orientation:
 ---------------------------------------------------------------------
 Center     Atomic      Atomic             Coordinates (Angstroms)
 Number     Number       Type             X           Y           Z
 ---------------------------------------------------------------------
      1          6           0       -0.975310    0.715668   -0.009273
      2          6           0       -0.928919   -0.602198   -0.018064
      3          8           0        0.318882   -1.148367    0.018147
      4          6           0        1.166129   -0.012823   -0.013168
      5          6           0        0.405930    1.103118    0.015270
      6          1           0        0.802026    2.164230   -0.016746
      7          1           0        2.195371   -0.198491   -0.022500
      8          1           0       -1.727105   -1.367089   -0.003242
      9          1           0       -1.828327    1.365698    0.048715
 ---------------------------------------------------------------------

 SCF Done:  E(RAM1) =  0.187504454805E-01 A.U. after   14 cycles

 Excitation energies and oscillator strengths:

 Excited State   1:      Singlet-A      4.5008 eV  275.47 nm  f=0.0823  <S**2>=0.000
      12 -> 15         0.18561
      13 -> 14         0.67429
 This state for optimization and/or second-order correction.
 Total Energy, E(CIS) =  0.184152152961
 Copying the excited state density for this state as the 1-particle RhoCI density.

 Excited State   2:      Singlet-A      5.2075 eV  238.09 nm  f=0.0036  <S**2>=0.000
      12 -> 14        -0.36309
      13 -> 15         0.47413
      13 -> 16        -0.36094

 Excited State   3:      Singlet-A      5.2233 eV  237.37 nm  f=0.0012  <S**2>=0.000
      12 -> 14        -0.24337
      13 -> 15         0.28081
      13 -> 16         0.58257

 Excited State   4:      Singlet-A      5.9794 eV  207.35 nm  f=0.0030  <S**2>=0.000
       7 -> 16        -0.14176
      12 -> 16         0.52238
      12 -> 22         0.19637
      13 -> 18        -0.32919
      13 -> 23        -0.11655

 Excited State   5:      Singlet-A      6.0786 eV  203.97 nm  f=0.0004  <S**2>=0.000
       7 -> 16        -0.13897
      12 -> 16         0.37564
      12 -> 19        -0.13470
      12 -> 20         0.11318
      12 -> 21         0.12882
      13 -> 17         0.10370
      13 -> 18         0.38265
      13 -> 19        -0.20093
      13 -> 21         0.11424
      13 -> 23         0.20511
      13 -> 24         0.13666

 Excited State   6:      Singlet-A      6.1510 eV  201.57 nm  f=0.0023  <S**2>=0.000
      12 -> 18        -0.23736
      12 -> 23        -0.11302
      12 -> 24        -0.11336
      13 -> 17        -0.11901
      13 -> 18         0.23872
      13 -> 19         0.34080
      13 -> 20        -0.20094
      13 -> 21        -0.20606
      13 -> 22         0.32123

 Excited State   7:      Singlet-A      6.3191 eV  196.21 nm  f=0.3768  <S**2>=0.000
      12 -> 14         0.50542
      12 -> 15         0.11667
      13 -> 15         0.41392

 Excited State   8:      Singlet-A      6.5037 eV  190.64 nm  f=0.0480  <S**2>=0.000
      11 -> 14        -0.10145
      12 -> 15         0.45199
      13 -> 14        -0.11672
      13 -> 17        -0.41867
      13 -> 18         0.16143
      13 -> 21         0.10225
      13 -> 23        -0.10119

 Excited State   9:      Singlet-A      6.5537 eV  189.18 nm  f=0.0762  <S**2>=0.000
      12 -> 15         0.48127
      13 -> 14        -0.12677
      13 -> 17         0.39052
      13 -> 18        -0.15792

 Excited State  10:      Singlet-A      7.0280 eV  176.42 nm  f=0.0008  <S**2>=0.000
      12 -> 17        -0.33217
      12 -> 18         0.45727
      12 -> 21         0.11376
      13 -> 18         0.13152
      13 -> 19         0.29704

 Excited State  11:      Singlet-A      7.2749 eV  170.43 nm  f=0.0016  <S**2>=0.000
       9 -> 14        -0.24698
       9 -> 15         0.14263
      10 -> 15         0.10837
      11 -> 14         0.52531
      11 -> 15        -0.28545
      13 -> 17        -0.10720

 Excited State  12:      Singlet-A      7.3201 eV  169.37 nm  f=0.0019  <S**2>=0.000
       9 -> 14         0.23662
      10 -> 14         0.49825
      10 -> 15         0.22911
      11 -> 14         0.15085
      11 -> 15         0.20574
      12 -> 17        -0.13531

 Excited State  13:      Singlet-A      7.4947 eV  165.43 nm  f=0.0001  <S**2>=0.000
       8 -> 14        -0.10765
       9 -> 15        -0.10165
      10 -> 14         0.21318
      10 -> 15         0.13773
      11 -> 14        -0.12046
      11 -> 15        -0.18714
      12 -> 17         0.34386
      12 -> 18         0.17616
      12 -> 19        -0.16427
      12 -> 20         0.16711
      12 -> 21        -0.12779
      12 -> 23         0.18992
      13 -> 19         0.21431
      13 -> 21         0.11930

 Excited State  14:      Singlet-A      7.5604 eV  163.99 nm  f=0.0019  <S**2>=0.000
       9 -> 14         0.22689
      11 -> 14         0.17894
      11 -> 15         0.13109
      12 -> 17         0.16771
      12 -> 18         0.14207
      12 -> 19         0.21309
      12 -> 22         0.17647
      13 -> 17         0.10907
      13 -> 18         0.18691
      13 -> 19        -0.10846
      13 -> 20         0.27993
      13 -> 21        -0.11226
      13 -> 22         0.25424
      13 -> 24        -0.20481

 Excited State  15:      Singlet-A      7.6137 eV  162.84 nm  f=0.0001  <S**2>=0.000
       9 -> 14         0.10748
      10 -> 14        -0.18164
      11 -> 14         0.17624
      12 -> 18         0.19211
      12 -> 19        -0.24161
      12 -> 20        -0.12182
      12 -> 22        -0.17046
      12 -> 24        -0.12274
      13 -> 17        -0.22439
      13 -> 18        -0.17483
      13 -> 22         0.31607
      13 -> 24         0.18330

 The electronic state is 1-A.
 Alpha  occ. eigenvalues --   -1.55316  -1.24000  -1.09802  -0.81636  -0.81198
 Alpha  occ. eigenvalues --   -0.68152  -0.59359  -0.55773  -0.51280  -0.50977
 Alpha  occ. eigenvalues --   -0.49002  -0.39873  -0.35139
 Alpha virt. eigenvalues --    0.03021   0.06598   0.09990   0.13876   0.14158
 Alpha virt. eigenvalues --    0.15286   0.17326   0.18347   0.18893   0.20576
 Alpha virt. eigenvalues --    0.21910

 Mulliken charges:
               1
     1  C   -0.203727
     2  C   -0.080467
     3  O   -0.099290
     4  C   -0.104989
     5  C   -0.196131
     6  H    0.160257
     7  H    0.183282
     8  H    0.175841
     9  H    0.165223
 Sum of Mulliken charges =   0.00000

 Dipole moment (field-independent basis, Debye):
    X=             -0.1686    Y=              0.6008    Z=              0.0170  Tot=              0.6242
 N-N= 1.032765067066D+02 E-N=-1.707631762042D+02  KE=-1.652222235913D+01
 Orbital energies and kinetic energies (alpha):
                                 1                 2
   1         O                -1.553162         -1.311163
   2         O                -1.240000         -1.047460
   3         O                -1.098022         -0.960161
   4         O                -0.816364         -0.720916
   5         O                -0.811983         -0.702018
   6         O                -0.681516         -0.602454
   7         O                -0.593586         -0.483186

 Normal termination of Gaussian 09 at Fri Dec 11 13:18:13 2015.
