 Gaussian 09, Revision D.01,
 Gaussian 09:  ES64L-G09RevD.01 24-Apr-2013

 ------------------------------------------------------------
 #P AM1(Input,print) CIS(Singlets,NStates=15) pop(full) force
 ------------------------------------------------------------

 -----------------
 AM1-Reparam Input
 -----------------
 Symbolic Z-matrix:
 Charge =  0 Multiplicity = 1

                         Standard orientation:
 ---------------------------------------------------------------------
 Center     Atomic      Atomic             Coordinates (Angstroms)
 Number     Number       Type             X           Y           Z
 ---------------------------------------------------------------------
      1          6           0       -0.600845    1.011082   -0.011114
      2          6           0       -1.134477   -0.269980   -0.037861
      3          8           0       -0.093479   -1.155839    0.034801
      4          6           0        1.096304   -0.450574   -0.034439
      5          6           0        0.759577    0.910126    0.013513
      6          1           0        1.468851    1.740545    0.047492
      7          1           0        1.958711   -0.939815   -0.005863
      8          1           0       -2.157857   -0.646201    0.045303
      9          1           0       -1.245235    1.888258    0.054067
 ---------------------------------------------------------------------

 SCF Done:  E(RAM1) =   2.01839424534     A.U. after   13 cycles

 Excitation energies and oscillator strengths:

 Excited State   1:      Singlet-A      5.6930 eV  217.78 nm  f=0.3157  <S**2>=0.000
      13 -> 14         0.68983
 This state for optimization and/or second-order correction.
 Total Energy, E(CIS) =   2.22760770264
 Copying the excited state density for this state as the 1-particle RhoCI density.

 Excited State   2:      Singlet-A      7.0795 eV  175.13 nm  f=0.0185  <S**2>=0.000
      13 -> 15         0.64723
      13 -> 16         0.16186
      13 -> 17         0.17393

 Excited State   3:      Singlet-A      7.1860 eV  172.54 nm  f=0.0007  <S**2>=0.000
      12 -> 14         0.68505

 Excited State   4:      Singlet-A      7.4847 eV  165.65 nm  f=0.0026  <S**2>=0.000
      11 -> 14         0.11653
      13 -> 15        -0.12903
      13 -> 16         0.60806
      13 -> 17        -0.13276
      13 -> 18        -0.20599
      13 -> 21        -0.11799

 Excited State   5:      Singlet-A      7.5342 eV  164.56 nm  f=0.0036  <S**2>=0.000
      10 -> 14        -0.26785
      11 -> 14         0.63241
      13 -> 16        -0.12842

 Excited State   6:      Singlet-A      8.4260 eV  147.15 nm  f=0.0002  <S**2>=0.000
      10 -> 15        -0.10430
      13 -> 16         0.13960
      13 -> 18         0.31570
      13 -> 19         0.46499
      13 -> 21         0.35410

 Excited State   7:      Singlet-A      8.7125 eV  142.31 nm  f=0.1137  <S**2>=0.000
      10 -> 14         0.63900
      11 -> 14         0.26410

 Excited State   8:      Singlet-A      9.1207 eV  135.94 nm  f=0.0121  <S**2>=0.000
      10 -> 15        -0.12177
      10 -> 16         0.14327
      13 -> 15        -0.14464
      13 -> 17         0.61884
      13 -> 19        -0.14848

 Excited State   9:      Singlet-A      9.5320 eV  130.07 nm  f=0.1027  <S**2>=0.000
       9 -> 16         0.13247
      10 -> 15        -0.19147
      11 -> 15         0.42809
      11 -> 16         0.19184
      11 -> 17         0.20351
      12 -> 16         0.10708
      12 -> 18        -0.17473
      12 -> 19        -0.21210
      13 -> 14         0.12342

 Excited State  10:      Singlet-A      9.6599 eV  128.35 nm  f=0.0004  <S**2>=0.000
      10 -> 15         0.20408
      10 -> 16         0.18180
      13 -> 18        -0.38049
      13 -> 19         0.44797
      13 -> 21        -0.11102

 Excited State  11:      Singlet-A      9.9473 eV  124.64 nm  f=0.0001  <S**2>=0.000
      13 -> 18        -0.37435
      13 -> 19        -0.17310
      13 -> 21         0.56425

 Excited State  12:      Singlet-A     10.0970 eV  122.79 nm  f=0.0122  <S**2>=0.000
      10 -> 16         0.11132
      11 -> 15         0.22341
      11 -> 16        -0.26790
      11 -> 17         0.11430
      11 -> 18         0.13191
      12 -> 15         0.50436
      12 -> 16         0.12511
      12 -> 17         0.18701

 Excited State  13:      Singlet-A     10.2173 eV  121.35 nm  f=0.0475  <S**2>=0.000
      10 -> 15         0.29103
      10 -> 16         0.14154
      11 -> 15         0.24660
      12 -> 16        -0.20268
      13 -> 16         0.12468
      13 -> 20         0.45130

 Excited State  14:      Singlet-A     10.2760 eV  120.65 nm  f=0.0512  <S**2>=0.000
      10 -> 15        -0.31330
      11 -> 15        -0.19277
      12 -> 16         0.11146
      13 -> 16        -0.12101
      13 -> 18        -0.14600
      13 -> 20         0.49682
      13 -> 21        -0.11381

 Excited State  15:      Singlet-A     10.3351 eV  119.96 nm  f=0.1313  <S**2>=0.000
      10 -> 15         0.28769
      10 -> 16         0.17401
      11 -> 15        -0.10498
      12 -> 16         0.47916
      12 -> 17        -0.10357
      12 -> 18        -0.23719
      12 -> 21        -0.11056

 The electronic state is 1-A.
 Alpha  occ. eigenvalues --   -1.93166  -1.20428  -0.95317  -0.81405  -0.79961
 Alpha  occ. eigenvalues --   -0.68842  -0.64337  -0.56014  -0.54382  -0.43914
 Alpha  occ. eigenvalues --   -0.43254  -0.42819  -0.31469
 Alpha virt. eigenvalues --    0.10957   0.18970   0.21001   0.25349   0.27517
 Alpha virt. eigenvalues --    0.28178   0.29834   0.29977   0.35066   0.43659
 Alpha virt. eigenvalues --    0.48692

 Mulliken charges:
               1
     1  C   -0.200999
     2  C   -2.040270
     3  O    3.201565
     4  C   -2.032279
     5  C   -0.186292
     6  H    0.260723
     7  H    0.358870
     8  H    0.376666
     9  H    0.262016
 Sum of Mulliken charges =   0.00000

 Dipole moment (field-independent basis, Debye):
    X=             -1.2589    Y=             -9.5166    Z=              1.3292  Tot=              9.6911
 N-N= 1.041567485248D+02 E-N=-1.692797160056D+02  KE=-1.549084798833D+01
 Orbital energies and kinetic energies (alpha):
                                 1                 2
   1         O                -1.931661         -1.374387
   2         O                -1.204284         -1.068801
   3         O                -0.953167         -0.869054
   4         O                -0.814047         -0.601491
   5         O                -0.799608         -0.683392
   6         O                -0.688419         -0.581990
   7         O                -0.643370         -0.520722

 Normal termination of Gaussian 09 at Tue Dec 15 17:07:17 2015.
