 Gaussian 09, Revision D.01,
 Gaussian 09:  ES64L-G09RevD.01 24-Apr-2013

 ------------------------------------------------------------
 #P AM1(Input,print) CIS(Singlets,NStates=15) pop(full) force
 ------------------------------------------------------------

 -----------------
 AM1-Reparam Input
 -----------------
 Symbolic Z-matrix:
 Charge =  0 Multiplicity = 1

                         Standard orientation:
 ---------------------------------------------------------------------
 Center     Atomic      Atomic             Coordinates (Angstroms)
 Number     Number       Type             X           Y           Z
 ---------------------------------------------------------------------
      1          6           0       -0.244090    1.138976    0.015891
      2          6           0       -1.154905    0.138667   -0.008544
      3          8           0       -0.490985   -1.047759    0.008506
      4          6           0        0.834666   -0.734532   -0.013608
      5          6           0        1.090518    0.567164   -0.001785
      6          1           0        1.981054    1.088215   -0.020108
      7          1           0        1.450457   -1.651998    0.033422
      8          1           0       -2.169599    0.093377   -0.031228
      9          1           0       -0.491172    2.190821   -0.001858
 ---------------------------------------------------------------------

 SCF Done:  E(RAM1) =   2.07601243529     A.U. after   14 cycles

 Excitation energies and oscillator strengths:

 Excited State   1:      Singlet-A      5.2534 eV  236.01 nm  f=0.3500  <S**2>=0.000
      13 -> 14         0.69600
 This state for optimization and/or second-order correction.
 Total Energy, E(CIS) =   2.26907289067
 Copying the excited state density for this state as the 1-particle RhoCI density.

 Excited State   2:      Singlet-A      6.5331 eV  189.78 nm  f=0.0029  <S**2>=0.000
      13 -> 15         0.64395
      13 -> 17         0.21852
      13 -> 18        -0.14081

 Excited State   3:      Singlet-A      6.6070 eV  187.65 nm  f=0.0006  <S**2>=0.000
      12 -> 14         0.69567

 Excited State   4:      Singlet-A      6.8691 eV  180.50 nm  f=0.0077  <S**2>=0.000
      13 -> 16         0.64212
      13 -> 18         0.24365

 Excited State   5:      Singlet-A      7.7251 eV  160.49 nm  f=0.0057  <S**2>=0.000
      10 -> 14        -0.10123
      13 -> 15        -0.18652
      13 -> 16         0.11974
      13 -> 17         0.39046
      13 -> 18        -0.28263
      13 -> 19         0.40278
      13 -> 20         0.12771
      13 -> 21        -0.10413

 Excited State   6:      Singlet-A      7.8834 eV  157.27 nm  f=0.0051  <S**2>=0.000
      10 -> 14         0.60661
      11 -> 14        -0.33131

 Excited State   7:      Singlet-A      8.5876 eV  144.38 nm  f=0.0214  <S**2>=0.000
      13 -> 15        -0.13275
      13 -> 17         0.50354
      13 -> 19        -0.42465
      13 -> 20        -0.10548

 Excited State   8:      Singlet-A      8.7945 eV  140.98 nm  f=0.1148  <S**2>=0.000
      10 -> 14         0.32796
      11 -> 14         0.60049

 Excited State   9:      Singlet-A      8.9543 eV  138.46 nm  f=0.0008  <S**2>=0.000
      11 -> 16         0.11844
      13 -> 16        -0.18620
      13 -> 17         0.14678
      13 -> 18         0.52918
      13 -> 19         0.35914

 Excited State  10:      Singlet-A      9.3935 eV  131.99 nm  f=0.0537  <S**2>=0.000
       9 -> 15         0.11382
      10 -> 16        -0.14882
      10 -> 17        -0.10192
      12 -> 15         0.42756
      12 -> 16        -0.16492
      12 -> 17         0.26256
      12 -> 18        -0.23979
      12 -> 19         0.20414

 Excited State  11:      Singlet-A      9.6412 eV  128.60 nm  f=0.0085  <S**2>=0.000
      13 -> 18         0.16643
      13 -> 19        -0.12686
      13 -> 20         0.62452
      13 -> 21        -0.24010

 Excited State  12:      Singlet-A      9.9241 eV  124.93 nm  f=0.1101  <S**2>=0.000
      10 -> 16        -0.19134
      12 -> 16         0.56789
      12 -> 17         0.17735
      12 -> 18         0.18195
      13 -> 21        -0.15767

 Excited State  13:      Singlet-A      9.9309 eV  124.85 nm  f=0.0705  <S**2>=0.000
      12 -> 16         0.13345
      13 -> 20         0.24101
      13 -> 21         0.62205

 Excited State  14:      Singlet-A     10.0146 eV  123.80 nm  f=0.1095  <S**2>=0.000
       8 -> 15        -0.14008
      10 -> 15         0.13355
      10 -> 16         0.10442
      11 -> 15        -0.14499
      12 -> 15         0.43723
      12 -> 17        -0.13915
      12 -> 18         0.15242
      12 -> 19        -0.32260

 Excited State  15:      Singlet-A     10.3548 eV  119.74 nm  f=0.0025  <S**2>=0.000
       7 -> 15        -0.12218
      10 -> 15         0.25234
      11 -> 15         0.54623
      11 -> 16         0.20957
      11 -> 17         0.11722
      13 -> 15        -0.12722

 The electronic state is 1-A.
 Alpha  occ. eigenvalues --   -1.94683  -1.20345  -0.96646  -0.82920  -0.79169
 Alpha  occ. eigenvalues --   -0.69169  -0.65363  -0.54897  -0.53951  -0.44658
 Alpha  occ. eigenvalues --   -0.44404  -0.40582  -0.28828
 Alpha virt. eigenvalues --    0.10933   0.18139   0.20536   0.26011   0.27460
 Alpha virt. eigenvalues --    0.29215   0.30899   0.31657   0.35347   0.44411
 Alpha virt. eigenvalues --    0.48517

 Mulliken charges:
               1
     1  C   -0.238234
     2  C   -1.990590
     3  O    3.176939
     4  C   -1.979825
     5  C   -0.190026
     6  H    0.249734
     7  H    0.357463
     8  H    0.358132
     9  H    0.256407
 Sum of Mulliken charges =   0.00000

 Dipole moment (field-independent basis, Debye):
    X=             -4.0859    Y=             -9.7273    Z=              0.2707  Tot=             10.5541
 N-N= 1.046783889591D+02 E-N=-1.701592324688D+02  KE=-1.553318869670D+01
 Orbital energies and kinetic energies (alpha):
                                 1                 2
   1         O                -1.946827         -1.392288
   2         O                -1.203454         -1.071548
   3         O                -0.966463         -0.876452
   4         O                -0.829195         -0.610436
   5         O                -0.791690         -0.678775
   6         O                -0.691694         -0.569733
   7         O                -0.653635         -0.522958

 Normal termination of Gaussian 09 at Tue Dec 15 17:07:22 2015.
