 Gaussian 09, Revision D.01,
 Gaussian 09:  ES64L-G09RevD.01 24-Apr-2013

 ------------------------------------------------------------
 #P AM1(Input,print) CIS(Singlets,NStates=15) pop(full) force
 ------------------------------------------------------------

 -----------------
 AM1-Reparam Input
 -----------------
 Symbolic Z-matrix:
 Charge =  0 Multiplicity = 1

                         Standard orientation:
 ---------------------------------------------------------------------
 Center     Atomic      Atomic             Coordinates (Angstroms)
 Number     Number       Type             X           Y           Z
 ---------------------------------------------------------------------
      1          6           0       -0.885270    0.787392    0.015701
      2          6           0       -1.065905   -0.472591   -0.015346
      3          8           0        0.213108   -1.146504    0.022311
      4          6           0        1.169657   -0.156108   -0.021829
      5          6           0        0.536669    1.068398   -0.009674
      6          1           0        1.077165    1.969415    0.057703
      7          1           0        2.133243   -0.528447   -0.004625
      8          1           0       -1.874166   -1.175156   -0.029939
      9          1           0       -1.572016    1.543671   -0.014736
 ---------------------------------------------------------------------

 SCF Done:  E(RAM1) =  -6.08384586567     A.U. after   14 cycles

 Excitation energies and oscillator strengths:

 Excited State   1:      Singlet-A      5.9184 eV  209.49 nm  f=0.0018  <S**2>=0.000
      13 -> 15         0.20557
      13 -> 16         0.66642
 This state for optimization and/or second-order correction.
 Total Energy, E(CIS) =  -5.86634929524
 Copying the excited state density for this state as the 1-particle RhoCI density.

 Excited State   2:      Singlet-A      6.7786 eV  182.90 nm  f=0.2025  <S**2>=0.000
      10 -> 15         0.11576
      13 -> 14         0.66039
      13 -> 15         0.13306
      13 -> 16        -0.12965

 Excited State   3:      Singlet-A      6.8951 eV  179.82 nm  f=0.2350  <S**2>=0.000
      10 -> 14        -0.11721
      13 -> 14        -0.16653
      13 -> 15         0.63862
      13 -> 16        -0.17620

 Excited State   4:      Singlet-A      8.3074 eV  149.25 nm  f=0.0012  <S**2>=0.000
      12 -> 14        -0.21326
      12 -> 15         0.53703
      12 -> 16        -0.10031
      13 -> 17         0.37107

 Excited State   5:      Singlet-A      8.3957 eV  147.68 nm  f=0.0005  <S**2>=0.000
      12 -> 14         0.14464
      12 -> 15        -0.34565
      13 -> 17         0.57618

 Excited State   6:      Singlet-A      9.1295 eV  135.81 nm  f=0.0012  <S**2>=0.000
      10 -> 15         0.13298
      11 -> 14        -0.32119
      11 -> 15         0.42523
      12 -> 14         0.38505
      12 -> 15         0.15779

 Excited State   7:      Singlet-A      9.5138 eV  130.32 nm  f=0.0070  <S**2>=0.000
      10 -> 15        -0.11327
      11 -> 14         0.17547
      11 -> 15        -0.35464
      12 -> 14         0.51794
      12 -> 15         0.20931

 Excited State   8:      Singlet-A      9.8003 eV  126.51 nm  f=0.0071  <S**2>=0.000
      10 -> 14         0.16601
      10 -> 15         0.13215
      10 -> 16         0.54129
      11 -> 16        -0.18711
      12 -> 16        -0.21107
      13 -> 19        -0.24064

 Excited State   9:      Singlet-A      9.9107 eV  125.10 nm  f=0.0457  <S**2>=0.000
      10 -> 14        -0.11459
      10 -> 15         0.21771
      10 -> 16         0.13557
      11 -> 16        -0.12861
      12 -> 16         0.60232

 Excited State  10:      Singlet-A     10.1081 eV  122.66 nm  f=0.0042  <S**2>=0.000
      13 -> 18         0.59497
      13 -> 19         0.22996
      13 -> 20         0.25372

 Excited State  11:      Singlet-A     10.2363 eV  121.12 nm  f=0.1797  <S**2>=0.000
       8 -> 16         0.12219
      10 -> 14         0.52837
      10 -> 15         0.16927
      11 -> 14        -0.21453
      11 -> 15        -0.10104
      13 -> 15         0.10044
      13 -> 18        -0.13224
      13 -> 19         0.17381

 Excited State  12:      Singlet-A     10.3549 eV  119.73 nm  f=0.0259  <S**2>=0.000
      10 -> 14        -0.12997
      10 -> 16         0.25981
      11 -> 14         0.11483
      11 -> 16        -0.14677
      13 -> 18        -0.17905
      13 -> 19         0.49185
      13 -> 21        -0.26741

 Excited State  13:      Singlet-A     10.5909 eV  117.07 nm  f=0.0383  <S**2>=0.000
       9 -> 15        -0.10325
      10 -> 15         0.34742
      11 -> 14         0.46343
      11 -> 15         0.22418
      11 -> 16         0.19941
      12 -> 17        -0.11465

 Excited State  14:      Singlet-A     10.7151 eV  115.71 nm  f=0.1069  <S**2>=0.000
      10 -> 14         0.30745
      10 -> 15        -0.28567
      11 -> 14         0.25501
      11 -> 15         0.26277
      11 -> 16        -0.30541
      12 -> 16         0.11024
      12 -> 17         0.15442

 Excited State  15:      Singlet-A     10.9344 eV  113.39 nm  f=0.0150  <S**2>=0.000
      10 -> 15         0.10716
      11 -> 16        -0.18451
      13 -> 19         0.24392
      13 -> 21         0.55194
      13 -> 23        -0.19925
      13 -> 24         0.10377

 The electronic state is 1-A.
 Alpha  occ. eigenvalues --   -4.09668  -1.31155  -0.97547  -0.95786  -0.90304
 Alpha  occ. eigenvalues --   -0.87035  -0.78396  -0.62864  -0.62794  -0.52571
 Alpha  occ. eigenvalues --   -0.51843  -0.49096  -0.36691
 Alpha virt. eigenvalues --    0.09344   0.10456   0.11331   0.19298   0.24789
 Alpha virt. eigenvalues --    0.27085   0.29068   0.30773   0.33997   0.36240
 Alpha virt. eigenvalues --    0.37730

 Mulliken charges:
               1
     1  C   -0.125122
     2  C   -1.267041
     3  O    2.405776
     4  C   -1.306931
     5  C   -0.250364
     6  H    0.122985
     7  H    0.157007
     8  H    0.152841
     9  H    0.110849
 Sum of Mulliken charges =   0.00000

 Dipole moment (field-independent basis, Debye):
    X=              1.4040    Y=             -9.1911    Z=              0.4559  Tot=              9.3089
 N-N= 1.047588917218D+02 E-N=-1.716086000361D+02  KE=-2.396191490502D+01
 Orbital energies and kinetic energies (alpha):
                                 1                 2
   1         O                -4.096677         -3.445631
   2         O                -1.311547         -1.232862
   3         O                -0.975471         -0.978521
   4         O                -0.957858         -0.951643
   5         O                -0.903037         -0.808729
   6         O                -0.870347         -0.810755
   7         O                -0.783959         -0.763045

 Normal termination of Gaussian 09 at Fri Dec 11 13:41:17 2015.
