 Gaussian 09, Revision D.01,
 Gaussian 09:  ES64L-G09RevD.01 24-Apr-2013

 ------------------------------------------------------------
 #P AM1(Input,print) CIS(Singlets,NStates=15) pop(full) force
 ------------------------------------------------------------

 -----------------
 AM1-Reparam Input
 -----------------
 Symbolic Z-matrix:
 Charge =  0 Multiplicity = 1

                         Standard orientation:
 ---------------------------------------------------------------------
 Center     Atomic      Atomic             Coordinates (Angstroms)
 Number     Number       Type             X           Y           Z
 ---------------------------------------------------------------------
      1          6           0        0.426935    1.086993    0.006452
      2          6           0        1.158484   -0.062068    0.034016
      3          8           0        0.323832   -1.092775   -0.013920
      4          6           0       -0.987586   -0.654582   -0.000887
      5          6           0       -0.950789    0.774502   -0.023468
      6          1           0       -1.781889    1.417671    0.030627
      7          1           0       -1.744242   -1.345937    0.070045
      8          1           0        2.197984   -0.256572   -0.078761
      9          1           0        0.855220    2.057965   -0.007227
 ---------------------------------------------------------------------

 SCF Done:  E(RAM1) =   2.79787444278     A.U. after   14 cycles

 Excitation energies and oscillator strengths:

 Excited State   1:      Singlet-A      5.4409 eV  227.87 nm  f=0.3348  <S**2>=0.000
      13 -> 14         0.69361
 This state for optimization and/or second-order correction.
 Total Energy, E(CIS) =   2.99782351079
 Copying the excited state density for this state as the 1-particle RhoCI density.

 Excited State   2:      Singlet-A      6.7205 eV  184.49 nm  f=0.0108  <S**2>=0.000
      12 -> 14        -0.10616
      13 -> 15         0.61771
      13 -> 16         0.18364
      13 -> 17         0.21879

 Excited State   3:      Singlet-A      6.8504 eV  180.99 nm  f=0.0004  <S**2>=0.000
       9 -> 14        -0.14533
      12 -> 14         0.67800

 Excited State   4:      Singlet-A      7.0887 eV  174.90 nm  f=0.0039  <S**2>=0.000
      13 -> 15        -0.15946
      13 -> 16         0.61142
      13 -> 18         0.25252
      13 -> 21        -0.11772

 Excited State   5:      Singlet-A      7.7437 eV  160.11 nm  f=0.0051  <S**2>=0.000
      10 -> 14         0.69108

 Excited State   6:      Singlet-A      8.0622 eV  153.78 nm  f=0.0003  <S**2>=0.000
      13 -> 16         0.14837
      13 -> 18        -0.27413
      13 -> 19        -0.42083
      13 -> 21         0.42902

 Excited State   7:      Singlet-A      8.3444 eV  148.58 nm  f=0.0131  <S**2>=0.000
      11 -> 15        -0.10353
      11 -> 16         0.12201
      13 -> 15        -0.19878
      13 -> 17         0.62593
      13 -> 18        -0.13328

 Excited State   8:      Singlet-A      8.4735 eV  146.32 nm  f=0.1167  <S**2>=0.000
      11 -> 14         0.68947

 Excited State   9:      Singlet-A      8.9667 eV  138.27 nm  f=0.0020  <S**2>=0.000
      11 -> 16         0.16165
      13 -> 16        -0.14935
      13 -> 17         0.14090
      13 -> 18         0.47556
      13 -> 19        -0.40976

 Excited State  10:      Singlet-A      9.3478 eV  132.64 nm  f=0.0010  <S**2>=0.000
      13 -> 18         0.28132
      13 -> 19         0.37208
      13 -> 20         0.11235
      13 -> 21         0.50175

 Excited State  11:      Singlet-A      9.4861 eV  130.70 nm  f=0.0448  <S**2>=0.000
       9 -> 15         0.15891
       9 -> 18        -0.12641
      10 -> 15         0.29967
      10 -> 16         0.14442
      10 -> 17         0.24429
      12 -> 15         0.27510
      12 -> 16         0.23846
      12 -> 17         0.17709
      12 -> 18         0.10549
      12 -> 19         0.21547
      12 -> 21        -0.10938

 Excited State  12:      Singlet-A      9.5738 eV  129.50 nm  f=0.0495  <S**2>=0.000
       8 -> 15         0.10379
      10 -> 16        -0.13984
      10 -> 17        -0.10145
      12 -> 15         0.56223
      12 -> 16        -0.15139
      12 -> 18        -0.19527
      12 -> 19        -0.12623

 Excited State  13:      Singlet-A      9.6808 eV  128.07 nm  f=0.0850  <S**2>=0.000
      13 -> 20         0.66451
      13 -> 21        -0.15137

 Excited State  14:      Singlet-A      9.7776 eV  126.80 nm  f=0.0029  <S**2>=0.000
       9 -> 14         0.65152
      12 -> 14         0.13838
      13 -> 20        -0.11239

 Excited State  15:      Singlet-A      9.9546 eV  124.55 nm  f=0.0004  <S**2>=0.000
       7 -> 15        -0.10633
       9 -> 14         0.12373
      11 -> 15         0.57759
      11 -> 16         0.20844
      11 -> 17         0.13197
      13 -> 15        -0.13645
      13 -> 16         0.12326

 The electronic state is 1-A.
 Alpha  occ. eigenvalues --   -1.72014  -1.11551  -0.92788  -0.79600  -0.75634
 Alpha  occ. eigenvalues --   -0.67226  -0.63760  -0.55336  -0.50018  -0.44452
 Alpha  occ. eigenvalues --   -0.43214  -0.41254  -0.30316
 Alpha virt. eigenvalues --    0.10436   0.17766   0.20260   0.23981   0.26406
 Alpha virt. eigenvalues --    0.27656   0.28952   0.29244   0.37791   0.46158
 Alpha virt. eigenvalues --    0.51212

 Mulliken charges:
               1
     1  C   -0.148452
     2  C   -1.974394
     3  O    3.228597
     4  C   -1.989063
     5  C   -0.099276
     6  H    0.182387
     7  H    0.300416
     8  H    0.313652
     9  H    0.186133
 Sum of Mulliken charges =   0.00000

 Dipole moment (field-independent basis, Debye):
    X=              3.2316    Y=             -9.0798    Z=             -0.4653  Tot=              9.6489
 N-N= 1.039038558939D+02 E-N=-1.688854098642D+02  KE=-1.478327862689D+01
 Orbital energies and kinetic energies (alpha):
                                 1                 2
   1         O                -1.720141         -1.215497
   2         O                -1.115515         -0.981057
   3         O                -0.927882         -0.838863
   4         O                -0.796004         -0.606352
   5         O                -0.756343         -0.682273
   6         O                -0.672260         -0.579105
   7         O                -0.637602         -0.517201

 Normal termination of Gaussian 09 at Tue Dec 15 17:05:53 2015.
