 Gaussian 09, Revision D.01,
 Gaussian 09:  ES64L-G09RevD.01 24-Apr-2013

 ------------------------------------------------------------
 #P AM1(Input,print) CIS(Singlets,NStates=15) pop(full) force
 ------------------------------------------------------------

 -----------------
 AM1-Reparam Input
 -----------------
 Symbolic Z-matrix:
 Charge =  0 Multiplicity = 1

                         Standard orientation:
 ---------------------------------------------------------------------
 Center     Atomic      Atomic             Coordinates (Angstroms)
 Number     Number       Type             X           Y           Z
 ---------------------------------------------------------------------
      1          6           0       -0.975310    0.715668   -0.009273
      2          6           0       -0.928919   -0.602198   -0.018064
      3          8           0        0.318882   -1.148367    0.018147
      4          6           0        1.166129   -0.012823   -0.013168
      5          6           0        0.405930    1.103118    0.015270
      6          1           0        0.802026    2.164230   -0.016746
      7          1           0        2.195371   -0.198491   -0.022500
      8          1           0       -1.727105   -1.367089   -0.003242
      9          1           0       -1.828327    1.365698    0.048715
 ---------------------------------------------------------------------

 SCF Done:  E(RAM1) =  -5.67267458300     A.U. after   14 cycles

 Excitation energies and oscillator strengths:

 Excited State   1:      Singlet-A      6.2483 eV  198.43 nm  f=0.3309  <S**2>=0.000
      13 -> 14         0.69504
 This state for optimization and/or second-order correction.
 Total Energy, E(CIS) =  -5.44305458603
 Copying the excited state density for this state as the 1-particle RhoCI density.

 Excited State   2:      Singlet-A      7.2591 eV  170.80 nm  f=0.0005  <S**2>=0.000
      10 -> 14        -0.24697
      11 -> 14         0.38225
      12 -> 14         0.53871

 Excited State   3:      Singlet-A      7.9030 eV  156.88 nm  f=0.0025  <S**2>=0.000
       8 -> 14         0.12986
       9 -> 14         0.10194
      10 -> 14         0.28552
      11 -> 14         0.56039
      12 -> 14        -0.27247

 Excited State   4:      Singlet-A      8.4755 eV  146.29 nm  f=0.0006  <S**2>=0.000
      10 -> 14        -0.36203
      12 -> 14        -0.23603
      13 -> 15         0.53147

 Excited State   5:      Singlet-A      8.5914 eV  144.31 nm  f=0.0007  <S**2>=0.000
      10 -> 14         0.45059
      12 -> 14         0.27609
      13 -> 15         0.44398

 Excited State   6:      Singlet-A      9.1715 eV  135.18 nm  f=0.0326  <S**2>=0.000
       9 -> 14        -0.17069
      13 -> 16         0.60004
      13 -> 17         0.31451

 Excited State   7:      Singlet-A      9.2567 eV  133.94 nm  f=0.0143  <S**2>=0.000
      13 -> 16        -0.30443
      13 -> 17         0.61852

 Excited State   8:      Singlet-A      9.9288 eV  124.87 nm  f=0.0193  <S**2>=0.000
       8 -> 14         0.44103
       9 -> 14         0.50579
      10 -> 14        -0.10516
      11 -> 14        -0.12555
      13 -> 16         0.11138

 Excited State   9:      Singlet-A     10.7089 eV  115.78 nm  f=0.0755  <S**2>=0.000
       8 -> 14         0.51269
       9 -> 14        -0.41236
      12 -> 17        -0.13989
      13 -> 16        -0.15430

 Excited State  10:      Singlet-A     10.8008 eV  114.79 nm  f=0.0015  <S**2>=0.000
       9 -> 15        -0.10125
      13 -> 18         0.67269
      13 -> 19        -0.12407

 Excited State  11:      Singlet-A     11.0439 eV  112.26 nm  f=0.0003  <S**2>=0.000
      13 -> 18         0.12994
      13 -> 19         0.67611

 Excited State  12:      Singlet-A     11.5087 eV  107.73 nm  f=0.0999  <S**2>=0.000
      10 -> 15        -0.27928
      11 -> 15         0.21064
      12 -> 15         0.55297
      12 -> 17        -0.11037
      12 -> 19        -0.10360

 Excited State  13:      Singlet-A     11.7649 eV  105.38 nm  f=0.3212  <S**2>=0.000
       9 -> 16         0.11966
      10 -> 15        -0.15842
      10 -> 17         0.11422
      11 -> 15         0.49568
      11 -> 17         0.10247
      12 -> 15        -0.34028
      12 -> 16         0.10860

 Excited State  14:      Singlet-A     11.8309 eV  104.80 nm  f=0.0331  <S**2>=0.000
      12 -> 16         0.67287

 Excited State  15:      Singlet-A     11.8952 eV  104.23 nm  f=0.0006  <S**2>=0.000
      13 -> 19        -0.10934
      13 -> 20         0.68166

 The electronic state is 1-A.
 Alpha  occ. eigenvalues --   -3.82208  -1.24220  -0.98135  -0.93213  -0.91304
 Alpha  occ. eigenvalues --   -0.84731  -0.80118  -0.66214  -0.64235  -0.60589
 Alpha  occ. eigenvalues --   -0.58562  -0.54598  -0.46552
 Alpha virt. eigenvalues --   -0.02048   0.08362   0.10232   0.11775   0.17604
 Alpha virt. eigenvalues --    0.19594   0.22623   0.29787   0.39546   0.50692
 Alpha virt. eigenvalues --    0.56413

 Mulliken charges:
               1
     1  C   -0.289272
     2  C   -1.477998
     3  O    2.976613
     4  C   -1.477890
     5  C   -0.239553
     6  H    0.142442
     7  H    0.107006
     8  H    0.128727
     9  H    0.129925
 Sum of Mulliken charges =   0.00000

 Dipole moment (field-independent basis, Debye):
    X=              2.7327    Y=            -11.3573    Z=              0.4331  Tot=             11.6895
 N-N= 1.046854552653D+02 E-N=-1.713514728409D+02  KE=-2.327118837315D+01
 Orbital energies and kinetic energies (alpha):
                                 1                 2
   1         O                -3.822076         -3.053730
   2         O                -1.242197         -1.107082
   3         O                -0.981348         -0.780415
   4         O                -0.932134         -0.848161
   5         O                -0.913045         -0.763847
   6         O                -0.847311         -0.813847
   7         O                -0.801183         -0.815051

 Normal termination of Gaussian 09 at Fri Dec 11 13:41:39 2015.
