 Gaussian 09, Revision D.01,
 Gaussian 09:  ES64L-G09RevD.01 24-Apr-2013

 ------------------------------------------------------------
 #P AM1(Input,print) CIS(Singlets,NStates=15) pop(full) force
 ------------------------------------------------------------

 -----------------
 AM1-Reparam Input
 -----------------
 Symbolic Z-matrix:
 Charge =  0 Multiplicity = 1

                         Standard orientation:
 ---------------------------------------------------------------------
 Center     Atomic      Atomic             Coordinates (Angstroms)
 Number     Number       Type             X           Y           Z
 ---------------------------------------------------------------------
      1          6           0       -1.130919    0.287243   -0.029313
      2          6           0       -0.637332   -0.884118    0.006210
      3          8           0        0.735099   -0.927321   -0.005206
      4          6           0        1.033423    0.377811   -0.009964
      5          6           0       -0.047682    1.198774    0.038390
      6          1           0        0.041450    2.270713   -0.035986
      7          1           0        2.146735    0.537052   -0.008008
      8          1           0       -1.150029   -1.903191    0.061767
      9          1           0       -2.223890    0.635741   -0.008065
 ---------------------------------------------------------------------

 SCF Done:  E(RAM1) =   1.85195512397     A.U. after   13 cycles

 Excitation energies and oscillator strengths:

 Excited State   1:      Singlet-A      5.4848 eV  226.05 nm  f=0.3371  <S**2>=0.000
      13 -> 14         0.69124
 This state for optimization and/or second-order correction.
 Total Energy, E(CIS) =   2.05351925168
 Copying the excited state density for this state as the 1-particle RhoCI density.

 Excited State   2:      Singlet-A      6.2458 eV  198.51 nm  f=0.0005  <S**2>=0.000
      13 -> 15         0.67579
      13 -> 17        -0.11975
      13 -> 19        -0.11930

 Excited State   3:      Singlet-A      6.4062 eV  193.54 nm  f=0.0044  <S**2>=0.000
      13 -> 16         0.67972

 Excited State   4:      Singlet-A      7.4522 eV  166.37 nm  f=0.0014  <S**2>=0.000
      12 -> 14         0.70082

 Excited State   5:      Singlet-A      8.0835 eV  153.38 nm  f=0.0007  <S**2>=0.000
      11 -> 14        -0.10458
      13 -> 15         0.10638
      13 -> 17         0.48800
      13 -> 18         0.41357
      13 -> 19         0.10552
      13 -> 21         0.21584

 Excited State   6:      Singlet-A      8.3542 eV  148.41 nm  f=0.0090  <S**2>=0.000
      11 -> 14         0.65962
      13 -> 18         0.21226

 Excited State   7:      Singlet-A      8.5860 eV  144.40 nm  f=0.0087  <S**2>=0.000
      10 -> 15        -0.10813
      11 -> 14         0.20598
      13 -> 16         0.10513
      13 -> 17         0.45641
      13 -> 18        -0.45383

 Excited State   8:      Singlet-A      9.1391 eV  135.66 nm  f=0.0204  <S**2>=0.000
       9 -> 16         0.10661
      10 -> 14         0.55208
      11 -> 16         0.10526
      12 -> 15         0.17808
      12 -> 16        -0.18990
      12 -> 17        -0.18879
      12 -> 18        -0.10426
      13 -> 19        -0.12673

 Excited State   9:      Singlet-A      9.1819 eV  135.03 nm  f=0.0019  <S**2>=0.000
      13 -> 18        -0.13629
      13 -> 19         0.65893

 Excited State  10:      Singlet-A      9.4644 eV  131.00 nm  f=0.0948  <S**2>=0.000
       9 -> 15         0.12158
       9 -> 16         0.13981
      10 -> 14        -0.32223
      11 -> 18         0.13981
      12 -> 15         0.47963
      12 -> 16        -0.13312
      12 -> 17        -0.12245
      12 -> 18        -0.13055

 Excited State  11:      Singlet-A      9.8259 eV  126.18 nm  f=0.1561  <S**2>=0.000
      11 -> 16         0.20639
      11 -> 18         0.15235
      12 -> 16         0.56291
      12 -> 17        -0.21117
      12 -> 18        -0.10010

 Excited State  12:      Singlet-A     10.1036 eV  122.71 nm  f=0.1486  <S**2>=0.000
      10 -> 14        -0.11191
      10 -> 15         0.14665
      11 -> 15         0.48881
      11 -> 16         0.21264
      11 -> 17        -0.14866
      12 -> 15        -0.22891
      12 -> 16        -0.21535
      12 -> 18        -0.13614

 Excited State  13:      Singlet-A     10.1138 eV  122.59 nm  f=0.0313  <S**2>=0.000
      10 -> 15         0.54728
      10 -> 16         0.27120
      12 -> 15         0.12834
      13 -> 15         0.11599

 Excited State  14:      Singlet-A     10.3352 eV  119.96 nm  f=0.0161  <S**2>=0.000
      13 -> 18        -0.21022
      13 -> 21         0.62418

 Excited State  15:      Singlet-A     10.3940 eV  119.28 nm  f=0.0663  <S**2>=0.000
       9 -> 15        -0.12126
      10 -> 15         0.24679
      10 -> 16        -0.37360
      11 -> 15        -0.18009
      11 -> 19         0.10518
      12 -> 15        -0.11568
      12 -> 17        -0.12628
      13 -> 20         0.37824

 The electronic state is 1-A.
 Alpha  occ. eigenvalues --   -1.99932  -1.29075  -0.99546  -0.89261  -0.83931
 Alpha  occ. eigenvalues --   -0.75883  -0.75213  -0.60784  -0.60374  -0.51345
 Alpha  occ. eigenvalues --   -0.50490  -0.47637  -0.35033
 Alpha virt. eigenvalues --    0.06419   0.10452   0.11088   0.19932   0.21939
 Alpha virt. eigenvalues --    0.23790   0.27228   0.29180   0.29696   0.38658
 Alpha virt. eigenvalues --    0.42196

 Mulliken charges:
               1
     1  C   -0.104703
     2  C   -1.861850
     3  O    3.144895
     4  C   -1.875135
     5  C   -0.166715
     6  H    0.146222
     7  H    0.275164
     8  H    0.292481
     9  H    0.149641
 Sum of Mulliken charges =   0.00000

 Dipole moment (field-independent basis, Debye):
    X=              6.8940    Y=             -9.2855    Z=              0.0011  Tot=             11.5649
 N-N= 1.060194194774D+02 E-N=-1.715023445257D+02  KE=-1.566250372602D+01
 Orbital energies and kinetic energies (alpha):
                                 1                 2
   1         O                -1.999316         -1.388151
   2         O                -1.290746         -1.075078
   3         O                -0.995461         -0.892366
   4         O                -0.892614         -0.575354
   5         O                -0.839309         -0.679811
   6         O                -0.758829         -0.593389
   7         O                -0.752130         -0.559354

 Normal termination of Gaussian 09 at Tue Dec 15 17:08:52 2015.
