 Gaussian 09, Revision D.01,
 Gaussian 09:  ES64L-G09RevD.01 24-Apr-2013

 ------------------------------------------------------------
 #P AM1(Input,print) CIS(Singlets,NStates=15) pop(full) force
 ------------------------------------------------------------

 -----------------
 AM1-Reparam Input
 -----------------
 Symbolic Z-matrix:
 Charge =  0 Multiplicity = 1

                         Standard orientation:
 ---------------------------------------------------------------------
 Center     Atomic      Atomic             Coordinates (Angstroms)
 Number     Number       Type             X           Y           Z
 ---------------------------------------------------------------------
      1          6           0       -0.684561    0.942479   -0.004022
      2          6           0       -1.128426   -0.256752    0.028697
      3          8           0       -0.062078   -1.183638   -0.026626
      4          6           0        1.134487   -0.371953    0.024121
      5          6           0        0.738963    0.954621   -0.025195
      6          1           0        1.430802    1.758637    0.020651
      7          1           0        2.086086   -0.898317    0.043721
      8          1           0       -2.030648   -0.814098   -0.001215
      9          1           0       -1.352394    1.812515    0.008243
 ---------------------------------------------------------------------

 SCF Done:  E(RAM1) =   1.89336087614     A.U. after   14 cycles

 Excitation energies and oscillator strengths:

 Excited State   1:      Singlet-A      5.5153 eV  224.80 nm  f=0.3093  <S**2>=0.000
      11 -> 17         0.10645
      13 -> 14         0.68838
 This state for optimization and/or second-order correction.
 Total Energy, E(CIS) =   2.09604385825
 Copying the excited state density for this state as the 1-particle RhoCI density.

 Excited State   2:      Singlet-A      6.0893 eV  203.61 nm  f=0.0003  <S**2>=0.000
      10 -> 15         0.12105
      13 -> 15         0.67984

 Excited State   3:      Singlet-A      6.5730 eV  188.63 nm  f=0.0019  <S**2>=0.000
      10 -> 16        -0.12057
      13 -> 16         0.65708
      13 -> 17        -0.17846

 Excited State   4:      Singlet-A      6.8074 eV  182.13 nm  f=0.0012  <S**2>=0.000
      12 -> 14         0.70021

 Excited State   5:      Singlet-A      7.6477 eV  162.12 nm  f=0.0080  <S**2>=0.000
      11 -> 14         0.66871
      13 -> 17        -0.19617

 Excited State   6:      Singlet-A      7.9116 eV  156.71 nm  f=0.0069  <S**2>=0.000
      10 -> 16        -0.10122
      11 -> 14         0.20966
      13 -> 16         0.14575
      13 -> 17         0.62999

 Excited State   7:      Singlet-A      8.1007 eV  153.05 nm  f=0.0028  <S**2>=0.000
      13 -> 17         0.11602
      13 -> 18         0.60024
      13 -> 19        -0.10384
      13 -> 20         0.11993
      13 -> 22        -0.28386

 Excited State   8:      Singlet-A      8.7224 eV  142.14 nm  f=0.0292  <S**2>=0.000
       8 -> 15        -0.15823
      10 -> 14        -0.30367
      11 -> 17         0.10095
      12 -> 15         0.54464
      12 -> 18        -0.14324

 Excited State   9:      Singlet-A      8.8081 eV  140.76 nm  f=0.0012  <S**2>=0.000
      13 -> 18        -0.20536
      13 -> 19        -0.43775
      13 -> 20         0.48142

 Excited State  10:      Singlet-A      9.0176 eV  137.49 nm  f=0.0410  <S**2>=0.000
       8 -> 16        -0.10202
      10 -> 14         0.49513
      11 -> 18         0.10132
      12 -> 15         0.22091
      12 -> 16        -0.22036
      12 -> 18        -0.11438
      13 -> 19         0.20753
      13 -> 20         0.21051

 Excited State  11:      Singlet-A      9.1452 eV  135.57 nm  f=0.0838  <S**2>=0.000
       9 -> 15         0.16425
      11 -> 15         0.32026
      11 -> 17        -0.23298
      12 -> 15         0.29960
      12 -> 16         0.20938
      12 -> 17        -0.24835
      12 -> 18         0.21838

 Excited State  12:      Singlet-A      9.6092 eV  129.03 nm  f=0.0069  <S**2>=0.000
      10 -> 15        -0.12653
      13 -> 18         0.27063
      13 -> 19        -0.16159
      13 -> 21        -0.18821
      13 -> 22         0.57410

 Excited State  13:      Singlet-A      9.6678 eV  128.24 nm  f=0.0761  <S**2>=0.000
      10 -> 14        -0.15789
      13 -> 19         0.29635
      13 -> 20         0.25858
      13 -> 21         0.47535
      13 -> 22         0.21531

 Excited State  14:      Singlet-A      9.8035 eV  126.47 nm  f=0.1561  <S**2>=0.000
      11 -> 15        -0.14741
      11 -> 16         0.39923
      11 -> 17        -0.14857
      12 -> 16        -0.29108
      12 -> 18         0.14697
      13 -> 19        -0.16511
      13 -> 20        -0.16506
      13 -> 21         0.26816

 Excited State  15:      Singlet-A      9.8420 eV  125.98 nm  f=0.1357  <S**2>=0.000
      10 -> 14         0.25171
      11 -> 16        -0.20915
      11 -> 17         0.13334
      12 -> 16         0.25105
      12 -> 17        -0.11003
      12 -> 18        -0.12739
      13 -> 19        -0.26309
      13 -> 20        -0.26619
      13 -> 21         0.33356

 The electronic state is 1-A.
 Alpha  occ. eigenvalues --   -1.92204  -1.21551  -0.97726  -0.81454  -0.79343
 Alpha  occ. eigenvalues --   -0.67328  -0.66596  -0.51259  -0.49231  -0.41554
 Alpha  occ. eigenvalues --   -0.39545  -0.36800  -0.26002
 Alpha virt. eigenvalues --    0.15126   0.18770   0.21227   0.27231   0.29844
 Alpha virt. eigenvalues --    0.31638   0.31783   0.33853   0.36114   0.41519
 Alpha virt. eigenvalues --    0.44959

 Mulliken charges:
               1
     1  C   -0.102864
     2  C   -1.839448
     3  O    3.113346
     4  C   -1.900455
     5  C   -0.130332
     6  H    0.154728
     7  H    0.290605
     8  H    0.265552
     9  H    0.148867
 Sum of Mulliken charges =   0.00000

 Dipole moment (field-independent basis, Debye):
    X=             -0.9987    Y=            -11.5185    Z=             -0.6789  Tot=             11.5816
 N-N= 1.035515543435D+02 E-N=-1.686958593600D+02  KE=-1.560866879703D+01
 Orbital energies and kinetic energies (alpha):
                                 1                 2
   1         O                -1.922041         -1.360266
   2         O                -1.215508         -1.086461
   3         O                -0.977259         -0.918710
   4         O                -0.814544         -0.674295
   5         O                -0.793428         -0.640206
   6         O                -0.673284         -0.569725
   7         O                -0.665960         -0.585761

 Normal termination of Gaussian 09 at Tue Dec 15 17:09:56 2015.
