 Gaussian 09, Revision D.01,
 Gaussian 09:  ES64L-G09RevD.01 24-Apr-2013

 ------------------------------------------------------------
 #P AM1(Input,print) CIS(Singlets,NStates=15) pop(full) force
 ------------------------------------------------------------

 -----------------
 AM1-Reparam Input
 -----------------
 Symbolic Z-matrix:
 Charge =  0 Multiplicity = 1

                         Standard orientation:
 ---------------------------------------------------------------------
 Center     Atomic      Atomic             Coordinates (Angstroms)
 Number     Number       Type             X           Y           Z
 ---------------------------------------------------------------------
      1          6           0        1.007904    0.735301   -0.010651
      2          6           0        0.916886   -0.666669   -0.015906
      3          8           0       -0.356045   -1.062698    0.009082
      4          6           0       -1.117933   -0.040962   -0.017816
      5          6           0       -0.431617    1.100602    0.019935
      6          1           0       -0.735326    2.120375   -0.047185
      7          1           0       -2.221389   -0.217233    0.035419
      8          1           0        1.722424   -1.466074    0.028507
      9          1           0        1.831221    1.294886    0.057225
 ---------------------------------------------------------------------

 SCF Done:  E(RAM1) =  0.441432672834E-01 A.U. after   14 cycles

 Excitation energies and oscillator strengths:

 Excited State   1:      Singlet-A      4.5746 eV  271.03 nm  f=0.0611  <S**2>=0.000
      12 -> 15         0.26526
      13 -> 14         0.64771
 This state for optimization and/or second-order correction.
 Total Energy, E(CIS) =  0.212258080485
 Copying the excited state density for this state as the 1-particle RhoCI density.

 Excited State   2:      Singlet-A      4.8987 eV  253.10 nm  f=0.0003  <S**2>=0.000
      13 -> 16         0.67545
      13 -> 19         0.12382

 Excited State   3:      Singlet-A      5.0022 eV  247.86 nm  f=0.0089  <S**2>=0.000
      12 -> 14        -0.41762
      13 -> 15         0.56330

 Excited State   4:      Singlet-A      5.7991 eV  213.80 nm  f=0.0033  <S**2>=0.000
      12 -> 16        -0.32198
      12 -> 18         0.17899
      12 -> 21         0.19413
      13 -> 17         0.10997
      13 -> 18         0.44769
      13 -> 21         0.25857
      13 -> 23        -0.11880

 Excited State   5:      Singlet-A      5.9246 eV  209.27 nm  f=0.0049  <S**2>=0.000
       7 -> 16        -0.13144
      12 -> 16         0.55515
      12 -> 18         0.17548
      12 -> 19         0.12261
      13 -> 18         0.25913
      13 -> 21         0.13804
      13 -> 23        -0.10342

 Excited State   6:      Singlet-A      6.0486 eV  204.98 nm  f=0.2030  <S**2>=0.000
      12 -> 14         0.36999
      12 -> 15         0.44622
      12 -> 16        -0.10161
      13 -> 14        -0.15837
      13 -> 15         0.29630

 Excited State   7:      Singlet-A      6.1241 eV  202.45 nm  f=0.0027  <S**2>=0.000
      12 -> 18         0.15126
      12 -> 19        -0.27047
      12 -> 21        -0.13544
      12 -> 23        -0.14414
      13 -> 19         0.43032
      13 -> 21         0.25528
      13 -> 22         0.15881
      13 -> 23         0.18245

 Excited State   8:      Singlet-A      6.2412 eV  198.66 nm  f=0.3261  <S**2>=0.000
      12 -> 14        -0.37493
      12 -> 15         0.44391
      13 -> 14        -0.18893
      13 -> 15        -0.25289

 Excited State   9:      Singlet-A      6.3349 eV  195.72 nm  f=0.0091  <S**2>=0.000
      11 -> 14        -0.11531
      13 -> 17         0.62134
      13 -> 18        -0.14833
      13 -> 19         0.13387
      13 -> 20         0.10337

 Excited State  10:      Singlet-A      6.6348 eV  186.87 nm  f=0.0007  <S**2>=0.000
      12 -> 17         0.52220
      12 -> 18        -0.24021
      12 -> 20         0.29926
      12 -> 23        -0.12890
      13 -> 18         0.12189
      13 -> 19         0.13447

 Excited State  11:      Singlet-A      6.8617 eV  180.69 nm  f=0.0069  <S**2>=0.000
       9 -> 14         0.23443
      10 -> 15        -0.10135
      11 -> 14         0.54494
      11 -> 15         0.31752
      13 -> 17         0.10852

 Excited State  12:      Singlet-A      7.1863 eV  172.53 nm  f=0.0053  <S**2>=0.000
      10 -> 14         0.10763
      11 -> 15        -0.15339
      12 -> 19         0.19062
      12 -> 20        -0.25707
      12 -> 23         0.10648
      13 -> 16        -0.12245
      13 -> 18         0.22567
      13 -> 19         0.34207
      13 -> 21        -0.30812
      13 -> 22        -0.14144

 Excited State  13:      Singlet-A      7.3350 eV  169.03 nm  f=0.0009  <S**2>=0.000
       9 -> 15         0.15050
      10 -> 14         0.39019
      10 -> 15        -0.27896
      11 -> 14         0.11016
      11 -> 15        -0.38071
      13 -> 19        -0.13301
      13 -> 20         0.11945
      13 -> 21         0.11740

 Excited State  14:      Singlet-A      7.5472 eV  164.28 nm  f=0.0106  <S**2>=0.000
      11 -> 15         0.12127
      12 -> 19        -0.20737
      12 -> 20        -0.16517
      13 -> 17        -0.10539
      13 -> 19         0.10156
      13 -> 20         0.49088
      13 -> 22        -0.25531
      13 -> 23        -0.20653

 Excited State  15:      Singlet-A      7.5780 eV  163.61 nm  f=0.0002  <S**2>=0.000
      10 -> 15        -0.12637
      12 -> 17         0.10621
      12 -> 18         0.43406
      12 -> 20         0.14931
      12 -> 21         0.14904
      12 -> 22         0.13876
      12 -> 24        -0.10355
      13 -> 18        -0.16251
      13 -> 20        -0.20957
      13 -> 21        -0.16487
      13 -> 22        -0.21841
      13 -> 24         0.12955

 The electronic state is 1-A.
 Alpha  occ. eigenvalues --   -1.61432  -1.23342  -1.10506  -0.84860  -0.79861
 Alpha  occ. eigenvalues --   -0.69236  -0.62993  -0.57477  -0.51537  -0.50243
 Alpha  occ. eigenvalues --   -0.47793  -0.38271  -0.34690
 Alpha virt. eigenvalues --    0.03881   0.06045   0.09237   0.13131   0.14950
 Alpha virt. eigenvalues --    0.15852   0.17917   0.18454   0.19468   0.21093
 Alpha virt. eigenvalues --    0.23667

 Mulliken charges:
               1
     1  C   -0.197436
     2  C   -0.142613
     3  O   -0.031562
     4  C   -0.094631
     5  C   -0.239446
     6  H    0.156422
     7  H    0.191076
     8  H    0.197845
     9  H    0.160347
 Sum of Mulliken charges =   0.00000

 Dipole moment (field-independent basis, Debye):
    X=              0.0307    Y=             -0.0705    Z=              0.0876  Tot=              0.1166
 N-N= 1.039877058030D+02 E-N=-1.718111683619D+02  KE=-1.663116963602D+01
 Orbital energies and kinetic energies (alpha):
                                 1                 2
   1         O                -1.614318         -1.336301
   2         O                -1.233417         -1.058158
   3         O                -1.105059         -0.957738
   4         O                -0.848597         -0.718431
   5         O                -0.798607         -0.714226
   6         O                -0.692355         -0.605768
   7         O                -0.629926         -0.502887

 Normal termination of Gaussian 09 at Tue Dec 15 16:21:23 2015.
