 Gaussian 09, Revision D.01,
 Gaussian 09:  ES64L-G09RevD.01 24-Apr-2013

 ------------------------------------------------------------
 #P AM1(Input,print) CIS(Singlets,NStates=15) pop(full) force
 ------------------------------------------------------------

 -----------------
 AM1-Reparam Input
 -----------------
 Symbolic Z-matrix:
 Charge =  0 Multiplicity = 1

                         Standard orientation:
 ---------------------------------------------------------------------
 Center     Atomic      Atomic             Coordinates (Angstroms)
 Number     Number       Type             X           Y           Z
 ---------------------------------------------------------------------
      1          6           0       -0.758455    0.927988   -0.011958
      2          6           0       -1.090365   -0.318593    0.029877
      3          8           0        0.016607   -1.170386   -0.037171
      4          6           0        1.068205   -0.332823    0.042094
      5          6           0        0.758371    0.984817   -0.009150
      6          1           0        1.365174    1.773344   -0.016099
      7          1           0        2.037449   -0.902824   -0.007160
      8          1           0       -2.057556   -0.851726    0.034843
      9          1           0       -1.344462    1.775963   -0.019400
 ---------------------------------------------------------------------

 SCF Done:  E(RAM1) =   1.76658347933     A.U. after   14 cycles

 Excitation energies and oscillator strengths:

 Excited State   1:      Singlet-A      4.9401 eV  250.97 nm  f=0.3503  <S**2>=0.000
      13 -> 14         0.69600
 This state for optimization and/or second-order correction.
 Total Energy, E(CIS) =   1.94813006781
 Copying the excited state density for this state as the 1-particle RhoCI density.

 Excited State   2:      Singlet-A      5.4154 eV  228.95 nm  f=0.0006  <S**2>=0.000
      11 -> 15        -0.10025
      13 -> 15         0.66717
      13 -> 17         0.14876
      13 -> 18        -0.10224

 Excited State   3:      Singlet-A      5.8311 eV  212.63 nm  f=0.0013  <S**2>=0.000
      11 -> 16         0.10040
      13 -> 15         0.11061
      13 -> 16         0.66099
      13 -> 18         0.18661

 Excited State   4:      Singlet-A      6.6002 eV  187.85 nm  f=0.0006  <S**2>=0.000
      12 -> 14         0.68715
      13 -> 19         0.10643

 Excited State   5:      Singlet-A      6.8760 eV  180.31 nm  f=0.0022  <S**2>=0.000
      12 -> 14        -0.13938
      13 -> 15         0.12187
      13 -> 16        -0.11838
      13 -> 17        -0.36452
      13 -> 18         0.41688
      13 -> 19         0.33093
      13 -> 20         0.12964

 Excited State   6:      Singlet-A      7.3937 eV  167.69 nm  f=0.0301  <S**2>=0.000
      13 -> 17         0.57779
      13 -> 18         0.29206
      13 -> 19         0.18694
      13 -> 21        -0.11245

 Excited State   7:      Singlet-A      7.9774 eV  155.42 nm  f=0.0010  <S**2>=0.000
      13 -> 16         0.10313
      13 -> 18        -0.41286
      13 -> 19         0.42676
      13 -> 20         0.32896
      13 -> 21        -0.12171

 Excited State   8:      Singlet-A      8.3895 eV  147.78 nm  f=0.0032  <S**2>=0.000
      10 -> 14         0.63853
      11 -> 14         0.16319
      13 -> 19         0.11294
      13 -> 20        -0.13964
      13 -> 21        -0.13206

 Excited State   9:      Singlet-A      8.4670 eV  146.43 nm  f=0.0047  <S**2>=0.000
      10 -> 14         0.10855
      13 -> 19        -0.38136
      13 -> 20         0.48945
      13 -> 21        -0.30280

 Excited State  10:      Singlet-A      8.5368 eV  145.24 nm  f=0.0495  <S**2>=0.000
      10 -> 14        -0.17844
      11 -> 14         0.61137
      12 -> 15        -0.10897
      12 -> 16        -0.18635

 Excited State  11:      Singlet-A      8.8346 eV  140.34 nm  f=0.1636  <S**2>=0.000
       8 -> 15        -0.10956
      10 -> 14         0.12157
      12 -> 15        -0.35124
      12 -> 16         0.21846
      12 -> 18         0.13839
      13 -> 20         0.23291
      13 -> 21         0.41874

 Excited State  12:      Singlet-A      8.8445 eV  140.18 nm  f=0.1760  <S**2>=0.000
       8 -> 15         0.10385
      10 -> 14         0.14352
      12 -> 15         0.33920
      12 -> 16        -0.24505
      12 -> 18        -0.14416
      13 -> 20         0.22161
      13 -> 21         0.41648

 Excited State  13:      Singlet-A      9.3187 eV  133.05 nm  f=0.0022  <S**2>=0.000
       7 -> 15         0.14844
      11 -> 15         0.66292
      13 -> 15         0.12156

 Excited State  14:      Singlet-A      9.4208 eV  131.61 nm  f=0.1850  <S**2>=0.000
       8 -> 16        -0.11651
      11 -> 14         0.26805
      12 -> 15         0.36999
      12 -> 16         0.46638

 Excited State  15:      Singlet-A      9.7921 eV  126.62 nm  f=0.0116  <S**2>=0.000
       8 -> 15        -0.10412
      11 -> 16         0.42247
      12 -> 16         0.15604
      12 -> 17         0.20293
      12 -> 18        -0.29870
      12 -> 19        -0.20934
      12 -> 20        -0.16106
      12 -> 21         0.11519

 The electronic state is 1-A.
 Alpha  occ. eigenvalues --   -1.91051  -1.21442  -0.99395  -0.82810  -0.79827
 Alpha  occ. eigenvalues --   -0.69040  -0.62705  -0.52782  -0.51369  -0.44802
 Alpha  occ. eigenvalues --   -0.42203  -0.38747  -0.25261
 Alpha virt. eigenvalues --    0.12625   0.16397   0.18094   0.26721   0.28553
 Alpha virt. eigenvalues --    0.29429   0.30147   0.31448   0.35642   0.45096
 Alpha virt. eigenvalues --    0.48800

 Mulliken charges:
               1
     1  C   -0.106097
     2  C   -1.865912
     3  O    3.160278
     4  C   -1.896422
     5  C   -0.204578
     6  H    0.181005
     7  H    0.280571
     8  H    0.283007
     9  H    0.168148
 Sum of Mulliken charges =   0.00000

 Dipole moment (field-independent basis, Debye):
    X=              0.0401    Y=            -11.3600    Z=             -1.0519  Tot=             11.4087
 N-N= 1.038762751551D+02 E-N=-1.692581393171D+02  KE=-1.573256224752D+01
 Orbital energies and kinetic energies (alpha):
                                 1                 2
   1         O                -1.910511         -1.367804
   2         O                -1.214424         -1.104543
   3         O                -0.993950         -0.925143
   4         O                -0.828102         -0.635594
   5         O                -0.798265         -0.690272
   6         O                -0.690398         -0.586246
   7         O                -0.627053         -0.509444

 Normal termination of Gaussian 09 at Tue Dec 15 17:06:51 2015.
