 Gaussian 09, Revision D.01,
 Gaussian 09:  ES64L-G09RevD.01 24-Apr-2013

 ------------------------------------------------------------
 #P AM1(Input,print) CIS(Singlets,NStates=15) pop(full) force
 ------------------------------------------------------------

 -----------------
 AM1-Reparam Input
 -----------------
 Symbolic Z-matrix:
 Charge =  0 Multiplicity = 1

                         Standard orientation:
 ---------------------------------------------------------------------
 Center     Atomic      Atomic             Coordinates (Angstroms)
 Number     Number       Type             X           Y           Z
 ---------------------------------------------------------------------
      1          6           0        0.675878    0.981242   -0.020475
      2          6           0        1.064960   -0.289038    0.002296
      3          8           0        0.104754   -1.110560   -0.010340
      4          6           0       -1.089262   -0.452070    0.017828
      5          6           0       -0.756986    0.920529   -0.005822
      6          1           0       -1.513018    1.690538    0.009793
      7          1           0       -1.987048   -0.944526   -0.002989
      8          1           0        2.122285   -0.706192    0.045864
      9          1           0        1.172203    1.880684    0.067091
 ---------------------------------------------------------------------

 SCF Done:  E(RAM1) =   1.81462282769     A.U. after   14 cycles

 Excitation energies and oscillator strengths:

 Excited State   1:      Singlet-A      5.5273 eV  224.31 nm  f=0.3544  <S**2>=0.000
      13 -> 14         0.69127
 This state for optimization and/or second-order correction.
 Total Energy, E(CIS) =   2.01774768433
 Copying the excited state density for this state as the 1-particle RhoCI density.

 Excited State   2:      Singlet-A      6.4764 eV  191.44 nm  f=0.0059  <S**2>=0.000
      11 -> 15         0.10065
      13 -> 15         0.67609
      13 -> 17        -0.13842

 Excited State   3:      Singlet-A      7.2346 eV  171.38 nm  f=0.0060  <S**2>=0.000
      13 -> 16         0.66855
      13 -> 18        -0.12415
      13 -> 19         0.11060

 Excited State   4:      Singlet-A      7.4776 eV  165.81 nm  f=0.0007  <S**2>=0.000
      12 -> 14         0.69413

 Excited State   5:      Singlet-A      8.2192 eV  150.85 nm  f=0.0057  <S**2>=0.000
      10 -> 14         0.28822
      13 -> 17         0.47897
      13 -> 18        -0.34063
      13 -> 21        -0.18703

 Excited State   6:      Singlet-A      8.2518 eV  150.25 nm  f=0.0029  <S**2>=0.000
      10 -> 14         0.61885
      11 -> 14        -0.13292
      13 -> 17        -0.19673
      13 -> 18         0.19078

 Excited State   7:      Singlet-A      8.9528 eV  138.49 nm  f=0.1260  <S**2>=0.000
      10 -> 14         0.14368
      11 -> 14         0.67332

 Excited State   8:      Singlet-A      9.1532 eV  135.45 nm  f=0.0100  <S**2>=0.000
      11 -> 15         0.10159
      11 -> 16        -0.10403
      13 -> 15         0.11449
      13 -> 17         0.39610
      13 -> 18         0.51320
      13 -> 19         0.17874

 Excited State   9:      Singlet-A      9.7416 eV  127.27 nm  f=0.0160  <S**2>=0.000
       8 -> 15         0.10269
       9 -> 15        -0.10959
      10 -> 16        -0.23940
      10 -> 18         0.14535
      12 -> 15         0.48791
      12 -> 17        -0.27842
      12 -> 18         0.14463

 Excited State  10:      Singlet-A      9.8757 eV  125.54 nm  f=0.0027  <S**2>=0.000
      11 -> 15         0.18649
      11 -> 16         0.25921
      13 -> 17        -0.11551
      13 -> 19         0.58883

 Excited State  11:      Singlet-A      9.9803 eV  124.23 nm  f=0.0910  <S**2>=0.000
       9 -> 15         0.13022
      10 -> 15         0.34608
      10 -> 16         0.17569
      10 -> 17        -0.12233
      10 -> 18        -0.10428
      11 -> 15        -0.23573
      12 -> 15         0.36220
      12 -> 17         0.12145
      12 -> 18        -0.17949
      13 -> 19         0.13929

 Excited State  12:      Singlet-A     10.1755 eV  121.85 nm  f=0.0167  <S**2>=0.000
       7 -> 15        -0.11502
      10 -> 15         0.17909
      11 -> 15         0.57722
      12 -> 15         0.13382
      13 -> 15        -0.12416
      13 -> 19        -0.18038

 Excited State  13:      Singlet-A     10.4683 eV  118.44 nm  f=0.1644  <S**2>=0.000
       9 -> 15         0.11049
      10 -> 16        -0.29438
      10 -> 19        -0.10775
      12 -> 16         0.57136
      12 -> 19         0.11516

 Excited State  14:      Singlet-A     10.5537 eV  117.48 nm  f=0.0059  <S**2>=0.000
      13 -> 17         0.14388
      13 -> 18        -0.15225
      13 -> 21         0.65471

 Excited State  15:      Singlet-A     10.7028 eV  115.84 nm  f=0.0696  <S**2>=0.000
      11 -> 16        -0.37561
      13 -> 20         0.56128

 The electronic state is 1-A.
 Alpha  occ. eigenvalues --   -2.02442  -1.27931  -1.01733  -0.90885  -0.85021
 Alpha  occ. eigenvalues --   -0.77431  -0.76582  -0.65240  -0.61368  -0.53544
 Alpha  occ. eigenvalues --   -0.52844  -0.50995  -0.38462
 Alpha virt. eigenvalues --    0.02960   0.07963   0.12700   0.18677   0.19719
 Alpha virt. eigenvalues --    0.21853   0.24626   0.25868   0.32188   0.39387
 Alpha virt. eigenvalues --    0.45757

 Mulliken charges:
               1
     1  C   -0.159438
     2  C   -1.933356
     3  O    3.172298
     4  C   -1.916568
     5  C   -0.076954
     6  H    0.153603
     7  H    0.276693
     8  H    0.328653
     9  H    0.155068
 Sum of Mulliken charges =   0.00000

 Dipole moment (field-independent basis, Debye):
    X=              1.8621    Y=             -9.3739    Z=             -0.1519  Tot=              9.5582
 N-N= 1.063353422020D+02 E-N=-1.716339359190D+02  KE=-1.571795024372D+01
 Orbital energies and kinetic energies (alpha):
                                 1                 2
   1         O                -2.024417         -1.423989
   2         O                -1.279306         -1.046716
   3         O                -1.017333         -0.872940
   4         O                -0.908854         -0.592475
   5         O                -0.850211         -0.704965
   6         O                -0.774306         -0.610235
   7         O                -0.765820         -0.550169

 Normal termination of Gaussian 09 at Tue Dec 15 17:09:09 2015.
