 Gaussian 09, Revision D.01,
 Gaussian 09:  ES64L-G09RevD.01 24-Apr-2013

 ------------------------------------------------------------
 #P AM1(Input,print) CIS(Singlets,NStates=15) pop(full) force
 ------------------------------------------------------------

 -----------------
 AM1-Reparam Input
 -----------------
 Symbolic Z-matrix:
 Charge =  0 Multiplicity = 1

                         Standard orientation:
 ---------------------------------------------------------------------
 Center     Atomic      Atomic             Coordinates (Angstroms)
 Number     Number       Type             X           Y           Z
 ---------------------------------------------------------------------
      1          6           0       -0.791361    0.865569   -0.019063
      2          6           0       -1.080120   -0.487728    0.038010
      3          8           0        0.150444   -1.116339   -0.018479
      4          6           0        1.149966   -0.213091   -0.005149
      5          6           0        0.564242    0.995773    0.007387
      6          1           0        1.120018    1.939580    0.030739
      7          1           0        2.137831   -0.601887    0.036199
      8          1           0       -1.978883   -1.080538   -0.012795
      9          1           0       -1.538885    1.710418   -0.033425
 ---------------------------------------------------------------------

 SCF Done:  E(RAM1) =   1.69186962172     A.U. after   13 cycles

 Excitation energies and oscillator strengths:

 Excited State   1:      Singlet-A      5.6032 eV  221.27 nm  f=0.3073  <S**2>=0.000
      10 -> 17         0.11106
      13 -> 14         0.68878
 This state for optimization and/or second-order correction.
 Total Energy, E(CIS) =   1.89778449718
 Copying the excited state density for this state as the 1-particle RhoCI density.

 Excited State   2:      Singlet-A      6.6203 eV  187.28 nm  f=0.0096  <S**2>=0.000
      13 -> 15         0.61223
      13 -> 16         0.16368
      13 -> 17         0.26788

 Excited State   3:      Singlet-A      7.0067 eV  176.95 nm  f=0.0014  <S**2>=0.000
      11 -> 15        -0.12207
      13 -> 15        -0.17480
      13 -> 16         0.60178
      13 -> 18         0.11418
      13 -> 21         0.22662

 Excited State   4:      Singlet-A      7.3023 eV  169.79 nm  f=0.0005  <S**2>=0.000
      12 -> 14         0.65447
      13 -> 21         0.16142

 Excited State   5:      Singlet-A      7.7322 eV  160.35 nm  f=0.0023  <S**2>=0.000
      10 -> 14        -0.11862
      12 -> 14        -0.21441
      13 -> 16        -0.12969
      13 -> 17         0.25297
      13 -> 19         0.26159
      13 -> 20        -0.27032
      13 -> 21         0.43791

 Excited State   6:      Singlet-A      7.8623 eV  157.69 nm  f=0.0136  <S**2>=0.000
      10 -> 14        -0.40857
      13 -> 15        -0.17480
      13 -> 17         0.42732
      13 -> 19        -0.15418
      13 -> 21        -0.25143

 Excited State   7:      Singlet-A      8.0068 eV  154.85 nm  f=0.0057  <S**2>=0.000
      10 -> 14         0.53451
      11 -> 14         0.11910
      13 -> 15        -0.12127
      13 -> 17         0.39904

 Excited State   8:      Singlet-A      8.5905 eV  144.33 nm  f=0.0017  <S**2>=0.000
      13 -> 16        -0.14568
      13 -> 18         0.64827
      13 -> 19        -0.12877
      13 -> 21         0.12750

 Excited State   9:      Singlet-A      8.7491 eV  141.71 nm  f=0.0115  <S**2>=0.000
      11 -> 14        -0.26732
      13 -> 18         0.17878
      13 -> 19         0.46659
      13 -> 20        -0.21086
      13 -> 21        -0.31159

 Excited State  10:      Singlet-A      8.7621 eV  141.50 nm  f=0.0774  <S**2>=0.000
      10 -> 14        -0.14590
      11 -> 14         0.61113
      13 -> 18         0.11146
      13 -> 19         0.19200
      13 -> 21        -0.12914

 Excited State  11:      Singlet-A      9.1460 eV  135.56 nm  f=0.0966  <S**2>=0.000
      13 -> 19         0.33061
      13 -> 20         0.58340
      13 -> 21         0.11449

 Excited State  12:      Singlet-A      9.4088 eV  131.77 nm  f=0.0663  <S**2>=0.000
      10 -> 15         0.26778
      10 -> 17         0.35860
      12 -> 16         0.20970
      12 -> 18         0.17302
      12 -> 19         0.15525
      12 -> 20        -0.17863
      12 -> 21         0.21722
      13 -> 14        -0.11638

 Excited State  13:      Singlet-A      9.8335 eV  126.08 nm  f=0.0348  <S**2>=0.000
      10 -> 15         0.17769
      11 -> 15        -0.37840
      11 -> 16        -0.15476
      11 -> 17        -0.12078
      12 -> 15         0.43210
      12 -> 17         0.10344
      12 -> 20         0.10630
      13 -> 16        -0.11597

 Excited State  14:      Singlet-A      9.8984 eV  125.26 nm  f=0.0674  <S**2>=0.000
      11 -> 15         0.44971
      11 -> 16         0.11929
      11 -> 17         0.12453
      12 -> 15         0.39854
      12 -> 17         0.10302
      13 -> 16         0.10421

 Excited State  15:      Singlet-A     10.1377 eV  122.30 nm  f=0.1731  <S**2>=0.000
       8 -> 16        -0.15161
       9 -> 15        -0.11814
      10 -> 15        -0.21682
      10 -> 18        -0.21436
      10 -> 19        -0.29186
      11 -> 14        -0.10545
      12 -> 16         0.31148
      12 -> 17        -0.24806
      12 -> 18         0.13818
      12 -> 20         0.20862

 The electronic state is 1-A.
 Alpha  occ. eigenvalues --   -1.91809  -1.23560  -1.00046  -0.81873  -0.81182
 Alpha  occ. eigenvalues --   -0.68535  -0.64107  -0.55897  -0.52399  -0.43137
 Alpha  occ. eigenvalues --   -0.42578  -0.41590  -0.29495
 Alpha virt. eigenvalues --    0.12637   0.18201   0.19733   0.23405   0.25917
 Alpha virt. eigenvalues --    0.27587   0.27920   0.28863   0.36519   0.44911
 Alpha virt. eigenvalues --    0.50686

 Mulliken charges:
               1
     1  C   -0.112256
     2  C   -1.971362
     3  O    3.203137
     4  C   -1.954610
     5  C   -0.146289
     6  H    0.184737
     7  H    0.306327
     8  H    0.307691
     9  H    0.182625
 Sum of Mulliken charges =   0.00000

 Dipole moment (field-independent basis, Debye):
    X=              1.4926    Y=             -9.5501    Z=             -0.4899  Tot=              9.6784
 N-N= 1.041739480152D+02 E-N=-1.696847234382D+02  KE=-1.575528774965D+01
 Orbital energies and kinetic energies (alpha):
                                 1                 2
   1         O                -1.918093         -1.389243
   2         O                -1.235595         -1.097926
   3         O                -1.000458         -0.909973
   4         O                -0.818727         -0.662147
   5         O                -0.811822         -0.677099
   6         O                -0.685346         -0.592131
   7         O                -0.641065         -0.519224

 Normal termination of Gaussian 09 at Tue Dec 15 17:06:58 2015.
