 Gaussian 09, Revision D.01,
 Gaussian 09:  ES64L-G09RevD.01 24-Apr-2013

 ------------------------------------------------------------
 #P AM1(Input,print) CIS(Singlets,NStates=15) pop(full) force
 ------------------------------------------------------------

 -----------------
 AM1-Reparam Input
 -----------------
 Symbolic Z-matrix:
 Charge =  0 Multiplicity = 1

                         Standard orientation:
 ---------------------------------------------------------------------
 Center     Atomic      Atomic             Coordinates (Angstroms)
 Number     Number       Type             X           Y           Z
 ---------------------------------------------------------------------
      1          6           0       -0.975310    0.715668   -0.009273
      2          6           0       -0.928919   -0.602198   -0.018064
      3          8           0        0.318882   -1.148367    0.018147
      4          6           0        1.166129   -0.012823   -0.013168
      5          6           0        0.405930    1.103118    0.015270
      6          1           0        0.802026    2.164230   -0.016746
      7          1           0        2.195371   -0.198491   -0.022500
      8          1           0       -1.727105   -1.367089   -0.003242
      9          1           0       -1.828327    1.365698    0.048715
 ---------------------------------------------------------------------

 SCF Done:  E(RAM1) =  -7.07989891126     A.U. after   14 cycles

 Excitation energies and oscillator strengths:

 Excited State   1:      Singlet-A      7.3988 eV  167.57 nm  f=0.0323  <S**2>=0.000
      13 -> 14         0.35454
      13 -> 15         0.57531
      13 -> 16         0.10948
      13 -> 17        -0.11534
 This state for optimization and/or second-order correction.
 Total Energy, E(CIS) =  -6.80799854267
 Copying the excited state density for this state as the 1-particle RhoCI density.

 Excited State   2:      Singlet-A      7.5741 eV  163.70 nm  f=0.1970  <S**2>=0.000
      13 -> 14         0.57295
      13 -> 15        -0.36096

 Excited State   3:      Singlet-A      7.7746 eV  159.47 nm  f=0.0024  <S**2>=0.000
      12 -> 14         0.68614
      12 -> 15        -0.10981

 Excited State   4:      Singlet-A      8.1540 eV  152.05 nm  f=0.0076  <S**2>=0.000
      13 -> 15        -0.10150
      13 -> 16         0.66429
      13 -> 17        -0.10895
      13 -> 21        -0.10600

 Excited State   5:      Singlet-A      8.7476 eV  141.73 nm  f=0.0039  <S**2>=0.000
      11 -> 14         0.68659
      11 -> 15        -0.10747

 Excited State   6:      Singlet-A      9.4073 eV  131.80 nm  f=0.1102  <S**2>=0.000
       9 -> 15        -0.22098
      10 -> 14        -0.14273
      11 -> 16        -0.10519
      12 -> 15         0.57241
      13 -> 18         0.14826

 Excited State   7:      Singlet-A      9.5714 eV  129.54 nm  f=0.0118  <S**2>=0.000
      10 -> 15         0.10757
      10 -> 16        -0.11490
      13 -> 16         0.11183
      13 -> 17         0.65980

 Excited State   8:      Singlet-A      9.8339 eV  126.08 nm  f=0.0304  <S**2>=0.000
       8 -> 16        -0.12781
      10 -> 14        -0.32461
      12 -> 15        -0.12255
      12 -> 16         0.36666
      12 -> 21        -0.12585
      13 -> 18         0.40887

 Excited State   9:      Singlet-A     10.0158 eV  123.79 nm  f=0.0700  <S**2>=0.000
       9 -> 15         0.12279
      10 -> 14         0.25280
      11 -> 15         0.16503
      11 -> 16        -0.11257
      12 -> 15         0.15699
      12 -> 16         0.49466
      12 -> 17        -0.17179
      13 -> 18        -0.21442

 Excited State  10:      Singlet-A     10.1350 eV  122.33 nm  f=0.0104  <S**2>=0.000
      11 -> 15        -0.11942
      13 -> 19         0.66136

 Excited State  11:      Singlet-A     10.1666 eV  121.95 nm  f=0.0105  <S**2>=0.000
       9 -> 15         0.14860
      11 -> 15         0.55200
      11 -> 16         0.19705
      11 -> 17        -0.15641
      12 -> 16        -0.18035
      13 -> 19         0.16186

 Excited State  12:      Singlet-A     10.2848 eV  120.55 nm  f=0.0729  <S**2>=0.000
       9 -> 15         0.10546
      10 -> 15        -0.13497
      12 -> 17        -0.24174
      12 -> 19        -0.13846
      13 -> 18         0.19414
      13 -> 19        -0.12298
      13 -> 20         0.52257
      13 -> 21         0.11893

 Excited State  13:      Singlet-A     10.3577 eV  119.70 nm  f=0.1782  <S**2>=0.000
       9 -> 15        -0.10562
      10 -> 15        -0.10378
      11 -> 17        -0.11816
      11 -> 20        -0.10770
      12 -> 17         0.34834
      12 -> 19         0.30532
      13 -> 18        -0.22025
      13 -> 20         0.35522

 Excited State  14:      Singlet-A     10.5813 eV  117.17 nm  f=0.0201  <S**2>=0.000
      10 -> 15        -0.37027
      10 -> 16        -0.26932
      13 -> 20        -0.18896
      13 -> 21         0.42671
      13 -> 22         0.16845

 Excited State  15:      Singlet-A     10.6895 eV  115.99 nm  f=0.0608  <S**2>=0.000
       8 -> 16         0.12585
       9 -> 15         0.16030
      10 -> 14         0.23048
      11 -> 15        -0.13115
      11 -> 17        -0.16874
      11 -> 20        -0.17857
      12 -> 16        -0.12204
      12 -> 17        -0.11992
      12 -> 19         0.38951
      12 -> 21         0.10980
      13 -> 18         0.26685
      13 -> 20        -0.13435

 The electronic state is 1-A.
 Alpha  occ. eigenvalues --   -4.55447  -1.34960  -1.01916  -0.98771  -0.96338
 Alpha  occ. eigenvalues --   -0.91013  -0.77232  -0.56982  -0.54697  -0.52625
 Alpha  occ. eigenvalues --   -0.49168  -0.45620  -0.39288
 Alpha virt. eigenvalues --    0.10743   0.11480   0.14386   0.19620   0.20821
 Alpha virt. eigenvalues --    0.21399   0.22820   0.28750   0.31325   0.34279
 Alpha virt. eigenvalues --    0.39024

 Mulliken charges:
               1
     1  C   -0.287307
     2  C   -1.282496
     3  O    2.398340
     4  C   -1.315332
     5  C   -0.232482
     6  H    0.148289
     7  H    0.209337
     8  H    0.200819
     9  H    0.160831
 Sum of Mulliken charges =   0.00000

 Dipole moment (field-independent basis, Debye):
    X=              2.3200    Y=             -9.7136    Z=              0.3629  Tot=              9.9934
 N-N= 1.044080747362D+02 E-N=-1.706061255090D+02  KE=-2.528870278093D+01
 Orbital energies and kinetic energies (alpha):
                                 1                 2
   1         O                -4.554466         -3.896890
   2         O                -1.349596         -1.286017
   3         O                -1.019159         -0.949679
   4         O                -0.987712         -0.969644
   5         O                -0.963378         -0.968502
   6         O                -0.910128         -0.883200
   7         O                -0.772321         -0.725165

 Normal termination of Gaussian 09 at Fri Dec 11 13:41:24 2015.
