 Gaussian 09, Revision D.01,
 Gaussian 09:  ES64L-G09RevD.01 24-Apr-2013

 ------------------------------------------------------------
 #P AM1(Input,print) CIS(Singlets,NStates=15) pop(full) force
 ------------------------------------------------------------

 -----------------
 AM1-Reparam Input
 -----------------
 Symbolic Z-matrix:
 Charge =  0 Multiplicity = 1

                         Standard orientation:
 ---------------------------------------------------------------------
 Center     Atomic      Atomic             Coordinates (Angstroms)
 Number     Number       Type             X           Y           Z
 ---------------------------------------------------------------------
      1          6           0       -0.758455    0.927988   -0.011958
      2          6           0       -1.090365   -0.318593    0.029877
      3          8           0        0.016607   -1.170386   -0.037171
      4          6           0        1.068205   -0.332823    0.042094
      5          6           0        0.758371    0.984817   -0.009150
      6          1           0        1.365174    1.773344   -0.016099
      7          1           0        2.037449   -0.902824   -0.007160
      8          1           0       -2.057556   -0.851726    0.034843
      9          1           0       -1.344462    1.775963   -0.019400
 ---------------------------------------------------------------------

 SCF Done:  E(RAM1) =   2.88693220594     A.U. after   13 cycles

 Excitation energies and oscillator strengths:

 Excited State   1:      Singlet-A      4.8687 eV  254.66 nm  f=0.3499  <S**2>=0.000
      13 -> 14         0.69682
 This state for optimization and/or second-order correction.
 Total Energy, E(CIS) =   3.06585225532
 Copying the excited state density for this state as the 1-particle RhoCI density.

 Excited State   2:      Singlet-A      5.5844 eV  222.02 nm  f=0.0006  <S**2>=0.000
      13 -> 15         0.65808
      13 -> 16        -0.10835
      13 -> 17         0.17812

 Excited State   3:      Singlet-A      6.0325 eV  205.53 nm  f=0.0010  <S**2>=0.000
      13 -> 15         0.12954
      13 -> 16         0.65621
      13 -> 18         0.19181

 Excited State   4:      Singlet-A      6.3242 eV  196.05 nm  f=0.0004  <S**2>=0.000
      12 -> 14         0.69992

 Excited State   5:      Singlet-A      7.0784 eV  175.16 nm  f=0.0023  <S**2>=0.000
      13 -> 15        -0.15779
      13 -> 16         0.11739
      13 -> 17         0.50419
      13 -> 18        -0.33745
      13 -> 19        -0.18056
      13 -> 20        -0.21596

 Excited State   6:      Singlet-A      7.6234 eV  162.64 nm  f=0.0278  <S**2>=0.000
      13 -> 16        -0.12840
      13 -> 17         0.44112
      13 -> 18         0.46519
      13 -> 19         0.17564
      13 -> 20         0.14245

 Excited State   7:      Singlet-A      8.0618 eV  153.79 nm  f=0.0013  <S**2>=0.000
      10 -> 14         0.66777
      13 -> 19        -0.16852

 Excited State   8:      Singlet-A      8.2261 eV  150.72 nm  f=0.0000  <S**2>=0.000
      10 -> 14         0.17097
      13 -> 18        -0.31410
      13 -> 19         0.56012
      13 -> 20         0.20436

 Excited State   9:      Singlet-A      8.4891 eV  146.05 nm  f=0.0696  <S**2>=0.000
      11 -> 14         0.64840
      12 -> 16        -0.17539

 Excited State  10:      Singlet-A      8.8199 eV  140.57 nm  f=0.2227  <S**2>=0.000
       8 -> 15         0.14185
       8 -> 16         0.10093
      12 -> 15         0.52068
      12 -> 16        -0.30109
      12 -> 17         0.16316
      12 -> 18        -0.17214

 Excited State  11:      Singlet-A      8.9632 eV  138.33 nm  f=0.0039  <S**2>=0.000
      13 -> 18        -0.13070
      13 -> 19        -0.27178
      13 -> 20         0.57544
      13 -> 21         0.24797

 Excited State  12:      Singlet-A      9.2543 eV  133.98 nm  f=0.0771  <S**2>=0.000
      13 -> 19         0.12214
      13 -> 20        -0.21455
      13 -> 21         0.64572

 Excited State  13:      Singlet-A      9.4010 eV  131.88 nm  f=0.1339  <S**2>=0.000
      11 -> 14         0.21504
      12 -> 15         0.34246
      12 -> 16         0.52496

 Excited State  14:      Singlet-A      9.5637 eV  129.64 nm  f=0.0026  <S**2>=0.000
       7 -> 15         0.14907
      11 -> 15         0.66067
      13 -> 15         0.12502

 Excited State  15:      Singlet-A      9.7785 eV  126.79 nm  f=0.0378  <S**2>=0.000
       8 -> 15        -0.11127
       9 -> 16         0.11387
      10 -> 16         0.13542
      10 -> 17         0.14097
      10 -> 18         0.15291
      12 -> 15        -0.16752
      12 -> 16         0.19851
      12 -> 17         0.33299
      12 -> 18        -0.25913
      12 -> 19        -0.30633
      12 -> 20        -0.14185

 The electronic state is 1-A.
 Alpha  occ. eigenvalues --   -1.71296  -1.11180  -0.92111  -0.79730  -0.74258
 Alpha  occ. eigenvalues --   -0.66627  -0.62874  -0.52206  -0.49333  -0.44436
 Alpha  occ. eigenvalues --   -0.42855  -0.38450  -0.25905
 Alpha virt. eigenvalues --    0.11581   0.16640   0.18340   0.26422   0.27905
 Alpha virt. eigenvalues --    0.30052   0.31623   0.32126   0.36202   0.45719
 Alpha virt. eigenvalues --    0.48740

 Mulliken charges:
               1
     1  C   -0.108521
     2  C   -1.881605
     3  O    3.190491
     4  C   -1.910756
     5  C   -0.204067
     6  H    0.175552
     7  H    0.284561
     8  H    0.285875
     9  H    0.168472
 Sum of Mulliken charges =   0.00000

 Dipole moment (field-independent basis, Debye):
    X=              0.0323    Y=            -11.4662    Z=             -1.0609  Tot=             11.5153
 N-N= 1.038591102724D+02 E-N=-1.689539526657D+02  KE=-1.476517648429D+01
 Orbital energies and kinetic energies (alpha):
                                 1                 2
   1         O                -1.712965         -1.197900
   2         O                -1.111803         -0.992498
   3         O                -0.921114         -0.854402
   4         O                -0.797305         -0.600946
   5         O                -0.742578         -0.669355
   6         O                -0.666267         -0.563435
   7         O                -0.628735         -0.518787

 Normal termination of Gaussian 09 at Tue Dec 15 17:05:49 2015.
