 Gaussian 09, Revision D.01,
 Gaussian 09:  ES64L-G09RevD.01 24-Apr-2013

 ------------------------------------------------------------
 #P AM1(Input,print) CIS(Singlets,NStates=15) pop(full) force
 ------------------------------------------------------------

 -----------------
 AM1-Reparam Input
 -----------------
 Symbolic Z-matrix:
 Charge =  0 Multiplicity = 1

                         Standard orientation:
 ---------------------------------------------------------------------
 Center     Atomic      Atomic             Coordinates (Angstroms)
 Number     Number       Type             X           Y           Z
 ---------------------------------------------------------------------
      1          6           0       -0.680242    0.948863   -0.013063
      2          6           0       -1.083726   -0.310280    0.007307
      3          8           0       -0.016349   -1.107750    0.006145
      4          6           0        1.040856   -0.382702    0.006055
      5          6           0        0.727086    0.908568   -0.010395
      6          1           0        1.462002    1.801478    0.044368
      7          1           0        2.026513   -0.922641   -0.039495
      8          1           0       -2.094448   -0.811625   -0.032368
      9          1           0       -1.287123    1.808097    0.038915
 ---------------------------------------------------------------------

 SCF Done:  E(RAM1) =   2.86178578076     A.U. after   13 cycles

 Excitation energies and oscillator strengths:

 Excited State   1:      Singlet-A      5.3689 eV  230.93 nm  f=0.3328  <S**2>=0.000
      13 -> 14         0.69446
 This state for optimization and/or second-order correction.
 Total Energy, E(CIS) =   3.05909017359
 Copying the excited state density for this state as the 1-particle RhoCI density.

 Excited State   2:      Singlet-A      6.2357 eV  198.83 nm  f=0.0020  <S**2>=0.000
      10 -> 15         0.10602
      13 -> 15         0.65999
      13 -> 17         0.16423
      13 -> 18        -0.12591

 Excited State   3:      Singlet-A      6.5240 eV  190.04 nm  f=0.0016  <S**2>=0.000
      10 -> 16        -0.11232
      13 -> 16         0.65249
      13 -> 17         0.14487
      13 -> 18         0.10706
      13 -> 19         0.12911

 Excited State   4:      Singlet-A      6.7367 eV  184.04 nm  f=0.0006  <S**2>=0.000
       9 -> 14         0.14066
      12 -> 14         0.68794

 Excited State   5:      Singlet-A      7.6652 eV  161.75 nm  f=0.0174  <S**2>=0.000
      10 -> 14         0.18484
      11 -> 14         0.46215
      13 -> 15         0.12675
      13 -> 17        -0.46141

 Excited State   6:      Singlet-A      7.7842 eV  159.28 nm  f=0.0001  <S**2>=0.000
      13 -> 16        -0.10985
      13 -> 18         0.49483
      13 -> 20        -0.27420
      13 -> 21         0.36972

 Excited State   7:      Singlet-A      7.8273 eV  158.40 nm  f=0.0021  <S**2>=0.000
      10 -> 14         0.17460
      11 -> 14         0.45591
      13 -> 17         0.47750

 Excited State   8:      Singlet-A      8.5135 eV  145.63 nm  f=0.0014  <S**2>=0.000
      13 -> 16        -0.12040
      13 -> 18         0.14208
      13 -> 19         0.63560
      13 -> 20         0.16570
      13 -> 21        -0.12222

 Excited State   9:      Singlet-A      8.7059 eV  142.41 nm  f=0.0640  <S**2>=0.000
      10 -> 14         0.60555
      11 -> 14        -0.23433
      12 -> 15        -0.18158
      12 -> 16        -0.12302

 Excited State  10:      Singlet-A      8.9114 eV  139.13 nm  f=0.0259  <S**2>=0.000
      13 -> 18         0.44106
      13 -> 19        -0.25532
      13 -> 20         0.32284
      13 -> 21        -0.34178

 Excited State  11:      Singlet-A      9.0108 eV  137.60 nm  f=0.0720  <S**2>=0.000
       8 -> 15        -0.11221
      10 -> 14         0.10539
      11 -> 17         0.10137
      12 -> 15         0.56735
      12 -> 16        -0.24578
      12 -> 18        -0.18312

 Excited State  12:      Singlet-A      9.3178 eV  133.06 nm  f=0.0414  <S**2>=0.000
       9 -> 15        -0.16965
      10 -> 14         0.17244
      11 -> 15        -0.22346
      11 -> 17        -0.16782
      12 -> 15         0.23134
      12 -> 16         0.43963
      12 -> 17         0.15618
      12 -> 18         0.12286
      12 -> 20        -0.13235

 Excited State  13:      Singlet-A      9.4606 eV  131.05 nm  f=0.0679  <S**2>=0.000
       9 -> 14        -0.10539
      10 -> 15         0.11016
      13 -> 20         0.50771
      13 -> 21         0.42936

 Excited State  14:      Singlet-A      9.4720 eV  130.90 nm  f=0.1146  <S**2>=0.000
       9 -> 15         0.11754
       9 -> 16        -0.14618
      11 -> 15         0.23144
      11 -> 16         0.26804
      11 -> 17         0.26912
      12 -> 16         0.35359
      12 -> 18        -0.17527
      12 -> 19         0.15231
      12 -> 21        -0.11278

 Excited State  15:      Singlet-A      9.6758 eV  128.14 nm  f=0.0019  <S**2>=0.000
       9 -> 14         0.67194
      12 -> 14        -0.13385
      13 -> 21         0.11996

 The electronic state is 1-A.
 Alpha  occ. eigenvalues --   -1.76002  -1.13450  -0.93421  -0.80235  -0.74413
 Alpha  occ. eigenvalues --   -0.66116  -0.65790  -0.54200  -0.48547  -0.43829
 Alpha  occ. eigenvalues --   -0.43185  -0.39709  -0.28943
 Alpha virt. eigenvalues --    0.11663   0.16341   0.17776   0.23996   0.26499
 Alpha virt. eigenvalues --    0.27765   0.29278   0.30731   0.40956   0.49488
 Alpha virt. eigenvalues --    0.54033

 Mulliken charges:
               1
     1  C   -0.116182
     2  C   -1.952387
     3  O    3.211519
     4  C   -1.967847
     5  C   -0.169255
     6  H    0.184360
     7  H    0.320315
     8  H    0.310166
     9  H    0.179309
 Sum of Mulliken charges =   0.00000

 Dipole moment (field-independent basis, Debye):
    X=              0.1207    Y=             -9.7353    Z=             -0.0876  Tot=              9.7365
 N-N= 1.050717556004D+02 E-N=-1.710170740891D+02  KE=-1.484606037485D+01
 Orbital energies and kinetic energies (alpha):
                                 1                 2
   1         O                -1.760025         -1.282484
   2         O                -1.134496         -0.990043
   3         O                -0.934211         -0.842079
   4         O                -0.802352         -0.597403
   5         O                -0.744134         -0.675403
   6         O                -0.661164         -0.539456
   7         O                -0.657900         -0.565810

 Normal termination of Gaussian 09 at Tue Dec 15 17:05:52 2015.
