 Gaussian 09, Revision D.01,
 Gaussian 09:  ES64L-G09RevD.01 24-Apr-2013

 ----------------------------
 #P AM1(Input,print) Opt Freq
 ----------------------------

 -----------------
 AM1-Reparam Input
 -----------------
 Symbolic Z-matrix:
 Charge =  0 Multiplicity = 1

 SCF Done:  E(RAM1) =  -4.53033921351     A.U. after   13 cycles
 SCF Done:  E(RAM1) =  -4.73112613169     A.U. after   10 cycles
 SCF Done:  E(RAM1) =  -4.89378969601     A.U. after   11 cycles
 SCF Done:  E(RAM1) =  -4.93912488191     A.U. after   11 cycles
 SCF Done:  E(RAM1) =  -4.94813117442     A.U. after   10 cycles
 SCF Done:  E(RAM1) =  -4.94875852607     A.U. after   10 cycles
 SCF Done:  E(RAM1) =  -4.94878027128     A.U. after   10 cycles
 SCF Done:  E(RAM1) =  -4.94891998274     A.U. after   10 cycles
 SCF Done:  E(RAM1) =  -4.94892269647     A.U. after    9 cycles
 SCF Done:  E(RAM1) =  -4.94892660406     A.U. after    9 cycles
 Optimization completed.
    -- Stationary point found.
 Normal termination of Gaussian 09 at Fri Dec 11 13:47:14 2015.

 -------------------------------------------------------------
 #P Geom=AllCheck Guess=TCheck SCRF=Check GenChk RAM1/ZDO Freq
 -------------------------------------------------------------

 Structure from the checkpoint file:  "/home/Applications/g09/scratch/Gau-9733.chk"
 -----------------
 AM1-Reparam Input
 -----------------
 Charge =  0 Multiplicity = 1

                         Standard orientation:
 ---------------------------------------------------------------------
 Center     Atomic      Atomic             Coordinates (Angstroms)
 Number     Number       Type             X           Y           Z
 ---------------------------------------------------------------------
      1          6           0       -0.753464    1.099057   -0.000187
      2          6           0       -1.342297   -0.515807   -0.000016
      3          8           0        0.000921   -1.184054    0.000172
      4          6           0        1.343087   -0.514339   -0.000181
      5          6           0        0.751700    1.100376    0.000131
      6          1           0        1.477784    2.004168    0.000142
      7          1           0        2.437045   -0.773091   -0.000143
      8          1           0       -2.435873   -0.776489   -0.000253
      9          1           0       -1.480475    2.002116    0.000397
 ---------------------------------------------------------------------

 SCF Done:  E(RAM1) =  -4.94892660406     A.U. after    2 cycles

 The electronic state is 1-A.
 Alpha  occ. eigenvalues --   -3.05781  -1.09807  -0.89691  -0.88023  -0.82004
 Alpha  occ. eigenvalues --   -0.79847  -0.75719  -0.68966  -0.65253  -0.60718
 Alpha  occ. eigenvalues --   -0.59657  -0.58879  -0.52134
 Alpha virt. eigenvalues --   -0.08009   0.01280   0.05100   0.10516   0.11323
 Alpha virt. eigenvalues --    0.14141   0.14944   0.15192   0.16210   0.21966
 Alpha virt. eigenvalues --    0.31667

 Mulliken charges:
               1
     1  C   -0.495982
     2  C   -2.114055
     3  O    3.203498
     4  C   -2.114361
     5  C   -0.496556
     6  H    0.493886
     7  H    0.514853
     8  H    0.514843
     9  H    0.493874
 Sum of Mulliken charges =   0.00000

 Dipole moment (field-independent basis, Debye):
    X=              0.0026    Y=             -6.2850    Z=              0.0043  Tot=              6.2850
 N-N= 9.745047212340D+01 E-N=-1.581280048198D+02  KE=-2.274123293941D+01
  Exact polarizability:  50.510   0.023  28.828   0.006   0.001   7.527
 Approx polarizability:  43.316   0.022  22.696   0.005   0.001   5.263
 Leave Link  601 at Fri Dec 11 13:47:14 2015, MaxMem=    33554432 cpu:         0.0
 (Enter /home/Applications/g09/g09/l701.exe)
 Compute integral second derivatives.
 ... and contract with generalized density number  0.
 Leave Link  701 at Fri Dec 11 13:47:14 2015, MaxMem=    33554432 cpu:         0.0
 (Enter /home/Applications/g09/g09/l702.exe)
 L702 exits ... SP integral derivatives will be done elsewhere.

                      1                      2                      3
                      A                      A                      A
 Frequencies --    440.1965               494.8515               579.9276
 Red. masses --      2.1456                 2.1349                 8.1337
 Frc consts  --      0.2450                 0.3080                 1.6117
 IR Inten    --    107.9874                 0.0009               159.9106

                      4                      5                      6
                      A                      A                      A
 Frequencies --    708.8666               817.0958               824.9335
 Red. masses --      7.1728                 1.1599                 1.4906
 Frc consts  --      2.1236                 0.4563                 0.5977
 IR Inten    --     34.6637               799.4505                 0.0065

                      7                      8                      9
                      A                      A                      A
 Frequencies --    856.9913               876.1440               906.9877
 Red. masses --      2.1788                 1.3787                 1.5012
 Frc consts  --      0.9428                 0.6236                 0.7276
 IR Inten    --    298.7757                 0.0023                46.6448

                     10                     11                     12
                      A                      A                      A
 Frequencies --    932.8794               966.9260              1025.2608
 Red. masses --      1.8255                 1.0400                 1.3247
 Frc consts  --      0.9360                 0.5729                 0.8204
 IR Inten    --   1168.0862               117.7566                37.0818

                     13                     14                     15
                      A                      A                      A
 Frequencies --   1056.7518              1140.7910              1416.5411
 Red. masses --      1.4821                 2.5644                 7.9558
 Frc consts  --      0.9752                 1.9663                 9.4057
 IR Inten    --      2.0247               855.0726                44.9847

                     16                     17                     18
                      A                      A                      A
 Frequencies --   1558.6039              1562.4851              2867.3497
 Red. masses --      6.8338                 8.9949                 1.0794
 Frc consts  --      9.7810                12.9383                 5.2285
 IR Inten    --   1298.0591               763.7911               742.9056

                     19                     20                     21
                      A                      A                      A
 Frequencies --   2902.2602              3010.3359              3048.5735
 Red. masses --      1.0904                 1.0878                 1.1079
 Frc consts  --      5.4112                 5.8080                 6.0667
 IR Inten    --    918.5228              2250.2166                39.6800

 - Thermochemistry -
 -------------------
 Temperature   298.150 Kelvin.  Pressure   1.00000 Atm.
 Atom     1 has atomic number  6 and mass  12.00000

 Molecular mass:    68.02621 amu.
 Principal axes and moments of inertia in atomic units:
                           1         2         3
     Eigenvalues --   239.36101 261.53176 500.89276
           X            1.00000   0.00079   0.00000
           Y           -0.00079   1.00000   0.00002
           Z            0.00000  -0.00002   1.00000
 This molecule is an asymmetric top.
 Rotational symmetry number  1.
 Rotational temperatures (Kelvin)      0.36185     0.33118     0.17292
 Rotational constants (GHZ):           7.53983     6.90066     3.60305
 Zero-point vibrational energy     167445.8 (Joules/Mol)
                                   40.02051 (Kcal/Mol)
 Warning -- explicit consideration of   3 degrees of freedom as
           vibrations may cause significant error
 Vibrational temperatures:    633.34   711.98   834.39  1019.90  1175.62
          (Kelvin)           1186.89  1233.02  1260.57  1304.95  1342.20
                             1391.19  1475.12  1520.43  1641.34  2038.08
                             2242.48  2248.06  4125.47  4175.70  4331.20
                             4386.21

 Zero-point correction=                           0.063777 (Hartree/Particle)
 Thermal correction to Energy=                    0.067899
 Thermal correction to Enthalpy=                  0.068843
 Thermal correction to Gibbs Free Energy=         0.036955
 Sum of electronic and zero-point Energies=             -4.885150
 Sum of electronic and thermal Energies=                -4.881028
 Sum of electronic and thermal Enthalpies=              -4.880084
 Sum of electronic and thermal Free Energies=           -4.911972

                     E (Thermal)             CV                S
                      KCal/Mol        Cal/Mol-Kelvin    Cal/Mol-Kelvin
 Total                   42.607             15.321             67.114
 Electronic               0.000              0.000              0.000
 Translational            0.889              2.981             38.570
 Rotational               0.889              2.981             24.953
 Vibrational             40.830              9.360              3.591
 Vibration     1          0.800              1.383              0.826
 Vibration     2          0.850              1.261              0.671
 Vibration     3          0.937              1.075              0.485

 Optimization completed.
    -- Stationary point found.
 Normal termination of Gaussian 09 at Fri Dec 11 13:47:14 2015.
