 Gaussian 09, Revision D.01,
 Gaussian 09:  ES64L-G09RevD.01 24-Apr-2013

 ------------------------------------------------------------
 #P AM1(Input,print) CIS(Singlets,NStates=15) pop(full) force
 ------------------------------------------------------------

 -----------------
 AM1-Reparam Input
 -----------------
 Symbolic Z-matrix:
 Charge =  0 Multiplicity = 1

                         Standard orientation:
 ---------------------------------------------------------------------
 Center     Atomic      Atomic             Coordinates (Angstroms)
 Number     Number       Type             X           Y           Z
 ---------------------------------------------------------------------
      1          6           0       -0.970438    0.756641   -0.000216
      2          6           0       -0.964119   -0.659446    0.018662
      3          8           0        0.356775   -1.098251   -0.032885
      4          6           0        1.120594   -0.024233    0.048534
      5          6           0        0.427731    1.087000   -0.030332
      6          1           0        0.845592    2.120693   -0.014245
      7          1           0        2.155566   -0.269430    0.017029
      8          1           0       -1.711403   -1.383731    0.010699
      9          1           0       -1.826562    1.358707    0.029712
 ---------------------------------------------------------------------

 SCF Done:  E(RAM1) =   1.80996932424     A.U. after   14 cycles

 Excitation energies and oscillator strengths:

 Excited State   1:      Singlet-A      5.4685 eV  226.72 nm  f=0.3483  <S**2>=0.000
      13 -> 14         0.69195
 This state for optimization and/or second-order correction.
 Total Energy, E(CIS) =   2.01093380707
 Copying the excited state density for this state as the 1-particle RhoCI density.

 Excited State   2:      Singlet-A      6.5195 eV  190.17 nm  f=0.0034  <S**2>=0.000
      13 -> 15         0.67683
      13 -> 18        -0.11201

 Excited State   3:      Singlet-A      7.0637 eV  175.52 nm  f=0.0049  <S**2>=0.000
      13 -> 16         0.66757
      13 -> 17        -0.11254
      13 -> 19         0.12522

 Excited State   4:      Singlet-A      7.4960 eV  165.40 nm  f=0.0005  <S**2>=0.000
      12 -> 14         0.69817

 Excited State   5:      Singlet-A      8.2704 eV  149.91 nm  f=0.0002  <S**2>=0.000
      10 -> 14        -0.13768
      13 -> 16        -0.12032
      13 -> 17        -0.29747
      13 -> 18         0.54756
      13 -> 21         0.23531

 Excited State   6:      Singlet-A      8.3382 eV  148.69 nm  f=0.0074  <S**2>=0.000
      10 -> 14         0.66502
      11 -> 14        -0.15297
      13 -> 18         0.15189

 Excited State   7:      Singlet-A      8.9353 eV  138.76 nm  f=0.0112  <S**2>=0.000
      11 -> 14         0.16984
      11 -> 15         0.10076
      13 -> 15         0.11553
      13 -> 17         0.57078
      13 -> 18         0.28654
      13 -> 19         0.13942

 Excited State   8:      Singlet-A      9.0016 eV  137.74 nm  f=0.1033  <S**2>=0.000
      10 -> 14         0.16401
      11 -> 14         0.64477
      13 -> 17        -0.13212

 Excited State   9:      Singlet-A      9.7022 eV  127.79 nm  f=0.0023  <S**2>=0.000
      11 -> 16         0.21543
      13 -> 17        -0.10254
      13 -> 19         0.63884

 Excited State  10:      Singlet-A      9.8022 eV  126.49 nm  f=0.0464  <S**2>=0.000
       8 -> 15        -0.11903
      10 -> 15         0.18038
      10 -> 16         0.12206
      10 -> 17        -0.13798
      10 -> 18        -0.13428
      12 -> 15         0.34923
      12 -> 16        -0.29118
      12 -> 17         0.19770
      12 -> 18        -0.27372

 Excited State  11:      Singlet-A      9.8914 eV  125.35 nm  f=0.1408  <S**2>=0.000
       9 -> 15        -0.11811
      10 -> 15        -0.20937
      10 -> 18         0.11179
      12 -> 15         0.56586
      12 -> 16         0.12889
      12 -> 17        -0.20795

 Excited State  12:      Singlet-A     10.3267 eV  120.06 nm  f=0.0018  <S**2>=0.000
       7 -> 15        -0.10070
      11 -> 15         0.52339
      11 -> 16         0.14313
      13 -> 15        -0.11995
      13 -> 18        -0.18104
      13 -> 19        -0.10172
      13 -> 20        -0.12727
      13 -> 21         0.30410

 Excited State  13:      Singlet-A     10.3496 eV  119.80 nm  f=0.0223  <S**2>=0.000
      11 -> 15        -0.34885
      13 -> 18        -0.14899
      13 -> 20        -0.32544
      13 -> 21         0.46187

 Excited State  14:      Singlet-A     10.6088 eV  116.87 nm  f=0.0671  <S**2>=0.000
      11 -> 16        -0.27723
      13 -> 20         0.53028
      13 -> 21         0.34388

 Excited State  15:      Singlet-A     10.7821 eV  114.99 nm  f=0.1209  <S**2>=0.000
      10 -> 16         0.39182
      10 -> 19         0.12915
      11 -> 16        -0.29977
      12 -> 16         0.33524
      12 -> 18        -0.10352
      13 -> 20        -0.20054

 The electronic state is 1-A.
 Alpha  occ. eigenvalues --   -2.00292  -1.26982  -1.01337  -0.90156  -0.84844
 Alpha  occ. eigenvalues --   -0.77055  -0.74832  -0.63587  -0.62071  -0.52696
 Alpha  occ. eigenvalues --   -0.51973  -0.49894  -0.37051
 Alpha virt. eigenvalues --    0.04074   0.09845   0.13045   0.19409   0.20512
 Alpha virt. eigenvalues --    0.22795   0.25404   0.26644   0.29303   0.37329
 Alpha virt. eigenvalues --    0.42430

 Mulliken charges:
               1
     1  C   -0.073375
     2  C   -1.901777
     3  O    3.167774
     4  C   -1.867696
     5  C   -0.175194
     6  H    0.164224
     7  H    0.277745
     8  H    0.266685
     9  H    0.141613
 Sum of Mulliken charges =   0.00000

 Dipole moment (field-independent basis, Debye):
    X=              3.8859    Y=             -9.8226    Z=             -0.9113  Tot=             10.6026
 N-N= 1.057020864529D+02 E-N=-1.706555539009D+02  KE=-1.567330596618D+01
 Orbital energies and kinetic energies (alpha):
                                 1                 2
   1         O                -2.002915         -1.383382
   2         O                -1.269817         -1.045882
   3         O                -1.013371         -0.874024
   4         O                -0.901559         -0.603997
   5         O                -0.848437         -0.700700
   6         O                -0.770548         -0.603246
   7         O                -0.748317         -0.545158

 Normal termination of Gaussian 09 at Tue Dec 15 17:08:55 2015.
