 Gaussian 09, Revision D.01,
 Gaussian 09:  ES64L-G09RevD.01 24-Apr-2013

 ------------------------------------------------------------
 #P AM1(Input,print) CIS(Singlets,NStates=15) pop(full) force
 ------------------------------------------------------------

 -----------------
 AM1-Reparam Input
 -----------------
 Symbolic Z-matrix:
 Charge =  0 Multiplicity = 1

                         Standard orientation:
 ---------------------------------------------------------------------
 Center     Atomic      Atomic             Coordinates (Angstroms)
 Number     Number       Type             X           Y           Z
 ---------------------------------------------------------------------
      1          6           0       -0.695082    0.999306   -0.007815
      2          6           0       -1.097835   -0.365665    0.016671
      3          8           0       -0.007775   -1.141947    0.000639
      4          6           0        1.078678   -0.372664   -0.009648
      5          6           0        0.747365    0.946265   -0.004641
      6          1           0        1.357938    1.753186    0.037363
      7          1           0        1.990748   -0.858447    0.020310
      8          1           0       -2.098460   -0.798087   -0.038623
      9          1           0       -1.386778    1.795466    0.008438
 ---------------------------------------------------------------------

 SCF Done:  E(RAM1) =   2.59362129795     A.U. after   13 cycles

 Excitation energies and oscillator strengths:

 Excited State   1:      Singlet-A      5.1473 eV  240.87 nm  f=0.3647  <S**2>=0.000
      13 -> 14         0.69868
 This state for optimization and/or second-order correction.
 Total Energy, E(CIS) =   2.78278174360
 Copying the excited state density for this state as the 1-particle RhoCI density.

 Excited State   2:      Singlet-A      6.4288 eV  192.86 nm  f=0.0002  <S**2>=0.000
      13 -> 15         0.66133
      13 -> 17         0.16027
      13 -> 19        -0.11699

 Excited State   3:      Singlet-A      6.6325 eV  186.93 nm  f=0.0041  <S**2>=0.000
      12 -> 14         0.49964
      13 -> 16        -0.46662

 Excited State   4:      Singlet-A      6.6549 eV  186.31 nm  f=0.0028  <S**2>=0.000
      12 -> 14         0.48491
      13 -> 16         0.49140

 Excited State   5:      Singlet-A      7.4392 eV  166.66 nm  f=0.0044  <S**2>=0.000
      10 -> 14         0.68698
      11 -> 14        -0.12562

 Excited State   6:      Singlet-A      8.0430 eV  154.15 nm  f=0.0001  <S**2>=0.000
      11 -> 16         0.10532
      13 -> 15        -0.13708
      13 -> 17         0.66618
      13 -> 21        -0.12199

 Excited State   7:      Singlet-A      8.3110 eV  149.18 nm  f=0.1300  <S**2>=0.000
      10 -> 14         0.12543
      11 -> 14         0.68959

 Excited State   8:      Singlet-A      9.4195 eV  131.62 nm  f=0.0067  <S**2>=0.000
       7 -> 16         0.11113
      11 -> 15         0.43037
      11 -> 16         0.11141
      13 -> 18         0.50438

 Excited State   9:      Singlet-A      9.4846 eV  130.72 nm  f=0.0225  <S**2>=0.000
       8 -> 16         0.11583
       9 -> 15         0.13486
      10 -> 16        -0.28868
      10 -> 18        -0.16945
      12 -> 15         0.43053
      12 -> 17         0.32665

 Excited State  10:      Singlet-A      9.6492 eV  128.49 nm  f=0.0075  <S**2>=0.000
       7 -> 15        -0.11024
      11 -> 16        -0.40551
      13 -> 19         0.53038

 Excited State  11:      Singlet-A      9.9149 eV  125.05 nm  f=0.2842  <S**2>=0.000
      10 -> 16         0.37683
      10 -> 18         0.11625
      12 -> 15         0.38860
      12 -> 16        -0.33451
      12 -> 17        -0.11491
      12 -> 19        -0.13531
      13 -> 19        -0.10362

 Excited State  12:      Singlet-A      9.9862 eV  124.16 nm  f=0.0432  <S**2>=0.000
      10 -> 15         0.43952
      10 -> 19        -0.11740
      12 -> 15         0.22395
      12 -> 16         0.43010
      12 -> 18         0.12615

 Excited State  13:      Singlet-A     10.2256 eV  121.25 nm  f=0.0007  <S**2>=0.000
       9 -> 14         0.28980
      11 -> 15         0.22318
      11 -> 16         0.38632
      13 -> 15         0.16162
      13 -> 18        -0.26477
      13 -> 19         0.28493

 Excited State  14:      Singlet-A     10.3690 eV  119.57 nm  f=0.0004  <S**2>=0.000
       9 -> 14         0.41813
      11 -> 15        -0.38635
      13 -> 16        -0.11799
      13 -> 18         0.33532

 Excited State  15:      Singlet-A     10.4404 eV  118.75 nm  f=0.0012  <S**2>=0.000
       9 -> 14         0.46357
      11 -> 15         0.21009
      11 -> 16        -0.31105
      13 -> 18        -0.13207
      13 -> 19        -0.29649

 The electronic state is 1-A.
 Alpha  occ. eigenvalues --   -1.85474  -1.12109  -0.88394  -0.80594  -0.74615
 Alpha  occ. eigenvalues --   -0.67618  -0.63771  -0.56861  -0.55149  -0.46298
 Alpha  occ. eigenvalues --   -0.45336  -0.44125  -0.31437
 Alpha virt. eigenvalues --    0.07463   0.16305   0.16670   0.24820   0.27503
 Alpha virt. eigenvalues --    0.28834   0.34741   0.38828   0.50059   0.57200
 Alpha virt. eigenvalues --    0.62055

 Mulliken charges:
               1
     1  C   -0.164805
     2  C   -2.038083
     3  O    3.429790
     4  C   -2.004627
     5  C   -0.158573
     6  H    0.184734
     7  H    0.274876
     8  H    0.290016
     9  H    0.186673
 Sum of Mulliken charges =   0.00000

 Dipole moment (field-independent basis, Debye):
    X=             -0.0815    Y=            -10.6144    Z=             -0.0443  Tot=             10.6148
 N-N= 1.041503075884D+02 E-N=-1.697046350361D+02  KE=-1.437310691698D+01
 Orbital energies and kinetic energies (alpha):
                                 1                 2
   1         O                -1.854736         -1.266744
   2         O                -1.121089         -0.961903
   3         O                -0.883942         -0.782059
   4         O                -0.805937         -0.549839
   5         O                -0.746152         -0.622715
   6         O                -0.676180         -0.555943
   7         O                -0.637714         -0.490324

 Normal termination of Gaussian 09 at Tue Dec 15 17:07:48 2015.
