 Gaussian 09, Revision D.01,
 Gaussian 09:  ES64L-G09RevD.01 24-Apr-2013

 -------------------------------------------------------
 #P B3LYP/3-21G CIS(Singlets,NStates=15) pop(full) force
 -------------------------------------------------------

 --------
 FuranDFT
 --------
 Symbolic Z-matrix:
 Charge =  0 Multiplicity = 1

                         Standard orientation:
 ---------------------------------------------------------------------
 Center     Atomic      Atomic             Coordinates (Angstroms)
 Number     Number       Type             X           Y           Z
 ---------------------------------------------------------------------
      1          6           0        0.804052    0.840071    0.001280
      2          6           0        1.027364   -0.520018   -0.011118
      3          8           0       -0.188200   -1.107461    0.028342
      4          6           0       -1.102251   -0.202701   -0.025629
      5          6           0       -0.527351    1.054121   -0.014606
      6          1           0       -1.063821    1.971322    0.073959
      7          1           0       -2.176746   -0.569906    0.004219
      8          1           0        1.924076   -1.135306   -0.049914
      9          1           0        1.611208    1.564739    0.045441
 ---------------------------------------------------------------------

 SCF Done:  E(RB3LYP) =  -228.731689553     A.U. after   14 cycles

 Excitation energies and oscillator strengths:

 Excited State   1:      Singlet-A      7.2556 eV  170.88 nm  f=0.2346  <S**2>=0.000
      17 -> 19         0.17584
      18 -> 19         0.64051
      18 -> 20         0.16392
 This state for optimization and/or second-order correction.
 Total Energy, E(CIS) =  -228.465050612
 Copying the excited state density for this state as the 1-particle RhoCI density.

 Excited State   2:      Singlet-A      7.4113 eV  167.29 nm  f=0.0328  <S**2>=0.000
      17 -> 19         0.46449
      18 -> 19        -0.23469
      18 -> 20         0.46776

 Excited State   3:      Singlet-A      8.3746 eV  148.05 nm  f=0.0015  <S**2>=0.000
      18 -> 21         0.69402

 Excited State   4:      Singlet-A      8.7520 eV  141.66 nm  f=0.0087  <S**2>=0.000
      16 -> 19         0.69334

 Excited State   5:      Singlet-A      9.0491 eV  137.01 nm  f=0.0008  <S**2>=0.000
      18 -> 22         0.68642

 Excited State   6:      Singlet-A      9.4653 eV  130.99 nm  f=0.0020  <S**2>=0.000
      18 -> 23         0.68138

 Excited State   7:      Singlet-A      9.7170 eV  127.60 nm  f=0.5295  <S**2>=0.000
      17 -> 19        -0.45138
      18 -> 20         0.45919

 Excited State   8:      Singlet-A     10.0089 eV  123.87 nm  f=0.0130  <S**2>=0.000
      15 -> 19         0.45557
      16 -> 20         0.13448
      17 -> 21         0.48668

 Excited State   9:      Singlet-A     10.0276 eV  123.64 nm  f=0.0053  <S**2>=0.000
      15 -> 19         0.47727
      16 -> 20         0.15029
      17 -> 21        -0.47280

 Excited State  10:      Singlet-A     10.2612 eV  120.83 nm  f=0.2215  <S**2>=0.000
      15 -> 19        -0.14673
      17 -> 20         0.65967

 Excited State  11:      Singlet-A     10.4004 eV  119.21 nm  f=0.0126  <S**2>=0.000
      17 -> 21        -0.10773
      18 -> 24         0.68465

 Excited State  12:      Singlet-A     10.5765 eV  117.23 nm  f=0.0112  <S**2>=0.000
      14 -> 19         0.67852
      17 -> 22        -0.11191

 Excited State  13:      Singlet-A     10.7511 eV  115.32 nm  f=0.0128  <S**2>=0.000
      14 -> 19         0.10344
      17 -> 22         0.65885
      18 -> 25        -0.16495

 Excited State  14:      Singlet-A     10.8139 eV  114.65 nm  f=0.0075  <S**2>=0.000
      15 -> 19        -0.15095
      16 -> 20         0.59693
      17 -> 22        -0.11914
      18 -> 25        -0.26892

 Excited State  15:      Singlet-A     10.8474 eV  114.30 nm  f=0.0067  <S**2>=0.000
      16 -> 20         0.27258
      17 -> 22         0.13023
      18 -> 25         0.61798

 The electronic state is 1-A.
 Alpha  occ. eigenvalues --  -19.12286 -10.17902 -10.17233 -10.11942 -10.11487
 Alpha  occ. eigenvalues --   -1.16377  -0.81559  -0.75638  -0.60573  -0.56663
 Alpha  occ. eigenvalues --   -0.54856  -0.46915  -0.44896  -0.41922  -0.40177
 Alpha  occ. eigenvalues --   -0.35815  -0.28643  -0.22368
 Alpha virt. eigenvalues --    0.02327   0.09021   0.12598   0.15465   0.16831
 Alpha virt. eigenvalues --    0.19752   0.22492   0.26392   0.34847   0.42044
 Alpha virt. eigenvalues --    0.51234   0.69047   0.69729   0.73444   0.74783

 Mulliken charges:
               1
     1  C   -0.252078
     2  C    0.078151
     3  O   -0.498065
     4  C    0.135777
     5  C   -0.261523
     6  H    0.185330
     7  H    0.208904
     8  H    0.216990
     9  H    0.186513
 Sum of Mulliken charges =   0.00000

 Dipole moment (field-independent basis, Debye):
    X=              0.1092    Y=              0.4769    Z=              0.0605  Tot=              0.4930
 Quadrupole moment (field-independent basis, Debye-Ang):
   XX=            -23.8618   YY=            -28.0325   ZZ=            -31.7042
   XY=             -0.6081   XZ=             -0.1644   YZ=              0.3552

 Normal termination of Gaussian 09 at Tue Dec 15 16:15:31 2015.
