 Gaussian 09, Revision D.01,
 Gaussian 09:  ES64L-G09RevD.01 24-Apr-2013

 ------------------------------------------------------------
 #P AM1(Input,print) CIS(Singlets,NStates=15) pop(full) force
 ------------------------------------------------------------

 -----------------
 AM1-Reparam Input
 -----------------
 Symbolic Z-matrix:
 Charge =  0 Multiplicity = 1

                         Standard orientation:
 ---------------------------------------------------------------------
 Center     Atomic      Atomic             Coordinates (Angstroms)
 Number     Number       Type             X           Y           Z
 ---------------------------------------------------------------------
      1          6           0       -0.975310    0.715668   -0.009273
      2          6           0       -0.928919   -0.602198   -0.018064
      3          8           0        0.318882   -1.148367    0.018147
      4          6           0        1.166129   -0.012823   -0.013168
      5          6           0        0.405930    1.103118    0.015270
      6          1           0        0.802026    2.164230   -0.016746
      7          1           0        2.195371   -0.198491   -0.022500
      8          1           0       -1.727105   -1.367089   -0.003242
      9          1           0       -1.828327    1.365698    0.048715
 ---------------------------------------------------------------------

 SCF Done:  E(RAM1) =  -4.65702044635     A.U. after   14 cycles

 Excitation energies and oscillator strengths:

 Excited State   1:      Singlet-A      6.6208 eV  187.26 nm  f=0.3478  <S**2>=0.000
      13 -> 14         0.69300
 This state for optimization and/or second-order correction.
 Total Energy, E(CIS) =  -4.41371007168
 Copying the excited state density for this state as the 1-particle RhoCI density.

 Excited State   2:      Singlet-A      7.3248 eV  169.27 nm  f=0.0002  <S**2>=0.000
      12 -> 14         0.69989

 Excited State   3:      Singlet-A      7.5262 eV  164.74 nm  f=0.0003  <S**2>=0.000
      10 -> 15         0.10173
      13 -> 15         0.68841

 Excited State   4:      Singlet-A      8.2851 eV  149.65 nm  f=0.0034  <S**2>=0.000
      11 -> 14         0.67651
      13 -> 16         0.16616

 Excited State   5:      Singlet-A      8.4476 eV  146.77 nm  f=0.0015  <S**2>=0.000
      11 -> 14        -0.17408
      13 -> 16         0.66327

 Excited State   6:      Singlet-A      9.2901 eV  133.46 nm  f=0.0493  <S**2>=0.000
      10 -> 14        -0.34664
      13 -> 17         0.59775

 Excited State   7:      Singlet-A     10.0114 eV  123.84 nm  f=0.0003  <S**2>=0.000
      13 -> 18         0.66437
      13 -> 19        -0.17056

 Excited State   8:      Singlet-A     10.0745 eV  123.07 nm  f=0.1527  <S**2>=0.000
       9 -> 15         0.27304
       9 -> 16         0.10278
      11 -> 16        -0.10309
      11 -> 19         0.10548
      12 -> 15         0.57476
      13 -> 17        -0.14298

 Excited State   9:      Singlet-A     10.4506 eV  118.64 nm  f=0.0046  <S**2>=0.000
      10 -> 15         0.14735
      10 -> 16        -0.12163
      13 -> 18         0.13795
      13 -> 19         0.64419

 Excited State  10:      Singlet-A     10.5317 eV  117.72 nm  f=0.0948  <S**2>=0.000
       9 -> 14         0.10183
      10 -> 14         0.50405
      12 -> 15         0.11483
      12 -> 18        -0.26824
      13 -> 17         0.30579

 Excited State  11:      Singlet-A     10.8562 eV  114.21 nm  f=0.1208  <S**2>=0.000
       9 -> 14         0.48210
      10 -> 15         0.11637
      11 -> 16         0.11974
      12 -> 18         0.28094
      13 -> 20        -0.31938

 Excited State  12:      Singlet-A     10.9554 eV  113.17 nm  f=0.3928  <S**2>=0.000
       9 -> 14        -0.17828
       9 -> 15         0.10513
      10 -> 14         0.22158
      11 -> 16         0.19362
      11 -> 18        -0.14413
      11 -> 19        -0.12427
      12 -> 16        -0.14553
      12 -> 18         0.37381
      12 -> 19        -0.12716
      13 -> 20         0.33354

 Excited State  13:      Singlet-A     11.0838 eV  111.86 nm  f=0.0479  <S**2>=0.000
       9 -> 14         0.42452
      10 -> 15        -0.11163
      11 -> 15        -0.11172
      13 -> 18         0.11386
      13 -> 20         0.46214

 Excited State  14:      Singlet-A     11.1218 eV  111.48 nm  f=0.0287  <S**2>=0.000
       9 -> 15        -0.11724
      11 -> 15         0.53408
      11 -> 19        -0.12358
      12 -> 15         0.11053
      12 -> 16         0.31571
      12 -> 19        -0.11775
      13 -> 20         0.11620

 Excited State  15:      Singlet-A     11.2988 eV  109.73 nm  f=0.0692  <S**2>=0.000
       9 -> 15         0.21421
      10 -> 14         0.12741
      11 -> 15        -0.23421
      11 -> 16        -0.11821
      12 -> 16         0.55324

 The electronic state is 1-A.
 Alpha  occ. eigenvalues --   -3.73785  -1.11948  -0.79720  -0.77424  -0.74623
 Alpha  occ. eigenvalues --   -0.72744  -0.62684  -0.47096  -0.43550  -0.39980
 Alpha  occ. eigenvalues --   -0.37027  -0.33605  -0.24101
 Alpha virt. eigenvalues --    0.21675   0.27188   0.31035   0.34783   0.37387
 Alpha virt. eigenvalues --    0.39039   0.42138   0.48628   0.54416   0.57543
 Alpha virt. eigenvalues --    0.59136

 Mulliken charges:
               1
     1  C   -0.258181
     2  C   -1.381679
     3  O    2.775320
     4  C   -1.421073
     5  C   -0.196694
     6  H    0.097536
     7  H    0.142798
     8  H    0.131865
     9  H    0.110108
 Sum of Mulliken charges =   0.00000

 Dipole moment (field-independent basis, Debye):
    X=              2.6953    Y=            -11.1361    Z=              0.4203  Tot=             11.4654
 N-N= 1.019098350872D+02 E-N=-1.694382359879D+02  KE=-2.212974421118D+01
 Orbital energies and kinetic energies (alpha):
                                 1                 2
   1         O                -3.737847         -3.102744
   2         O                -1.119480         -1.180330
   3         O                -0.797200         -0.848173
   4         O                -0.774243         -0.879971
   5         O                -0.746227         -0.764499
   6         O                -0.727445         -0.800835
   7         O                -0.626844         -0.694799

 Normal termination of Gaussian 09 at Fri Dec 11 13:41:38 2015.
