 Gaussian 09, Revision D.01,
 Gaussian 09:  ES64L-G09RevD.01 24-Apr-2013

 ------------------------------------------------------------
 #P AM1(Input,print) CIS(Singlets,NStates=15) pop(full) force
 ------------------------------------------------------------

 -----------------
 AM1-Reparam Input
 -----------------
 Symbolic Z-matrix:
 Charge =  0 Multiplicity = 1

                         Standard orientation:
 ---------------------------------------------------------------------
 Center     Atomic      Atomic             Coordinates (Angstroms)
 Number     Number       Type             X           Y           Z
 ---------------------------------------------------------------------
      1          6           0        0.269649    1.157506   -0.027083
      2          6           0        1.157473    0.128801    0.036511
      3          8           0        0.480125   -1.103581   -0.017696
      4          6           0       -0.879646   -0.711124    0.014942
      5          6           0       -1.066506    0.611417   -0.011165
      6          1           0       -1.941303    1.097651    0.039832
      7          1           0       -1.572960   -1.579756    0.011849
      8          1           0        2.206221    0.002054   -0.027439
      9          1           0        0.581217    2.189097    0.038100
 ---------------------------------------------------------------------

 SCF Done:  E(RAM1) =   1.87675301606     A.U. after   14 cycles

 Excitation energies and oscillator strengths:

 Excited State   1:      Singlet-A      5.5330 eV  224.08 nm  f=0.3212  <S**2>=0.000
      13 -> 14         0.68990
 This state for optimization and/or second-order correction.
 Total Energy, E(CIS) =   2.08008595446
 Copying the excited state density for this state as the 1-particle RhoCI density.

 Excited State   2:      Singlet-A      6.1728 eV  200.86 nm  f=0.0002  <S**2>=0.000
      10 -> 15         0.11860
      13 -> 15         0.67709

 Excited State   3:      Singlet-A      6.4713 eV  191.59 nm  f=0.0009  <S**2>=0.000
      10 -> 16        -0.11541
      13 -> 16         0.66680
      13 -> 17        -0.14092
      13 -> 18        -0.10128

 Excited State   4:      Singlet-A      6.7470 eV  183.76 nm  f=0.0021  <S**2>=0.000
      12 -> 14         0.69964

 Excited State   5:      Singlet-A      7.7838 eV  159.28 nm  f=0.0102  <S**2>=0.000
      10 -> 14        -0.11370
      11 -> 14         0.65250
      13 -> 17         0.22030

 Excited State   6:      Singlet-A      7.9939 eV  155.10 nm  f=0.0064  <S**2>=0.000
      11 -> 14        -0.21865
      13 -> 17         0.54975
      13 -> 18        -0.30158
      13 -> 22        -0.16045

 Excited State   7:      Singlet-A      8.2064 eV  151.08 nm  f=0.0050  <S**2>=0.000
      10 -> 16        -0.11478
      13 -> 16         0.13678
      13 -> 17         0.33070
      13 -> 18         0.53611
      13 -> 22         0.21814

 Excited State   8:      Singlet-A      8.7915 eV  141.03 nm  f=0.0620  <S**2>=0.000
       8 -> 15        -0.12895
       9 -> 15        -0.13167
      10 -> 14        -0.41120
      11 -> 17        -0.10930
      12 -> 15         0.44550
      12 -> 18         0.13152
      13 -> 20        -0.13481

 Excited State   9:      Singlet-A      8.8832 eV  139.57 nm  f=0.0029  <S**2>=0.000
      13 -> 18        -0.10033
      13 -> 19         0.67846

 Excited State  10:      Singlet-A      8.9442 eV  138.62 nm  f=0.0372  <S**2>=0.000
       8 -> 16        -0.14814
      10 -> 14         0.44135
      11 -> 17        -0.11957
      12 -> 15         0.26624
      12 -> 16        -0.28888
      12 -> 17        -0.11711
      12 -> 18         0.19508
      13 -> 20         0.12076

 Excited State  11:      Singlet-A      9.4773 eV  130.82 nm  f=0.0874  <S**2>=0.000
       9 -> 16         0.13108
      10 -> 14         0.10605
      11 -> 16         0.28037
      11 -> 17        -0.12519
      12 -> 16         0.52624
      12 -> 17        -0.23539

 Excited State  12:      Singlet-A      9.5624 eV  129.66 nm  f=0.1724  <S**2>=0.000
       8 -> 15        -0.13483
      10 -> 14         0.19141
      11 -> 15        -0.23613
      11 -> 16        -0.16535
      11 -> 17         0.20942
      12 -> 15         0.35479
      12 -> 16         0.18924
      12 -> 17         0.11607
      12 -> 18        -0.25358
      13 -> 21         0.10624

 Excited State  13:      Singlet-A      9.6366 eV  128.66 nm  f=0.0287  <S**2>=0.000
      10 -> 15        -0.16757
      11 -> 15        -0.13327
      13 -> 18        -0.26457
      13 -> 20        -0.11757
      13 -> 21        -0.37474
      13 -> 22         0.43252

 Excited State  14:      Singlet-A      9.8484 eV  125.89 nm  f=0.0601  <S**2>=0.000
       9 -> 15        -0.23464
      10 -> 14         0.16637
      10 -> 15         0.12184
      11 -> 15         0.48649
      11 -> 19         0.18845
      12 -> 16         0.13528
      12 -> 17         0.18261
      13 -> 20        -0.12307

 Excited State  15:      Singlet-A      9.9066 eV  125.15 nm  f=0.0591  <S**2>=0.000
      10 -> 16        -0.26822
      13 -> 18        -0.11975
      13 -> 20         0.26399
      13 -> 21         0.41614
      13 -> 22         0.37426

 The electronic state is 1-A.
 Alpha  occ. eigenvalues --   -1.92021  -1.21148  -0.96778  -0.80703  -0.80349
 Alpha  occ. eigenvalues --   -0.67078  -0.66663  -0.50171  -0.49046  -0.41211
 Alpha  occ. eigenvalues --   -0.40340  -0.36789  -0.26027
 Alpha virt. eigenvalues --    0.15000   0.19123   0.20295   0.28067   0.30313
 Alpha virt. eigenvalues --    0.31912   0.32941   0.34299   0.36525   0.42829
 Alpha virt. eigenvalues --    0.45973

 Mulliken charges:
               1
     1  C   -0.117607
     2  C   -1.874543
     3  O    3.102422
     4  C   -1.870520
     5  C   -0.094264
     6  H    0.148211
     7  H    0.280721
     8  H    0.278032
     9  H    0.147548
 Sum of Mulliken charges =   0.00000

 Dipole moment (field-independent basis, Debye):
    X=              4.3566    Y=            -10.7731    Z=             -0.6199  Tot=             11.6371
 N-N= 1.035797091175D+02 E-N=-1.688206079016D+02  KE=-1.561883326032D+01
 Orbital energies and kinetic energies (alpha):
                                 1                 2
   1         O                -1.920206         -1.365785
   2         O                -1.211477         -1.095727
   3         O                -0.967785         -0.915500
   4         O                -0.807025         -0.668931
   5         O                -0.803487         -0.642944
   6         O                -0.670777         -0.569578
   7         O                -0.666635         -0.585270

 Normal termination of Gaussian 09 at Tue Dec 15 17:09:59 2015.
