 Gaussian 09, Revision D.01,
 Gaussian 09:  ES64L-G09RevD.01 24-Apr-2013

 ------------------------------------------------------------
 #P AM1(Input,print) CIS(Singlets,NStates=15) pop(full) force
 ------------------------------------------------------------

 -----------------
 AM1-Reparam Input
 -----------------
 Symbolic Z-matrix:
 Charge =  0 Multiplicity = 1

                         Standard orientation:
 ---------------------------------------------------------------------
 Center     Atomic      Atomic             Coordinates (Angstroms)
 Number     Number       Type             X           Y           Z
 ---------------------------------------------------------------------
      1          6           0        0.906798    0.776835   -0.013504
      2          6           0        1.034385   -0.574751    0.020855
      3          8           0       -0.305036   -1.109669   -0.002194
      4          6           0       -1.147473   -0.105361   -0.002074
      5          6           0       -0.458687    1.060529   -0.015200
      6          1           0       -0.909003    2.133576    0.071905
      7          1           0       -2.221451   -0.316488    0.014679
      8          1           0        1.834847   -1.276483   -0.028184
      9          1           0        1.725766    1.393239    0.018693
 ---------------------------------------------------------------------

 SCF Done:  E(RAM1) =  -5.71558928738     A.U. after   13 cycles

 Excitation energies and oscillator strengths:

 Excited State   1:      Singlet-A      6.7167 eV  184.59 nm  f=0.1488  <S**2>=0.000
      13 -> 14         0.48185
      13 -> 15         0.50120
 This state for optimization and/or second-order correction.
 Total Energy, E(CIS) =  -5.46875622286
 Copying the excited state density for this state as the 1-particle RhoCI density.

 Excited State   2:      Singlet-A      6.8119 eV  182.01 nm  f=0.1881  <S**2>=0.000
      13 -> 14         0.49466
      13 -> 15        -0.48710

 Excited State   3:      Singlet-A      8.3516 eV  148.46 nm  f=0.0226  <S**2>=0.000
      12 -> 14         0.31917
      13 -> 16         0.60210
      13 -> 17        -0.13349

 Excited State   4:      Singlet-A      8.4490 eV  146.74 nm  f=0.0025  <S**2>=0.000
      11 -> 14         0.16414
      13 -> 16         0.11980
      13 -> 17         0.63594
      13 -> 19        -0.12446

 Excited State   5:      Singlet-A      8.6333 eV  143.61 nm  f=0.0030  <S**2>=0.000
      11 -> 14         0.67320
      13 -> 17        -0.16272

 Excited State   6:      Singlet-A      8.9808 eV  138.05 nm  f=0.0048  <S**2>=0.000
      10 -> 14         0.68529

 Excited State   7:      Singlet-A      9.3592 eV  132.47 nm  f=0.0105  <S**2>=0.000
      12 -> 14         0.10928
      12 -> 15         0.64928
      13 -> 19        -0.12940
      13 -> 20        -0.14172

 Excited State   8:      Singlet-A      9.6047 eV  129.09 nm  f=0.4498  <S**2>=0.000
      12 -> 14         0.59452
      12 -> 15        -0.11482
      13 -> 16        -0.30248

 Excited State   9:      Singlet-A      9.9223 eV  124.95 nm  f=0.0061  <S**2>=0.000
      12 -> 15        -0.16609
      13 -> 18         0.42602
      13 -> 19        -0.41699
      13 -> 20        -0.24935
      13 -> 21        -0.12378
      13 -> 22         0.13654

 Excited State  10:      Singlet-A     10.0999 eV  122.76 nm  f=0.0179  <S**2>=0.000
      12 -> 15         0.10025
      13 -> 18         0.30685
      13 -> 20         0.58908
      13 -> 21        -0.11418
      13 -> 23         0.10291

 Excited State  11:      Singlet-A     10.6011 eV  116.95 nm  f=0.0103  <S**2>=0.000
      11 -> 15         0.23315
      12 -> 17        -0.28842
      13 -> 18         0.36841
      13 -> 19         0.41394
      13 -> 20        -0.13059

 Excited State  12:      Singlet-A     10.6616 eV  116.29 nm  f=0.0370  <S**2>=0.000
      11 -> 15         0.59372
      11 -> 17         0.10750
      12 -> 16        -0.20560
      13 -> 18        -0.16319
      13 -> 19        -0.15214

 Excited State  13:      Singlet-A     10.8949 eV  113.80 nm  f=0.1372  <S**2>=0.000
      10 -> 15         0.25773
      11 -> 15         0.13825
      12 -> 16         0.60616

 Excited State  14:      Singlet-A     11.2944 eV  109.77 nm  f=0.0046  <S**2>=0.000
      12 -> 17        -0.21856
      13 -> 19        -0.10368
      13 -> 20         0.13267
      13 -> 21         0.59269
      13 -> 22         0.12067

 Excited State  15:      Singlet-A     11.4011 eV  108.75 nm  f=0.0074  <S**2>=0.000
       8 -> 14        -0.16085
       9 -> 14        -0.13007
      10 -> 16         0.33173
      11 -> 16         0.54497
      12 -> 17         0.14761

 The electronic state is 1-A.
 Alpha  occ. eigenvalues --   -4.06448  -1.45539  -1.09521  -1.05551  -1.00645
 Alpha  occ. eigenvalues --   -0.97132  -0.91353  -0.75729  -0.74832  -0.66677
 Alpha  occ. eigenvalues --   -0.65138  -0.62405  -0.52050
 Alpha virt. eigenvalues --   -0.08405  -0.03102   0.00182   0.03116   0.08396
 Alpha virt. eigenvalues --    0.09108   0.09999   0.12060   0.14568   0.16266
 Alpha virt. eigenvalues --    0.17758

 Mulliken charges:
               1
     1  C   -0.378262
     2  C   -1.121023
     3  O    2.395742
     4  C   -1.129662
     5  C   -0.478933
     6  H    0.231175
     7  H    0.152752
     8  H    0.131608
     9  H    0.196602
 Sum of Mulliken charges =   0.00000

 Dipole moment (field-independent basis, Debye):
    X=             -2.9242    Y=             -8.6808    Z=              0.0133  Tot=              9.1601
 N-N= 1.025556437024D+02 E-N=-1.636151966715D+02  KE=-2.386689288380D+01
 Orbital energies and kinetic energies (alpha):
                                 1                 2
   1         O                -4.064480         -3.248427
   2         O                -1.455389         -1.232587
   3         O                -1.095205         -1.009097
   4         O                -1.055510         -0.910897
   5         O                -1.006453         -0.797331
   6         O                -0.971317         -0.810714
   7         O                -0.913531         -0.757329

 Normal termination of Gaussian 09 at Fri Dec 11 13:41:31 2015.
