 Gaussian 09, Revision D.01,
 Gaussian 09:  ES64L-G09RevD.01 24-Apr-2013

 -------------------------------------------------------
 #P B3LYP/3-21G CIS(Singlets,NStates=15) pop(full) force
 -------------------------------------------------------

 --------
 FuranDFT
 --------
 Symbolic Z-matrix:
 Charge =  0 Multiplicity = 1

                         Standard orientation:
 ---------------------------------------------------------------------
 Center     Atomic      Atomic             Coordinates (Angstroms)
 Number     Number       Type             X           Y           Z
 ---------------------------------------------------------------------
      1          6           0       -0.680242    0.948863   -0.013063
      2          6           0       -1.083726   -0.310280    0.007307
      3          8           0       -0.016349   -1.107750    0.006145
      4          6           0        1.040856   -0.382702    0.006055
      5          6           0        0.727086    0.908568   -0.010395
      6          1           0        1.462002    1.801478    0.044368
      7          1           0        2.026513   -0.922641   -0.039495
      8          1           0       -2.094448   -0.811625   -0.032368
      9          1           0       -1.287123    1.808097    0.038915
 ---------------------------------------------------------------------

 SCF Done:  E(RB3LYP) =  -228.725510880     A.U. after   14 cycles

 Excitation energies and oscillator strengths:

 Excited State   1:      Singlet-A      7.6499 eV  162.07 nm  f=0.0795  <S**2>=0.000
      17 -> 19         0.40268
      18 -> 19         0.41042
      18 -> 20         0.38979
 This state for optimization and/or second-order correction.
 Total Energy, E(CIS) =  -228.444383268
 Copying the excited state density for this state as the 1-particle RhoCI density.

 Excited State   2:      Singlet-A      7.8644 eV  157.65 nm  f=0.1640  <S**2>=0.000
      17 -> 19        -0.30413
      18 -> 19         0.54407
      18 -> 20        -0.29169

 Excited State   3:      Singlet-A      8.4868 eV  146.09 nm  f=0.0073  <S**2>=0.000
      18 -> 21         0.69403

 Excited State   4:      Singlet-A      9.1981 eV  134.79 nm  f=0.0062  <S**2>=0.000
      16 -> 19         0.67784
      18 -> 23         0.17301

 Excited State   5:      Singlet-A      9.4099 eV  131.76 nm  f=0.0114  <S**2>=0.000
      16 -> 19        -0.17265
      17 -> 21        -0.27407
      18 -> 22         0.10784
      18 -> 23         0.59270

 Excited State   6:      Singlet-A      9.4538 eV  131.15 nm  f=0.0014  <S**2>=0.000
      18 -> 22         0.68639

 Excited State   7:      Singlet-A      9.7250 eV  127.49 nm  f=0.0110  <S**2>=0.000
      17 -> 20         0.10417
      17 -> 21         0.60869
      18 -> 23         0.30838

 Excited State   8:      Singlet-A     10.0136 eV  123.82 nm  f=0.1964  <S**2>=0.000
      17 -> 20         0.65719
      17 -> 21        -0.13733

 Excited State   9:      Singlet-A     10.1988 eV  121.57 nm  f=0.4498  <S**2>=0.000
      15 -> 19        -0.28521
      17 -> 19        -0.38783
      17 -> 20        -0.13205
      17 -> 21        -0.12812
      18 -> 20         0.40716
      18 -> 24        -0.10921

 Excited State  10:      Singlet-A     10.4258 eV  118.92 nm  f=0.1243  <S**2>=0.000
      15 -> 19         0.61324
      16 -> 20        -0.15255
      17 -> 19        -0.18144
      18 -> 20         0.18166

 Excited State  11:      Singlet-A     10.5267 eV  117.78 nm  f=0.0102  <S**2>=0.000
      17 -> 22        -0.17262
      18 -> 24         0.66303

 Excited State  12:      Singlet-A     10.6493 eV  116.43 nm  f=0.0160  <S**2>=0.000
      14 -> 19         0.41702
      15 -> 19         0.10464
      16 -> 20         0.41846
      17 -> 22         0.34060

 Excited State  13:      Singlet-A     10.6664 eV  116.24 nm  f=0.0009  <S**2>=0.000
      14 -> 19        -0.26068
      16 -> 20        -0.22664
      17 -> 22         0.58163
      18 -> 24         0.16241

 Excited State  14:      Singlet-A     10.8351 eV  114.43 nm  f=0.0017  <S**2>=0.000
      17 -> 23         0.69277

 Excited State  15:      Singlet-A     11.0120 eV  112.59 nm  f=0.0001  <S**2>=0.000
      13 -> 19        -0.11400
      14 -> 19         0.47989
      16 -> 20        -0.47937

 The electronic state is 1-A.
 Alpha  occ. eigenvalues --  -19.11749 -10.17341 -10.17302 -10.12096 -10.11534
 Alpha  occ. eigenvalues --   -1.17305  -0.81646  -0.76517  -0.61546  -0.56031
 Alpha  occ. eigenvalues --   -0.54590  -0.47485  -0.44118  -0.41591  -0.39853
 Alpha  occ. eigenvalues --   -0.35980  -0.28190  -0.23588
 Alpha virt. eigenvalues --    0.03714   0.09173   0.11972   0.15270   0.15918
 Alpha virt. eigenvalues --    0.19091   0.23709   0.25732   0.37543   0.43366
 Alpha virt. eigenvalues --    0.51140   0.69327   0.69936   0.72074   0.76235

 Mulliken charges:
               1
     1  C   -0.277973
     2  C    0.112991
     3  O   -0.509144
     4  C    0.140258
     5  C   -0.250512
     6  H    0.175519
     7  H    0.209746
     8  H    0.210202
     9  H    0.188913
 Sum of Mulliken charges =   0.00000

 Dipole moment (field-independent basis, Debye):
    X=             -0.0406    Y=              0.5049    Z=              0.0152  Tot=              0.5068
 Quadrupole moment (field-independent basis, Debye-Ang):
   XX=            -23.9647   YY=            -28.0584   ZZ=            -31.6076
   XY=             -0.0912   XZ=              0.0088   YZ=              0.2691

 Normal termination of Gaussian 09 at Tue Dec 15 16:13:49 2015.
