 Gaussian 09, Revision D.01,
 Gaussian 09:  ES64L-G09RevD.01 24-Apr-2013

 ------------------------------------------------------------
 #P AM1(Input,print) CIS(Singlets,NStates=15) pop(full) force
 ------------------------------------------------------------

 -----------------
 AM1-Reparam Input
 -----------------
 Symbolic Z-matrix:
 Charge =  0 Multiplicity = 1

                         Standard orientation:
 ---------------------------------------------------------------------
 Center     Atomic      Atomic             Coordinates (Angstroms)
 Number     Number       Type             X           Y           Z
 ---------------------------------------------------------------------
      1          6           0        0.675878    0.981242   -0.020475
      2          6           0        1.064960   -0.289038    0.002296
      3          8           0        0.104754   -1.110560   -0.010340
      4          6           0       -1.089262   -0.452070    0.017828
      5          6           0       -0.756986    0.920529   -0.005822
      6          1           0       -1.513018    1.690538    0.009793
      7          1           0       -1.987048   -0.944526   -0.002989
      8          1           0        2.122285   -0.706192    0.045864
      9          1           0        1.172203    1.880684    0.067091
 ---------------------------------------------------------------------

 SCF Done:  E(RAM1) =   2.60326259987     A.U. after   13 cycles

 Excitation energies and oscillator strengths:

 Excited State   1:      Singlet-A      5.1232 eV  242.00 nm  f=0.3603  <S**2>=0.000
      13 -> 14         0.69837
 This state for optimization and/or second-order correction.
 Total Energy, E(CIS) =   2.79153711894
 Copying the excited state density for this state as the 1-particle RhoCI density.

 Excited State   2:      Singlet-A      6.0795 eV  203.94 nm  f=0.0015  <S**2>=0.000
      11 -> 15         0.10653
      13 -> 15         0.66978
      13 -> 17        -0.11908
      13 -> 18         0.10293

 Excited State   3:      Singlet-A      6.5275 eV  189.94 nm  f=0.0014  <S**2>=0.000
      12 -> 14         0.69234

 Excited State   4:      Singlet-A      6.7549 eV  183.55 nm  f=0.0048  <S**2>=0.000
      13 -> 16         0.66224
      13 -> 17         0.11481

 Excited State   5:      Singlet-A      7.3664 eV  168.31 nm  f=0.0049  <S**2>=0.000
      10 -> 14         0.67326
      11 -> 14        -0.16324

 Excited State   6:      Singlet-A      7.9029 eV  156.88 nm  f=0.0010  <S**2>=0.000
      13 -> 16        -0.13705
      13 -> 17         0.66199
      13 -> 21        -0.11715

 Excited State   7:      Singlet-A      8.2783 eV  149.77 nm  f=0.1290  <S**2>=0.000
      10 -> 14         0.16652
      11 -> 14         0.67953

 Excited State   8:      Singlet-A      9.2278 eV  134.36 nm  f=0.0669  <S**2>=0.000
       9 -> 15        -0.10071
      10 -> 16        -0.15971
      11 -> 15         0.12931
      12 -> 15         0.50045
      12 -> 16        -0.17508
      12 -> 17        -0.23277
      13 -> 18        -0.25429

 Excited State   9:      Singlet-A      9.2411 eV  134.17 nm  f=0.0331  <S**2>=0.000
       7 -> 15         0.10674
      11 -> 15        -0.31540
      12 -> 15         0.26956
      13 -> 18         0.52957

 Excited State  10:      Singlet-A      9.5806 eV  129.41 nm  f=0.0841  <S**2>=0.000
       9 -> 15         0.12627
      10 -> 15         0.36860
      10 -> 16         0.21017
      10 -> 18         0.17323
      11 -> 15        -0.13879
      12 -> 15         0.26668
      12 -> 16         0.14130
      12 -> 17         0.28668
      12 -> 18         0.10049
      13 -> 18        -0.14219

 Excited State  11:      Singlet-A      9.7102 eV  127.68 nm  f=0.0007  <S**2>=0.000
       7 -> 16         0.11853
      11 -> 16         0.48314
      13 -> 19        -0.46894

 Excited State  12:      Singlet-A      9.8193 eV  126.27 nm  f=0.0120  <S**2>=0.000
       7 -> 15        -0.12533
      10 -> 15         0.11764
      10 -> 16         0.10098
      11 -> 15         0.54784
      13 -> 15        -0.16156
      13 -> 18         0.28655

 Excited State  13:      Singlet-A      9.9856 eV  124.16 nm  f=0.1441  <S**2>=0.000
      10 -> 15         0.15120
      10 -> 16        -0.41144
      10 -> 19         0.11932
      12 -> 16         0.48599
      12 -> 19        -0.11210

 Excited State  14:      Singlet-A     10.2415 eV  121.06 nm  f=0.0003  <S**2>=0.000
       9 -> 14         0.68034

 Excited State  15:      Singlet-A     10.3451 eV  119.85 nm  f=0.0009  <S**2>=0.000
       6 -> 15        -0.12059
       8 -> 15        -0.15816
       9 -> 15         0.28749
      10 -> 15         0.36658
      10 -> 18         0.10931
      10 -> 19         0.10149
      12 -> 15        -0.14696
      12 -> 16        -0.29021
      12 -> 17        -0.26607

 The electronic state is 1-A.
 Alpha  occ. eigenvalues --   -1.86994  -1.13374  -0.88967  -0.80649  -0.74692
 Alpha  occ. eigenvalues --   -0.67474  -0.65293  -0.57481  -0.54653  -0.46184
 Alpha  occ. eigenvalues --   -0.45516  -0.43842  -0.31604
 Alpha virt. eigenvalues --    0.07293   0.13607   0.17917   0.23969   0.27042
 Alpha virt. eigenvalues --    0.29031   0.34463   0.38641   0.51627   0.58450
 Alpha virt. eigenvalues --    0.63671

 Mulliken charges:
               1
     1  C   -0.220356
     2  C   -2.037961
     3  O    3.425711
     4  C   -2.012659
     5  C   -0.135533
     6  H    0.194171
     7  H    0.270660
     8  H    0.320450
     9  H    0.195516
 Sum of Mulliken charges =   0.00000

 Dipole moment (field-independent basis, Debye):
    X=              1.8872    Y=            -10.0006    Z=             -0.1577  Tot=             10.1783
 N-N= 1.046906324325D+02 E-N=-1.706431068716D+02  KE=-1.439716489918D+01
 Orbital energies and kinetic energies (alpha):
                                 1                 2
   1         O                -1.869939         -1.295198
   2         O                -1.133743         -0.963771
   3         O                -0.889673         -0.781387
   4         O                -0.806487         -0.533219
   5         O                -0.746917         -0.636251
   6         O                -0.674741         -0.554239
   7         O                -0.652927         -0.495674

 Normal termination of Gaussian 09 at Tue Dec 15 17:07:49 2015.
