 Gaussian 09, Revision D.01,
 Gaussian 09:  ES64L-G09RevD.01 24-Apr-2013

 ------------------------------------------------------------
 #P AM1(Input,print) CIS(Singlets,NStates=15) pop(full) force
 ------------------------------------------------------------

 -----------------
 AM1-Reparam Input
 -----------------
 Symbolic Z-matrix:
 Charge =  0 Multiplicity = 1

                         Standard orientation:
 ---------------------------------------------------------------------
 Center     Atomic      Atomic             Coordinates (Angstroms)
 Number     Number       Type             X           Y           Z
 ---------------------------------------------------------------------
      1          6           0       -0.244090    1.138976    0.015891
      2          6           0       -1.154905    0.138667   -0.008544
      3          8           0       -0.490985   -1.047759    0.008506
      4          6           0        0.834666   -0.734532   -0.013608
      5          6           0        1.090518    0.567164   -0.001785
      6          1           0        1.981054    1.088215   -0.020108
      7          1           0        1.450457   -1.651998    0.033422
      8          1           0       -2.169599    0.093377   -0.031228
      9          1           0       -0.491172    2.190821   -0.001858
 ---------------------------------------------------------------------

 SCF Done:  E(RAM1) =   2.62688549419     A.U. after   13 cycles

 Excitation energies and oscillator strengths:

 Excited State   1:      Singlet-A      4.9674 eV  249.60 nm  f=0.3605  <S**2>=0.000
      13 -> 14         0.69927
 This state for optimization and/or second-order correction.
 Total Energy, E(CIS) =   2.80943391713
 Copying the excited state density for this state as the 1-particle RhoCI density.

 Excited State   2:      Singlet-A      5.9202 eV  209.43 nm  f=0.0002  <S**2>=0.000
      13 -> 15         0.66001
      13 -> 16        -0.13030
      13 -> 17        -0.14199
      13 -> 19         0.11337

 Excited State   3:      Singlet-A      6.3515 eV  195.20 nm  f=0.0008  <S**2>=0.000
      12 -> 14         0.65122
      13 -> 16         0.24082

 Excited State   4:      Singlet-A      6.4559 eV  192.05 nm  f=0.0023  <S**2>=0.000
      12 -> 14        -0.25566
      13 -> 15         0.12837
      13 -> 16         0.62183
      13 -> 18        -0.10233

 Excited State   5:      Singlet-A      7.5348 eV  164.55 nm  f=0.0058  <S**2>=0.000
      10 -> 14         0.62705
      11 -> 14        -0.25682
      13 -> 17         0.16848

 Excited State   6:      Singlet-A      7.6597 eV  161.87 nm  f=0.0000  <S**2>=0.000
      10 -> 14        -0.16274
      13 -> 15         0.10675
      13 -> 17         0.65044
      13 -> 21        -0.10948

 Excited State   7:      Singlet-A      8.4935 eV  145.98 nm  f=0.1267  <S**2>=0.000
      10 -> 14         0.26154
      11 -> 14         0.64291

 Excited State   8:      Singlet-A      9.0777 eV  136.58 nm  f=0.1166  <S**2>=0.000
       9 -> 15         0.12818
      10 -> 18         0.11300
      12 -> 15         0.56581
      12 -> 16        -0.16390
      12 -> 17        -0.24482

 Excited State   9:      Singlet-A      9.1766 eV  135.11 nm  f=0.0111  <S**2>=0.000
      11 -> 15         0.26269
      13 -> 18         0.59285
      13 -> 19        -0.18531

 Excited State  10:      Singlet-A      9.4280 eV  131.51 nm  f=0.0003  <S**2>=0.000
      11 -> 16        -0.26138
      13 -> 18         0.14973
      13 -> 19         0.61138

 Excited State  11:      Singlet-A      9.6727 eV  128.18 nm  f=0.1754  <S**2>=0.000
      10 -> 16        -0.30855
      10 -> 18         0.13315
      11 -> 16         0.12972
      12 -> 16         0.45100
      12 -> 17        -0.30487
      12 -> 19        -0.12906

 Excited State  12:      Singlet-A      9.7775 eV  126.81 nm  f=0.0501  <S**2>=0.000
       8 -> 15        -0.11582
      10 -> 15         0.27550
      10 -> 18        -0.11041
      11 -> 15        -0.16155
      12 -> 15         0.25558
      12 -> 16         0.39871
      12 -> 17         0.31167

 Excited State  13:      Singlet-A     10.0342 eV  123.56 nm  f=0.0019  <S**2>=0.000
       7 -> 15        -0.12631
      10 -> 15         0.22526
      11 -> 15         0.55979
      13 -> 15        -0.14258
      13 -> 18        -0.23353
      13 -> 19         0.11401

 Excited State  14:      Singlet-A     10.3112 eV  120.24 nm  f=0.0229  <S**2>=0.000
       9 -> 15        -0.26523
      10 -> 15         0.46841
      10 -> 19         0.16438
      11 -> 15        -0.15518
      11 -> 16         0.14629
      12 -> 16        -0.16145
      12 -> 17        -0.19542

 Excited State  15:      Singlet-A     10.3639 eV  119.63 nm  f=0.0026  <S**2>=0.000
       7 -> 16         0.10544
       9 -> 14         0.13326
      10 -> 15        -0.13737
      10 -> 16         0.16465
      11 -> 16         0.53916
      12 -> 17         0.10029
      13 -> 16         0.12444
      13 -> 18         0.18750
      13 -> 19         0.19634

 The electronic state is 1-A.
 Alpha  occ. eigenvalues --   -1.85337  -1.12928  -0.88738  -0.80186  -0.75218
 Alpha  occ. eigenvalues --   -0.67299  -0.63561  -0.55723  -0.54900  -0.45417
 Alpha  occ. eigenvalues --   -0.45038  -0.41800  -0.29341
 Alpha virt. eigenvalues --    0.08764   0.15678   0.18043   0.25337   0.28554
 Alpha virt. eigenvalues --    0.29879   0.36285   0.40495   0.47988   0.55802
 Alpha virt. eigenvalues --    0.59503

 Mulliken charges:
               1
     1  C   -0.209164
     2  C   -1.984061
     3  O    3.429847
     4  C   -1.971741
     5  C   -0.166031
     6  H    0.178919
     7  H    0.266136
     8  H    0.260606
     9  H    0.195489
 Sum of Mulliken charges =   0.00000

 Dipole moment (field-independent basis, Debye):
    X=             -4.5664    Y=            -10.7524    Z=              0.2901  Tot=             11.6855
 N-N= 1.042866657553D+02 E-N=-1.700152894340D+02  KE=-1.439452590681D+01
 Orbital energies and kinetic energies (alpha):
                                 1                 2
   1         O                -1.853374         -1.251738
   2         O                -1.129281         -0.971174
   3         O                -0.887377         -0.793914
   4         O                -0.801861         -0.546882
   5         O                -0.752176         -0.624846
   6         O                -0.672990         -0.544577
   7         O                -0.635614         -0.496739

 Normal termination of Gaussian 09 at Tue Dec 15 17:07:42 2015.
