 Gaussian 09, Revision D.01,
 Gaussian 09:  ES64L-G09RevD.01 24-Apr-2013

 ------------------------------------------------------------
 #P AM1(Input,print) CIS(Singlets,NStates=15) pop(full) force
 ------------------------------------------------------------

 -----------------
 AM1-Reparam Input
 -----------------
 Symbolic Z-matrix:
 Charge =  0 Multiplicity = 1

                         Standard orientation:
 ---------------------------------------------------------------------
 Center     Atomic      Atomic             Coordinates (Angstroms)
 Number     Number       Type             X           Y           Z
 ---------------------------------------------------------------------
      1          6           0        0.959612    0.811778    0.014553
      2          6           0        0.988970   -0.599361   -0.004518
      3          8           0       -0.284980   -1.155866    0.008552
      4          6           0       -1.119805   -0.053989   -0.024754
      5          6           0       -0.525720    1.073199    0.000333
      6          1           0       -0.919785    2.022008   -0.017033
      7          1           0       -2.191863   -0.412602    0.069901
      8          1           0        1.864087   -1.278295   -0.035103
      9          1           0        1.709057    1.526061    0.000133
 ---------------------------------------------------------------------

 SCF Done:  E(RAM1) =   1.82977542486     A.U. after   14 cycles

 Excitation energies and oscillator strengths:

 Excited State   1:      Singlet-A      5.1368 eV  241.37 nm  f=0.3813  <S**2>=0.000
      13 -> 14         0.69671
 This state for optimization and/or second-order correction.
 Total Energy, E(CIS) =   2.01854765710
 Copying the excited state density for this state as the 1-particle RhoCI density.

 Excited State   2:      Singlet-A      5.9519 eV  208.31 nm  f=0.0008  <S**2>=0.000
      13 -> 15         0.67945
      13 -> 18         0.11876

 Excited State   3:      Singlet-A      6.4639 eV  191.81 nm  f=0.0037  <S**2>=0.000
      13 -> 16         0.66203
      13 -> 17        -0.19230

 Excited State   4:      Singlet-A      7.1125 eV  174.32 nm  f=0.0002  <S**2>=0.000
      12 -> 14         0.70281

 Excited State   5:      Singlet-A      7.7188 eV  160.63 nm  f=0.0005  <S**2>=0.000
      13 -> 16         0.14006
      13 -> 17         0.57449
      13 -> 18         0.28605
      13 -> 19         0.12908
      13 -> 22         0.17175

 Excited State   6:      Singlet-A      8.5446 eV  145.10 nm  f=0.0183  <S**2>=0.000
      10 -> 14         0.48147
      13 -> 17        -0.18854
      13 -> 18         0.45174

 Excited State   7:      Singlet-A      8.6990 eV  142.53 nm  f=0.0016  <S**2>=0.000
      10 -> 14         0.50822
      13 -> 17         0.19080
      13 -> 18        -0.42333

 Excited State   8:      Singlet-A      8.9208 eV  138.98 nm  f=0.0649  <S**2>=0.000
       8 -> 15         0.10585
      11 -> 14         0.61629
      12 -> 15         0.25326
      12 -> 17         0.12035

 Excited State   9:      Singlet-A      9.2019 eV  134.74 nm  f=0.0016  <S**2>=0.000
      11 -> 16         0.10800
      13 -> 17        -0.12516
      13 -> 19         0.67024

 Excited State  10:      Singlet-A      9.3754 eV  132.24 nm  f=0.2232  <S**2>=0.000
      10 -> 18         0.11083
      11 -> 14        -0.27846
      12 -> 15         0.51462
      12 -> 16        -0.21103
      12 -> 17         0.20379
      12 -> 18         0.11164

 Excited State  11:      Singlet-A      9.9169 eV  125.02 nm  f=0.0170  <S**2>=0.000
       9 -> 15        -0.10435
      10 -> 15        -0.21711
      10 -> 18        -0.18774
      12 -> 15         0.34508
      12 -> 16         0.35234
      12 -> 17        -0.34002

 Excited State  12:      Singlet-A     10.0891 eV  122.89 nm  f=0.0263  <S**2>=0.000
      11 -> 15         0.13333
      13 -> 17         0.14846
      13 -> 20         0.51034
      13 -> 22        -0.41936

 Excited State  13:      Singlet-A     10.3169 eV  120.18 nm  f=0.0511  <S**2>=0.000
      11 -> 15         0.33959
      11 -> 16        -0.10531
      13 -> 20         0.32680
      13 -> 22         0.48897

 Excited State  14:      Singlet-A     10.3265 eV  120.06 nm  f=0.0145  <S**2>=0.000
       7 -> 15        -0.12572
      11 -> 15         0.55141
      11 -> 16         0.19424
      13 -> 15        -0.10388
      13 -> 20        -0.29533
      13 -> 22        -0.15604

 Excited State  15:      Singlet-A     10.5196 eV  117.86 nm  f=0.0343  <S**2>=0.000
      11 -> 16         0.52723
      12 -> 16        -0.24064
      12 -> 17        -0.16499
      13 -> 16         0.10887
      13 -> 20         0.13228
      13 -> 22         0.12995

 The electronic state is 1-A.
 Alpha  occ. eigenvalues --   -1.97816  -1.25596  -0.98985  -0.89171  -0.83886
 Alpha  occ. eigenvalues --   -0.76378  -0.73098  -0.61735  -0.60872  -0.53041
 Alpha  occ. eigenvalues --   -0.51507  -0.48009  -0.34307
 Alpha virt. eigenvalues --    0.04646   0.09678   0.12479   0.20732   0.21563
 Alpha virt. eigenvalues --    0.24114   0.26915   0.27793   0.28319   0.36538
 Alpha virt. eigenvalues --    0.40588

 Mulliken charges:
               1
     1  C   -0.135821
     2  C   -1.898813
     3  O    3.155280
     4  C   -1.823981
     5  C   -0.121847
     6  H    0.135761
     7  H    0.268879
     8  H    0.285499
     9  H    0.135043
 Sum of Mulliken charges =   0.00000

 Dipole moment (field-independent basis, Debye):
    X=             -3.2645    Y=            -11.2806    Z=              0.3837  Tot=             11.7497
 N-N= 1.049395287943D+02 E-N=-1.695392580472D+02  KE=-1.559220504464D+01
 Orbital energies and kinetic energies (alpha):
                                 1                 2
   1         O                -1.978162         -1.345759
   2         O                -1.255962         -1.052106
   3         O                -0.989850         -0.882660
   4         O                -0.891706         -0.587309
   5         O                -0.838861         -0.681610
   6         O                -0.763783         -0.613285
   7         O                -0.730977         -0.536879

 Normal termination of Gaussian 09 at Tue Dec 15 17:09:07 2015.
