 Gaussian 09, Revision D.01,
 Gaussian 09:  ES64L-G09RevD.01 24-Apr-2013

 ------------------------------------------------------------
 #P AM1(Input,print) CIS(Singlets,NStates=15) pop(full) force
 ------------------------------------------------------------

 -----------------
 AM1-Reparam Input
 -----------------
 Symbolic Z-matrix:
 Charge =  0 Multiplicity = 1

                         Standard orientation:
 ---------------------------------------------------------------------
 Center     Atomic      Atomic             Coordinates (Angstroms)
 Number     Number       Type             X           Y           Z
 ---------------------------------------------------------------------
      1          6           0       -0.873396    0.885094    0.037995
      2          6           0       -1.056651   -0.514862   -0.031016
      3          8           0        0.187870   -1.157394    0.029963
      4          6           0        1.139993   -0.180627   -0.018536
      5          6           0        0.583327    1.030721   -0.014062
      6          1           0        1.102784    1.990162    0.006108
      7          1           0        2.125937   -0.480355   -0.009790
      8          1           0       -1.858154   -1.182478   -0.058149
      9          1           0       -1.633164    1.609865   -0.024166
 ---------------------------------------------------------------------

 SCF Done:  E(RAM1) =   1.12831232538     A.U. after   14 cycles

 Excitation energies and oscillator strengths:

 Excited State   1:      Singlet-A      5.4101 eV  229.17 nm  f=0.2073  <S**2>=0.000
      12 -> 15         0.14742
      13 -> 14         0.67970
 This state for optimization and/or second-order correction.
 Total Energy, E(CIS) =   1.32712948657
 Copying the excited state density for this state as the 1-particle RhoCI density.

 Excited State   2:      Singlet-A      6.4243 eV  192.99 nm  f=0.0074  <S**2>=0.000
      12 -> 14        -0.10135
      13 -> 15         0.31737
      13 -> 16         0.58831
      13 -> 17         0.11155
      13 -> 19         0.13988

 Excited State   3:      Singlet-A      6.6983 eV  185.10 nm  f=0.0121  <S**2>=0.000
      12 -> 14        -0.34975
      13 -> 15         0.49276
      13 -> 16        -0.33015

 Excited State   4:      Singlet-A      6.9085 eV  179.47 nm  f=0.0006  <S**2>=0.000
      13 -> 17         0.64521
      13 -> 18        -0.16162
      13 -> 21         0.13649

 Excited State   5:      Singlet-A      7.2431 eV  171.18 nm  f=0.0027  <S**2>=0.000
       9 -> 14         0.14328
      11 -> 14         0.68177

 Excited State   6:      Singlet-A      7.8531 eV  157.88 nm  f=0.2736  <S**2>=0.000
      12 -> 14         0.57934
      13 -> 15         0.33546

 Excited State   7:      Singlet-A      7.9566 eV  155.83 nm  f=0.0047  <S**2>=0.000
      10 -> 14         0.64412
      11 -> 15         0.19116

 Excited State   8:      Singlet-A      8.1328 eV  152.45 nm  f=0.0028  <S**2>=0.000
      12 -> 15        -0.12063
      12 -> 16        -0.19358
      13 -> 17         0.12067
      13 -> 18         0.60196
      13 -> 19         0.11136
      13 -> 24         0.15043

 Excited State   9:      Singlet-A      8.4364 eV  146.96 nm  f=0.0238  <S**2>=0.000
      12 -> 15         0.23613
      12 -> 17         0.11388
      13 -> 19         0.44012
      13 -> 20         0.43112
      13 -> 23         0.10090

 Excited State  10:      Singlet-A      8.4605 eV  146.55 nm  f=0.1135  <S**2>=0.000
      12 -> 15         0.51316
      12 -> 16         0.24574
      13 -> 17         0.10406
      13 -> 18         0.17022
      13 -> 19        -0.13454
      13 -> 20        -0.20364

 Excited State  11:      Singlet-A      8.5108 eV  145.68 nm  f=0.0212  <S**2>=0.000
       6 -> 15        -0.10596
       9 -> 15        -0.23446
      10 -> 14        -0.22025
      10 -> 15         0.15362
      11 -> 15         0.57366

 Excited State  12:      Singlet-A      8.6713 eV  142.98 nm  f=0.0855  <S**2>=0.000
      12 -> 15        -0.29555
      12 -> 16         0.56885
      12 -> 17         0.11924
      13 -> 18         0.11183

 Excited State  13:      Singlet-A      9.0143 eV  137.54 nm  f=0.0059  <S**2>=0.000
       7 -> 16         0.10707
      12 -> 16        -0.13579
      12 -> 17         0.56394
      13 -> 19         0.20379
      13 -> 20        -0.29362

 Excited State  14:      Singlet-A      9.4229 eV  131.58 nm  f=0.0009  <S**2>=0.000
       9 -> 14         0.54198
      10 -> 15        -0.10334
      11 -> 14        -0.11196
      13 -> 21         0.35167

 Excited State  15:      Singlet-A      9.4759 eV  130.84 nm  f=0.0555  <S**2>=0.000
       9 -> 16        -0.25308
      10 -> 17         0.12466
      11 -> 16         0.52509
      11 -> 19         0.11635
      13 -> 21        -0.19049

 The electronic state is 1-A.
 Alpha  occ. eigenvalues --   -1.80741  -1.17545  -0.98858  -0.87025  -0.80713
 Alpha  occ. eigenvalues --   -0.74145  -0.70366  -0.60883  -0.56287  -0.52591
 Alpha  occ. eigenvalues --   -0.49833  -0.46932  -0.37876
 Alpha virt. eigenvalues --    0.03046   0.08540   0.10565   0.11935   0.18287
 Alpha virt. eigenvalues --    0.19302   0.20014   0.21723   0.26288   0.26625
 Alpha virt. eigenvalues --    0.26921

 Mulliken charges:
               1
     1  C   -0.100810
     2  C   -1.231946
     3  O    2.121735
     4  C   -1.227146
     5  C   -0.147282
     6  H    0.113801
     7  H    0.194282
     8  H    0.175502
     9  H    0.101865
 Sum of Mulliken charges =   0.00000

 Dipole moment (field-independent basis, Debye):
    X=              1.4932    Y=             -7.1299    Z=              0.4300  Tot=              7.2973
 N-N= 1.038162339473D+02 E-N=-1.701722879918D+02  KE=-1.492765350674D+01
 Orbital energies and kinetic energies (alpha):
                                 1                 2
   1         O                -1.807414         -1.216382
   2         O                -1.175452         -0.959667
   3         O                -0.988576         -0.817821
   4         O                -0.870247         -0.632942
   5         O                -0.807130         -0.679465
   6         O                -0.741451         -0.593940
   7         O                -0.703658         -0.502256

 Normal termination of Gaussian 09 at Tue Dec 15 17:05:44 2015.
