 Gaussian 09, Revision D.01,
 Gaussian 09:  ES64L-G09RevD.01 24-Apr-2013

 ------------------------------------------------------------
 #P AM1(Input,print) CIS(Singlets,NStates=15) pop(full) force
 ------------------------------------------------------------

 -----------------
 AM1-Reparam Input
 -----------------
 Symbolic Z-matrix:
 Charge =  0 Multiplicity = 1

                         Standard orientation:
 ---------------------------------------------------------------------
 Center     Atomic      Atomic             Coordinates (Angstroms)
 Number     Number       Type             X           Y           Z
 ---------------------------------------------------------------------
      1          6           0       -0.948388    0.813173   -0.020257
      2          6           0       -0.985423   -0.618480   -0.014085
      3          8           0        0.261296   -1.072863    0.015507
      4          6           0        1.185691   -0.120481   -0.012115
      5          6           0        0.485941    1.046557    0.028516
      6          1           0        0.912059    2.022266   -0.028832
      7          1           0        2.133718   -0.338212   -0.046274
      8          1           0       -1.858493   -1.254421    0.018396
      9          1           0       -1.704583    1.428654    0.040298
 ---------------------------------------------------------------------

 SCF Done:  E(RAM1) =   2.60352328497     A.U. after   13 cycles

 Excitation energies and oscillator strengths:

 Excited State   1:      Singlet-A      5.0674 eV  244.67 nm  f=0.3715  <S**2>=0.000
      13 -> 14         0.69880
 This state for optimization and/or second-order correction.
 Total Energy, E(CIS) =   2.78974682494
 Copying the excited state density for this state as the 1-particle RhoCI density.

 Excited State   2:      Singlet-A      6.3081 eV  196.55 nm  f=0.0011  <S**2>=0.000
      12 -> 14         0.69388

 Excited State   3:      Singlet-A      6.4598 eV  191.93 nm  f=0.0016  <S**2>=0.000
      13 -> 15         0.63376
      13 -> 16        -0.20608
      13 -> 17        -0.16747

 Excited State   4:      Singlet-A      6.7847 eV  182.74 nm  f=0.0080  <S**2>=0.000
      13 -> 15         0.21978
      13 -> 16         0.64454

 Excited State   5:      Singlet-A      7.5984 eV  163.17 nm  f=0.0038  <S**2>=0.000
      10 -> 14         0.69300

 Excited State   6:      Singlet-A      7.9098 eV  156.75 nm  f=0.0001  <S**2>=0.000
      13 -> 15         0.11688
      13 -> 16        -0.10293
      13 -> 17         0.65689
      13 -> 21        -0.10889

 Excited State   7:      Singlet-A      8.1831 eV  151.51 nm  f=0.1331  <S**2>=0.000
      11 -> 14         0.69928

 Excited State   8:      Singlet-A      9.3949 eV  131.97 nm  f=0.0559  <S**2>=0.000
       9 -> 15         0.12007
      10 -> 16        -0.21698
      10 -> 18        -0.12802
      12 -> 15         0.47511
      12 -> 17        -0.33851

 Excited State   9:      Singlet-A      9.6402 eV  128.61 nm  f=0.0065  <S**2>=0.000
       7 -> 15         0.14706
      11 -> 15         0.50715
      13 -> 18         0.43418

 Excited State  10:      Singlet-A      9.6725 eV  128.18 nm  f=0.1813  <S**2>=0.000
      10 -> 16        -0.14714
      12 -> 16         0.64141
      12 -> 19        -0.14900

 Excited State  11:      Singlet-A      9.8492 eV  125.88 nm  f=0.0022  <S**2>=0.000
       7 -> 16        -0.16037
      11 -> 16         0.45153
      13 -> 18        -0.13525
      13 -> 19         0.46874

 Excited State  12:      Singlet-A     10.0290 eV  123.63 nm  f=0.0007  <S**2>=0.000
       5 -> 14         0.10156
       9 -> 14         0.67620

 Excited State  13:      Singlet-A     10.1907 eV  121.66 nm  f=0.0923  <S**2>=0.000
       8 -> 15         0.12334
      10 -> 15         0.32860
      12 -> 15         0.40449
      12 -> 16         0.11996
      12 -> 17         0.37369

 Excited State  14:      Singlet-A     10.3970 eV  119.25 nm  f=0.0442  <S**2>=0.000
       8 -> 15        -0.10139
       9 -> 15        -0.20862
      10 -> 15         0.51593
      10 -> 18         0.14788
      12 -> 17        -0.27603
      13 -> 18         0.11443

 Excited State  15:      Singlet-A     10.4728 eV  118.39 nm  f=0.0040  <S**2>=0.000
       9 -> 14         0.10007
      10 -> 15        -0.10484
      11 -> 15        -0.39689
      11 -> 16        -0.10087
      13 -> 15        -0.14891
      13 -> 18         0.40997
      13 -> 19         0.27531

 The electronic state is 1-A.
 Alpha  occ. eigenvalues --   -1.86258  -1.12253  -0.90530  -0.81064  -0.75391
 Alpha  occ. eigenvalues --   -0.68522  -0.64587  -0.59395  -0.55367  -0.48527
 Alpha  occ. eigenvalues --   -0.46459  -0.44337  -0.32612
 Alpha virt. eigenvalues --    0.05777   0.15549   0.16660   0.23012   0.27565
 Alpha virt. eigenvalues --    0.28255   0.33854   0.37125   0.50505   0.56859
 Alpha virt. eigenvalues --    0.63078

 Mulliken charges:
               1
     1  C   -0.142355
     2  C   -2.061272
     3  O    3.440608
     4  C   -2.002090
     5  C   -0.196095
     6  H    0.212203
     7  H    0.269859
     8  H    0.301747
     9  H    0.177395
 Sum of Mulliken charges =   0.00000

 Dipole moment (field-independent basis, Debye):
    X=              2.0606    Y=             -9.3812    Z=              0.4062  Tot=              9.6134
 N-N= 1.044221156177D+02 E-N=-1.699284468471D+02  KE=-1.440269271227D+01
 Orbital energies and kinetic energies (alpha):
                                 1                 2
   1         O                -1.862583         -1.279339
   2         O                -1.122528         -0.948611
   3         O                -0.905303         -0.790807
   4         O                -0.810637         -0.543679
   5         O                -0.753906         -0.643531
   6         O                -0.685220         -0.557674
   7         O                -0.645871         -0.489712

 Normal termination of Gaussian 09 at Tue Dec 15 17:07:40 2015.
