 Gaussian 09, Revision D.01,
 Gaussian 09:  ES64L-G09RevD.01 24-Apr-2013

 ------------------------------------------------------------
 #P AM1(Input,print) CIS(Singlets,NStates=15) pop(full) force
 ------------------------------------------------------------

 -----------------
 AM1-Reparam Input
 -----------------
 Symbolic Z-matrix:
 Charge =  0 Multiplicity = 1

                         Standard orientation:
 ---------------------------------------------------------------------
 Center     Atomic      Atomic             Coordinates (Angstroms)
 Number     Number       Type             X           Y           Z
 ---------------------------------------------------------------------
      1          6           0        0.840675    0.877418   -0.029393
      2          6           0        1.038816   -0.456998    0.034124
      3          8           0       -0.116515   -1.147392   -0.019207
      4          6           0       -1.156456   -0.208652   -0.009037
      5          6           0       -0.596202    1.016042    0.020733
      6          1           0       -1.148709    1.900270    0.001793
      7          1           0       -2.129475   -0.596731    0.043148
      8          1           0        1.885026   -1.071493    0.022402
      9          1           0        1.564279    1.580225   -0.012250
 ---------------------------------------------------------------------

 SCF Done:  E(RAM1) =   2.85880960594     A.U. after   13 cycles

 Excitation energies and oscillator strengths:

 Excited State   1:      Singlet-A      5.2025 eV  238.32 nm  f=0.3408  <S**2>=0.000
      13 -> 14         0.69514
 This state for optimization and/or second-order correction.
 Total Energy, E(CIS) =   3.04999616828
 Copying the excited state density for this state as the 1-particle RhoCI density.

 Excited State   2:      Singlet-A      6.3184 eV  196.23 nm  f=0.0028  <S**2>=0.000
      11 -> 15         0.11198
      13 -> 15         0.65072
      13 -> 17         0.20590
      13 -> 18        -0.12633

 Excited State   3:      Singlet-A      6.7076 eV  184.84 nm  f=0.0014  <S**2>=0.000
       9 -> 14        -0.10290
      12 -> 14         0.63257
      13 -> 16         0.25543
      13 -> 18         0.11022

 Excited State   4:      Singlet-A      6.7762 eV  182.97 nm  f=0.0027  <S**2>=0.000
      11 -> 16        -0.10210
      12 -> 14        -0.28654
      13 -> 16         0.58344
      13 -> 17         0.11558
      13 -> 18         0.21055

 Excited State   5:      Singlet-A      7.6531 eV  162.00 nm  f=0.0070  <S**2>=0.000
      10 -> 14         0.16070
      13 -> 15        -0.17732
      13 -> 17         0.37918
      13 -> 18        -0.29533
      13 -> 19        -0.33876
      13 -> 20        -0.23974
      13 -> 21        -0.13183

 Excited State   6:      Singlet-A      7.8404 eV  158.14 nm  f=0.0063  <S**2>=0.000
      10 -> 14         0.65693
      13 -> 18         0.12861
      13 -> 19         0.13448
      13 -> 20         0.11354

 Excited State   7:      Singlet-A      8.0301 eV  154.40 nm  f=0.0154  <S**2>=0.000
      10 -> 14        -0.16198
      11 -> 16         0.11335
      13 -> 15        -0.11497
      13 -> 16        -0.16018
      13 -> 17         0.53026
      13 -> 18         0.14397
      13 -> 19         0.28447
      13 -> 20         0.17191

 Excited State   8:      Singlet-A      8.5475 eV  145.05 nm  f=0.0015  <S**2>=0.000
      13 -> 16        -0.15309
      13 -> 18         0.50231
      13 -> 19        -0.42963

 Excited State   9:      Singlet-A      8.6083 eV  144.03 nm  f=0.1003  <S**2>=0.000
      11 -> 14         0.67294

 Excited State  10:      Singlet-A      9.2649 eV  133.82 nm  f=0.0017  <S**2>=0.000
      13 -> 18        -0.18183
      13 -> 19        -0.30072
      13 -> 20         0.52576
      13 -> 21         0.29945

 Excited State  11:      Singlet-A      9.3634 eV  132.41 nm  f=0.0309  <S**2>=0.000
       8 -> 15         0.12673
       9 -> 18         0.11985
      10 -> 16         0.12943
      10 -> 17         0.19105
      12 -> 15         0.43946
      12 -> 16        -0.18964
      12 -> 17         0.15291
      12 -> 18        -0.19886
      12 -> 19        -0.19868
      13 -> 21        -0.14213

 Excited State  12:      Singlet-A      9.5955 eV  129.21 nm  f=0.0888  <S**2>=0.000
      12 -> 15         0.14050
      13 -> 20        -0.31549
      13 -> 21         0.59476

 Excited State  13:      Singlet-A      9.8163 eV  126.30 nm  f=0.0557  <S**2>=0.000
       9 -> 15         0.10074
      10 -> 15        -0.28967
      10 -> 17        -0.17685
      11 -> 14        -0.10749
      11 -> 15         0.10801
      12 -> 15         0.38925
      12 -> 16         0.31965
      12 -> 18         0.12320
      12 -> 19         0.20956

 Excited State  14:      Singlet-A      9.8780 eV  125.51 nm  f=0.1680  <S**2>=0.000
       9 -> 14        -0.14786
       9 -> 16         0.13071
      10 -> 15         0.16013
      10 -> 16         0.22286
      10 -> 17         0.15597
      12 -> 16         0.48461
      12 -> 17         0.18331
      12 -> 19        -0.19251

 Excited State  15:      Singlet-A      9.9707 eV  124.35 nm  f=0.0076  <S**2>=0.000
       9 -> 14         0.63100
      11 -> 15        -0.20859
      12 -> 14         0.10362
      12 -> 16         0.10680

 The electronic state is 1-A.
 Alpha  occ. eigenvalues --   -1.71742  -1.12181  -0.93489  -0.80092  -0.75653
 Alpha  occ. eigenvalues --   -0.67078  -0.63523  -0.54276  -0.50072  -0.44015
 Alpha  occ. eigenvalues --   -0.43263  -0.40117  -0.28173
 Alpha virt. eigenvalues --    0.11306   0.18077   0.20086   0.25056   0.27526
 Alpha virt. eigenvalues --    0.28908   0.30584   0.31046   0.36101   0.45108
 Alpha virt. eigenvalues --    0.49077

 Mulliken charges:
               1
     1  C   -0.168587
     2  C   -1.942762
     3  O    3.212951
     4  C   -1.932354
     5  C   -0.112881
     6  H    0.177356
     7  H    0.291979
     8  H    0.293045
     9  H    0.181252
 Sum of Mulliken charges =   0.00000

 Dipole moment (field-independent basis, Debye):
    X=             -0.8605    Y=            -10.6946    Z=             -0.3364  Tot=             10.7345
 N-N= 1.041618854603D+02 E-N=-1.693197986875D+02  KE=-1.481286609912D+01
 Orbital energies and kinetic energies (alpha):
                                 1                 2
   1         O                -1.717424         -1.204348
   2         O                -1.121812         -0.990920
   3         O                -0.934891         -0.859184
   4         O                -0.800919         -0.607369
   5         O                -0.756529         -0.680701
   6         O                -0.670776         -0.568198
   7         O                -0.635231         -0.519789

 Normal termination of Gaussian 09 at Tue Dec 15 17:06:05 2015.
