 Gaussian 09, Revision D.01,
 Gaussian 09:  ES64L-G09RevD.01 24-Apr-2013

 ------------------------------------------------------------
 #P AM1(Input,print) CIS(Singlets,NStates=15) pop(full) force
 ------------------------------------------------------------

 -----------------
 AM1-Reparam Input
 -----------------
 Symbolic Z-matrix:
 Charge =  0 Multiplicity = 1

                         Standard orientation:
 ---------------------------------------------------------------------
 Center     Atomic      Atomic             Coordinates (Angstroms)
 Number     Number       Type             X           Y           Z
 ---------------------------------------------------------------------
      1          6           0        0.840675    0.877418   -0.029393
      2          6           0        1.038816   -0.456998    0.034124
      3          8           0       -0.116515   -1.147392   -0.019207
      4          6           0       -1.156456   -0.208652   -0.009037
      5          6           0       -0.596202    1.016042    0.020733
      6          1           0       -1.148709    1.900270    0.001793
      7          1           0       -2.129475   -0.596731    0.043148
      8          1           0        1.885026   -1.071493    0.022402
      9          1           0        1.564279    1.580225   -0.012250
 ---------------------------------------------------------------------

 SCF Done:  E(RAM1) =   1.41319999794     A.U. after   13 cycles

 Excitation energies and oscillator strengths:

 Excited State   1:      Singlet-A      5.8618 eV  211.51 nm  f=0.3108  <S**2>=0.000
      13 -> 14         0.69261
 This state for optimization and/or second-order correction.
 Total Energy, E(CIS) =   1.62861538149
 Copying the excited state density for this state as the 1-particle RhoCI density.

 Excited State   2:      Singlet-A      6.1594 eV  201.29 nm  f=0.0002  <S**2>=0.000
      12 -> 15         0.10842
      13 -> 15         0.66556
      13 -> 17         0.16676

 Excited State   3:      Singlet-A      6.6797 eV  185.61 nm  f=0.0008  <S**2>=0.000
      12 -> 16        -0.11516
      13 -> 16         0.65240
      13 -> 21         0.10203
      13 -> 22        -0.10617

 Excited State   4:      Singlet-A      7.4050 eV  167.43 nm  f=0.0009  <S**2>=0.000
      11 -> 14         0.64806
      12 -> 14         0.23338

 Excited State   5:      Singlet-A      7.6588 eV  161.89 nm  f=0.0123  <S**2>=0.000
      13 -> 15        -0.15680
      13 -> 17         0.63686
      13 -> 22         0.18954

 Excited State   6:      Singlet-A      7.9843 eV  155.28 nm  f=0.0023  <S**2>=0.000
      12 -> 16        -0.10218
      13 -> 16         0.12736
      13 -> 17        -0.18013
      13 -> 19         0.36425
      13 -> 22         0.51895

 Excited State   7:      Singlet-A      8.2723 eV  149.88 nm  f=0.0013  <S**2>=0.000
      11 -> 14         0.17896
      12 -> 14        -0.45621
      13 -> 18         0.48320

 Excited State   8:      Singlet-A      8.4233 eV  147.19 nm  f=0.0018  <S**2>=0.000
      10 -> 14         0.68831

 Excited State   9:      Singlet-A      8.6590 eV  143.19 nm  f=0.0025  <S**2>=0.000
      12 -> 15        -0.14069
      13 -> 19        -0.20341
      13 -> 20         0.56783
      13 -> 21        -0.29414

 Excited State  10:      Singlet-A      8.9029 eV  139.26 nm  f=0.0032  <S**2>=0.000
      13 -> 19         0.53674
      13 -> 20         0.17771
      13 -> 22        -0.35657

 Excited State  11:      Singlet-A      9.1210 eV  135.93 nm  f=0.1917  <S**2>=0.000
      11 -> 14        -0.14449
      12 -> 14         0.38864
      12 -> 15         0.10265
      12 -> 16        -0.11562
      13 -> 18         0.41478
      13 -> 21        -0.30418

 Excited State  12:      Singlet-A      9.1594 eV  135.36 nm  f=0.0783  <S**2>=0.000
      12 -> 14        -0.19866
      12 -> 15         0.42032
      13 -> 18        -0.19899
      13 -> 20        -0.14804
      13 -> 21        -0.35507
      13 -> 22         0.14724

 Excited State  13:      Singlet-A      9.2754 eV  133.67 nm  f=0.0310  <S**2>=0.000
      12 -> 14         0.10285
      12 -> 15         0.43453
      12 -> 16         0.17131
      13 -> 15        -0.11077
      13 -> 18         0.12621
      13 -> 20         0.26740
      13 -> 21         0.33678

 Excited State  14:      Singlet-A      9.7440 eV  127.24 nm  f=0.0733  <S**2>=0.000
       8 -> 15         0.22156
       9 -> 15        -0.13202
      10 -> 16         0.11277
      10 -> 17         0.15217
      11 -> 15         0.48744
      11 -> 16        -0.23253
      11 -> 19         0.11625
      12 -> 16        -0.10618

 Excited State  15:      Singlet-A      9.8090 eV  126.40 nm  f=0.0037  <S**2>=0.000
      11 -> 16        -0.17542
      12 -> 16         0.56439
      13 -> 16         0.14508
      13 -> 21        -0.20545
      13 -> 23         0.12097

 The electronic state is 1-A.
 Alpha  occ. eigenvalues --   -1.89117  -1.19244  -0.96969  -0.79727  -0.77548
 Alpha  occ. eigenvalues --   -0.68315  -0.61729  -0.50370  -0.47985  -0.40942
 Alpha  occ. eigenvalues --   -0.37817  -0.37182  -0.24338
 Alpha virt. eigenvalues --    0.17367   0.21369   0.23494   0.29204   0.29528
 Alpha virt. eigenvalues --    0.32139   0.33569   0.34400   0.35132   0.40172
 Alpha virt. eigenvalues --    0.45256

 Mulliken charges:
               1
     1  C   -0.092471
     2  C   -1.537762
     3  O    2.776940
     4  C   -1.532750
     5  C   -0.047587
     6  H    0.062613
     7  H    0.151758
     8  H    0.150623
     9  H    0.068635
 Sum of Mulliken charges =   0.00000

 Dipole moment (field-independent basis, Debye):
    X=             -0.7708    Y=             -9.7179    Z=             -0.2973  Tot=              9.7529
 N-N= 1.038120451028D+02 E-N=-1.702692112471D+02  KE=-1.590284003433D+01
 Orbital energies and kinetic energies (alpha):
                                 1                 2
   1         O                -1.891167         -1.378249
   2         O                -1.192440         -1.079921
   3         O                -0.969685         -0.894574
   4         O                -0.797271         -0.645363
   5         O                -0.775476         -0.698931
   6         O                -0.683145         -0.625837
   7         O                -0.617293         -0.541128

 Normal termination of Gaussian 09 at Tue Dec 15 17:08:07 2015.
