 Gaussian 09, Revision D.01,
 Gaussian 09:  ES64L-G09RevD.01 24-Apr-2013

 ------------------------------------------------------------
 #P AM1(Input,print) CIS(Singlets,NStates=15) pop(full) force
 ------------------------------------------------------------

 -----------------
 AM1-Reparam Input
 -----------------
 Symbolic Z-matrix:
 Charge =  0 Multiplicity = 1

                         Standard orientation:
 ---------------------------------------------------------------------
 Center     Atomic      Atomic             Coordinates (Angstroms)
 Number     Number       Type             X           Y           Z
 ---------------------------------------------------------------------
      1          6           0        0.070270    1.220215    0.033094
      2          6           0        1.095662    0.248151    0.007007
      3          8           0        0.629743   -0.973439   -0.014514
      4          6           0       -0.702132   -0.852046    0.007143
      5          6           0       -1.140103    0.409482   -0.025611
      6          1           0       -2.147956    0.807186   -0.000010
      7          1           0       -1.313116   -1.781554    0.064889
      8          1           0        2.230622    0.359411   -0.013713
      9          1           0        0.250327    2.247660   -0.064854
 ---------------------------------------------------------------------

 SCF Done:  E(RAM1) =   1.37128894119     A.U. after   13 cycles

 Excitation energies and oscillator strengths:

 Excited State   1:      Singlet-A      5.9667 eV  207.79 nm  f=0.2975  <S**2>=0.000
      13 -> 14         0.67366
      13 -> 15        -0.14050
 This state for optimization and/or second-order correction.
 Total Energy, E(CIS) =   1.59056005534
 Copying the excited state density for this state as the 1-particle RhoCI density.

 Excited State   2:      Singlet-A      6.1946 eV  200.15 nm  f=0.0245  <S**2>=0.000
      13 -> 14         0.15702
      13 -> 15         0.64363
      13 -> 17        -0.16818

 Excited State   3:      Singlet-A      6.3996 eV  193.74 nm  f=0.0029  <S**2>=0.000
      12 -> 15         0.12963
      13 -> 16         0.65770
      13 -> 21         0.12282

 Excited State   4:      Singlet-A      7.4020 eV  167.50 nm  f=0.0016  <S**2>=0.000
      11 -> 14         0.65821
      12 -> 14         0.21396

 Excited State   5:      Singlet-A      7.7091 eV  160.83 nm  f=0.0101  <S**2>=0.000
      12 -> 15        -0.10522
      13 -> 15         0.16057
      13 -> 17         0.65414

 Excited State   6:      Singlet-A      8.0650 eV  153.73 nm  f=0.0027  <S**2>=0.000
      12 -> 15        -0.17382
      13 -> 18        -0.32181
      13 -> 20         0.10156
      13 -> 21         0.27598
      13 -> 22         0.49476

 Excited State   7:      Singlet-A      8.3697 eV  148.13 nm  f=0.0093  <S**2>=0.000
      10 -> 14         0.63839
      12 -> 14         0.23671

 Excited State   8:      Singlet-A      8.4303 eV  147.07 nm  f=0.0610  <S**2>=0.000
      10 -> 14        -0.25848
      11 -> 14        -0.18216
      12 -> 14         0.58274
      13 -> 19         0.19533

 Excited State   9:      Singlet-A      8.6052 eV  144.08 nm  f=0.0034  <S**2>=0.000
      12 -> 15        -0.36539
      13 -> 17        -0.13878
      13 -> 18         0.45808
      13 -> 20         0.23990
      13 -> 21         0.22562

 Excited State  10:      Singlet-A      8.7934 eV  141.00 nm  f=0.0023  <S**2>=0.000
      12 -> 15         0.48941
      13 -> 15         0.12405
      13 -> 16        -0.14977
      13 -> 18         0.19516
      13 -> 20         0.21370
      13 -> 21         0.30495

 Excited State  11:      Singlet-A      8.8785 eV  139.64 nm  f=0.0012  <S**2>=0.000
      13 -> 18        -0.35577
      13 -> 20         0.44138
      13 -> 22        -0.38704

 Excited State  12:      Singlet-A      9.1266 eV  135.85 nm  f=0.0424  <S**2>=0.000
      12 -> 16         0.57615
      13 -> 20         0.19343
      13 -> 21        -0.16458
      13 -> 22         0.19519

 Excited State  13:      Singlet-A      9.3922 eV  132.01 nm  f=0.0584  <S**2>=0.000
      12 -> 16         0.28844
      13 -> 19        -0.12040
      13 -> 20        -0.35065
      13 -> 21         0.44215
      13 -> 22        -0.19931

 Excited State  14:      Singlet-A      9.5843 eV  129.36 nm  f=0.2102  <S**2>=0.000
       6 -> 16         0.10175
       8 -> 15        -0.25347
       8 -> 16        -0.12246
       9 -> 16        -0.10090
      10 -> 15        -0.20049
      10 -> 17         0.16187
      11 -> 16         0.52006

 Excited State  15:      Singlet-A      9.7584 eV  127.05 nm  f=0.2269  <S**2>=0.000
       8 -> 16         0.12193
       9 -> 15         0.11264
      10 -> 15        -0.13956
      11 -> 15        -0.30285
      12 -> 14        -0.19152
      13 -> 19         0.48135
      13 -> 21         0.12309

 The electronic state is 1-A.
 Alpha  occ. eigenvalues --   -1.90688  -1.18247  -0.94786  -0.79491  -0.76060
 Alpha  occ. eigenvalues --   -0.67387  -0.62580  -0.49060  -0.47725  -0.41070
 Alpha  occ. eigenvalues --   -0.38343  -0.36829  -0.25067
 Alpha virt. eigenvalues --    0.17015   0.19956   0.21247   0.28750   0.31073
 Alpha virt. eigenvalues --    0.32697   0.33044   0.33804   0.35316   0.42771
 Alpha virt. eigenvalues --    0.48074

 Mulliken charges:
               1
     1  C   -0.087957
     2  C   -1.581589
     3  O    2.785740
     4  C   -1.557851
     5  C   -0.016633
     6  H    0.058565
     7  H    0.166697
     8  H    0.166726
     9  H    0.066303
 Sum of Mulliken charges =   0.00000

 Dipole moment (field-independent basis, Debye):
    X=              4.8899    Y=             -8.0059    Z=             -0.2561  Tot=              9.3846
 N-N= 1.036885007866D+02 E-N=-1.702148675985D+02  KE=-1.587287279985D+01
 Orbital energies and kinetic energies (alpha):
                                 1                 2
   1         O                -1.906879         -1.410598
   2         O                -1.182469         -1.074894
   3         O                -0.947861         -0.864475
   4         O                -0.794911         -0.632327
   5         O                -0.760603         -0.686744
   6         O                -0.673868         -0.625104
   7         O                -0.625803         -0.543078

 Normal termination of Gaussian 09 at Tue Dec 15 17:08:07 2015.
