 Gaussian 09, Revision D.01,
 Gaussian 09:  ES64L-G09RevD.01 24-Apr-2013

 ------------------------------------------------------------
 #P AM1(Input,print) CIS(Singlets,NStates=15) pop(full) force
 ------------------------------------------------------------

 -----------------
 AM1-Reparam Input
 -----------------
 Symbolic Z-matrix:
 Charge =  0 Multiplicity = 1

                         Standard orientation:
 ---------------------------------------------------------------------
 Center     Atomic      Atomic             Coordinates (Angstroms)
 Number     Number       Type             X           Y           Z
 ---------------------------------------------------------------------
      1          6           0       -0.970438    0.756641   -0.000216
      2          6           0       -0.964119   -0.659446    0.018662
      3          8           0        0.356775   -1.098251   -0.032885
      4          6           0        1.120594   -0.024233    0.048534
      5          6           0        0.427731    1.087000   -0.030332
      6          1           0        0.845592    2.120693   -0.014245
      7          1           0        2.155566   -0.269430    0.017029
      8          1           0       -1.711403   -1.383731    0.010699
      9          1           0       -1.826562    1.358707    0.029712
 ---------------------------------------------------------------------

 SCF Done:  E(RAM1) =   2.54211959504     A.U. after   14 cycles

 Excitation energies and oscillator strengths:

 Excited State   1:      Singlet-A      5.3382 eV  232.26 nm  f=0.3448  <S**2>=0.000
      13 -> 14         0.69547
 This state for optimization and/or second-order correction.
 Total Energy, E(CIS) =   2.73829596031
 Copying the excited state density for this state as the 1-particle RhoCI density.

 Excited State   2:      Singlet-A      6.1741 eV  200.81 nm  f=0.0011  <S**2>=0.000
      11 -> 15         0.11395
      13 -> 15         0.67331
      13 -> 17         0.11085
      13 -> 18        -0.10174

 Excited State   3:      Singlet-A      6.7825 eV  182.80 nm  f=0.0043  <S**2>=0.000
      12 -> 14        -0.14470
      13 -> 16         0.63640
      13 -> 17         0.16738
      13 -> 19         0.13822

 Excited State   4:      Singlet-A      6.8695 eV  180.49 nm  f=0.0002  <S**2>=0.000
       9 -> 14        -0.11079
      12 -> 14         0.67985
      13 -> 16         0.13554

 Excited State   5:      Singlet-A      7.8904 eV  157.13 nm  f=0.0063  <S**2>=0.000
      10 -> 14         0.66339
      11 -> 14        -0.12015
      13 -> 17        -0.15458

 Excited State   6:      Singlet-A      7.9779 eV  155.41 nm  f=0.0008  <S**2>=0.000
      10 -> 14         0.11886
      13 -> 16        -0.12227
      13 -> 17         0.22368
      13 -> 18         0.53261
      13 -> 21         0.33670

 Excited State   7:      Singlet-A      8.2373 eV  150.51 nm  f=0.0070  <S**2>=0.000
      10 -> 14         0.13532
      13 -> 15        -0.12792
      13 -> 17         0.58629
      13 -> 18        -0.24678
      13 -> 19        -0.16517

 Excited State   8:      Singlet-A      8.6826 eV  142.80 nm  f=0.0884  <S**2>=0.000
      10 -> 14         0.12143
      11 -> 14         0.66774
      12 -> 15         0.14224

 Excited State   9:      Singlet-A      8.9865 eV  137.97 nm  f=0.0039  <S**2>=0.000
      11 -> 16         0.17078
      13 -> 16        -0.12432
      13 -> 17         0.11725
      13 -> 19         0.64281

 Excited State  10:      Singlet-A      9.2506 eV  134.03 nm  f=0.1173  <S**2>=0.000
       8 -> 15         0.12181
      11 -> 14        -0.14686
      12 -> 15         0.62325
      12 -> 16        -0.12417
      12 -> 18        -0.16070

 Excited State  11:      Singlet-A      9.4429 eV  131.30 nm  f=0.0117  <S**2>=0.000
      10 -> 15         0.11159
      12 -> 15         0.10461
      12 -> 16         0.10664
      12 -> 17         0.11154
      13 -> 18        -0.31937
      13 -> 20         0.16558
      13 -> 21         0.51613

 Excited State  12:      Singlet-A      9.5230 eV  130.19 nm  f=0.0295  <S**2>=0.000
       9 -> 15         0.18697
      10 -> 15         0.23873
      10 -> 16         0.12409
      10 -> 17         0.20054
      10 -> 18        -0.10269
      11 -> 15        -0.13903
      12 -> 15         0.15489
      12 -> 16         0.25073
      12 -> 17         0.22884
      12 -> 18         0.20084
      13 -> 18         0.14025
      13 -> 21        -0.24519

 Excited State  13:      Singlet-A      9.8134 eV  126.34 nm  f=0.0266  <S**2>=0.000
       7 -> 15        -0.13914
      11 -> 15         0.59204
      13 -> 15        -0.11885
      13 -> 20        -0.25694

 Excited State  14:      Singlet-A      9.9010 eV  125.22 nm  f=0.0718  <S**2>=0.000
       9 -> 14         0.10017
      11 -> 15         0.22187
      11 -> 16         0.13946
      13 -> 20         0.60662
      13 -> 21        -0.17880

 Excited State  15:      Singlet-A     10.0022 eV  123.96 nm  f=0.0022  <S**2>=0.000
       9 -> 14         0.67007
      12 -> 14         0.10829

 The electronic state is 1-A.
 Alpha  occ. eigenvalues --   -1.74655  -1.15595  -0.96175  -0.81199  -0.76310
 Alpha  occ. eigenvalues --   -0.67710  -0.64835  -0.55088  -0.50232  -0.44366
 Alpha  occ. eigenvalues --   -0.43656  -0.40928  -0.29074
 Alpha virt. eigenvalues --    0.11107   0.16115   0.19883   0.25222   0.27380
 Alpha virt. eigenvalues --    0.28762   0.31018   0.31775   0.39687   0.48866
 Alpha virt. eigenvalues --    0.53395

 Mulliken charges:
               1
     1  C   -0.034294
     2  C   -1.938891
     3  O    3.224570
     4  C   -1.898738
     5  C   -0.095509
     6  H    0.122981
     7  H    0.253023
     8  H    0.249747
     9  H    0.117112
 Sum of Mulliken charges =   0.00000

 Dipole moment (field-independent basis, Debye):
    X=              3.8711    Y=             -9.7996    Z=             -0.9383  Tot=             10.5781
 N-N= 1.038455520178D+02 E-N=-1.687602649504D+02  KE=-1.505013865261D+01
 Orbital energies and kinetic energies (alpha):
                                 1                 2
   1         O                -1.746549         -1.242978
   2         O                -1.155948         -1.009462
   3         O                -0.961751         -0.862452
   4         O                -0.811988         -0.625317
   5         O                -0.763103         -0.688978
   6         O                -0.677103         -0.567909
   7         O                -0.648351         -0.521676

 Normal termination of Gaussian 09 at Tue Dec 15 17:06:14 2015.
