 Gaussian 09, Revision D.01,
 Gaussian 09:  ES64L-G09RevD.01 24-Apr-2013

 ------------------------------------------------------------
 #P AM1(Input,print) CIS(Singlets,NStates=15) pop(full) force
 ------------------------------------------------------------

 -----------------
 AM1-Reparam Input
 -----------------
 Symbolic Z-matrix:
 Charge =  0 Multiplicity = 1

                         Standard orientation:
 ---------------------------------------------------------------------
 Center     Atomic      Atomic             Coordinates (Angstroms)
 Number     Number       Type             X           Y           Z
 ---------------------------------------------------------------------
      1          6           0       -0.684561    0.942479   -0.004022
      2          6           0       -1.128426   -0.256752    0.028697
      3          8           0       -0.062078   -1.183638   -0.026626
      4          6           0        1.134487   -0.371953    0.024121
      5          6           0        0.738963    0.954621   -0.025195
      6          1           0        1.430802    1.758637    0.020651
      7          1           0        2.086086   -0.898317    0.043721
      8          1           0       -2.030648   -0.814098   -0.001215
      9          1           0       -1.352394    1.812515    0.008243
 ---------------------------------------------------------------------

 SCF Done:  E(RAM1) =   1.83940502626     A.U. after   14 cycles

 Excitation energies and oscillator strengths:

 Excited State   1:      Singlet-A      5.3386 eV  232.24 nm  f=0.3345  <S**2>=0.000
      13 -> 14         0.69072
 This state for optimization and/or second-order correction.
 Total Energy, E(CIS) =   2.03559423241
 Copying the excited state density for this state as the 1-particle RhoCI density.

 Excited State   2:      Singlet-A      6.3813 eV  194.29 nm  f=0.0016  <S**2>=0.000
      10 -> 15         0.10399
      13 -> 15         0.67869

 Excited State   3:      Singlet-A      6.7892 eV  182.62 nm  f=0.0038  <S**2>=0.000
      13 -> 16         0.66804
      13 -> 17        -0.13849
      13 -> 19         0.12503

 Excited State   4:      Singlet-A      7.5410 eV  164.41 nm  f=0.0009  <S**2>=0.000
      12 -> 14         0.69985

 Excited State   5:      Singlet-A      8.0779 eV  153.49 nm  f=0.0001  <S**2>=0.000
      11 -> 14        -0.11456
      13 -> 16         0.10326
      13 -> 17         0.25658
      13 -> 18         0.58853
      13 -> 22         0.22299

 Excited State   6:      Singlet-A      8.1875 eV  151.43 nm  f=0.0066  <S**2>=0.000
      11 -> 14         0.68425
      13 -> 18         0.14317

 Excited State   7:      Singlet-A      8.6582 eV  143.20 nm  f=0.0109  <S**2>=0.000
      13 -> 15         0.10424
      13 -> 17         0.61429
      13 -> 18        -0.24044
      13 -> 19         0.11889

 Excited State   8:      Singlet-A      9.1123 eV  136.06 nm  f=0.0532  <S**2>=0.000
      10 -> 14         0.65022
      12 -> 15        -0.12628
      13 -> 20         0.16960

 Excited State   9:      Singlet-A      9.3843 eV  132.12 nm  f=0.0010  <S**2>=0.000
      10 -> 16         0.12946
      13 -> 16        -0.10402
      13 -> 18         0.10761
      13 -> 19         0.66138

 Excited State  10:      Singlet-A      9.7326 eV  127.39 nm  f=0.0381  <S**2>=0.000
       8 -> 15        -0.13117
      11 -> 15        -0.17334
      11 -> 16        -0.10086
      11 -> 17         0.17117
      11 -> 18        -0.15098
      12 -> 15         0.36447
      12 -> 16        -0.26630
      12 -> 17         0.19559
      12 -> 18         0.27060

 Excited State  11:      Singlet-A      9.8288 eV  126.14 nm  f=0.1967  <S**2>=0.000
       9 -> 15         0.10858
      11 -> 15         0.21669
      11 -> 17        -0.11248
      11 -> 18         0.11399
      12 -> 15         0.54958
      12 -> 16         0.12050
      12 -> 17        -0.20964
      12 -> 18        -0.11112

 Excited State  12:      Singlet-A     10.2659 eV  120.77 nm  f=0.1009  <S**2>=0.000
      10 -> 14        -0.16053
      13 -> 20         0.61323
      13 -> 21         0.24613

 Excited State  13:      Singlet-A     10.3197 eV  120.14 nm  f=0.0026  <S**2>=0.000
      13 -> 18        -0.21477
      13 -> 20        -0.10558
      13 -> 22         0.64169

 Excited State  14:      Singlet-A     10.4242 eV  118.94 nm  f=0.0884  <S**2>=0.000
      10 -> 15         0.14423
      13 -> 20        -0.22622
      13 -> 21         0.62445

 Excited State  15:      Singlet-A     10.6053 eV  116.91 nm  f=0.0035  <S**2>=0.000
       7 -> 15        -0.12917
      10 -> 15         0.59496
      10 -> 16         0.25176
      13 -> 15        -0.11879
      13 -> 21        -0.10001
      13 -> 22         0.11939

 The electronic state is 1-A.
 Alpha  occ. eigenvalues --   -1.97113  -1.27119  -1.00435  -0.88796  -0.84644
 Alpha  occ. eigenvalues --   -0.76162  -0.73005  -0.62792  -0.61829  -0.51345
 Alpha  occ. eigenvalues --   -0.50525  -0.48473  -0.35041
 Alpha virt. eigenvalues --    0.05596   0.11282   0.13488   0.20193   0.21722
 Alpha virt. eigenvalues --    0.23912   0.25015   0.26909   0.28315   0.33923
 Alpha virt. eigenvalues --    0.37854

 Mulliken charges:
               1
     1  C   -0.163869
     2  C   -1.816430
     3  O    3.175424
     4  C   -1.879335
     5  C   -0.134186
     6  H    0.147135
     7  H    0.267141
     8  H    0.245190
     9  H    0.158928
 Sum of Mulliken charges =   0.00000

 Dipole moment (field-independent basis, Debye):
    X=             -0.9965    Y=            -11.8623    Z=             -0.6864  Tot=             11.9239
 N-N= 1.049585029526D+02 E-N=-1.694870555616D+02  KE=-1.560553562994D+01
 Orbital energies and kinetic energies (alpha):
                                 1                 2
   1         O                -1.971133         -1.321254
   2         O                -1.271188         -1.054837
   3         O                -1.004346         -0.896857
   4         O                -0.887963         -0.599731
   5         O                -0.846440         -0.680541
   6         O                -0.761618         -0.611535
   7         O                -0.730055         -0.543645

 Normal termination of Gaussian 09 at Tue Dec 15 17:08:56 2015.
