 Gaussian 09, Revision D.01,
 Gaussian 09:  ES64L-G09RevD.01 24-Apr-2013

 -------------------------------------------------------
 #P B3LYP/3-21G CIS(Singlets,NStates=15) pop(full) force
 -------------------------------------------------------

 --------
 FuranDFT
 --------
 Symbolic Z-matrix:
 Charge =  0 Multiplicity = 1

                         Standard orientation:
 ---------------------------------------------------------------------
 Center     Atomic      Atomic             Coordinates (Angstroms)
 Number     Number       Type             X           Y           Z
 ---------------------------------------------------------------------
      1          6           0       -0.635852    0.987878    0.013521
      2          6           0       -1.130008   -0.288040    0.007647
      3          8           0       -0.073227   -1.147976    0.000258
      4          6           0        1.100177   -0.403273   -0.007055
      5          6           0        0.726460    0.910716   -0.029787
      6          1           0        1.488692    1.726728    0.064265
      7          1           0        2.010116   -0.945801    0.059112
      8          1           0       -2.049912   -0.717208   -0.032770
      9          1           0       -1.227742    1.876404    0.001369
 ---------------------------------------------------------------------

 SCF Done:  E(RB3LYP) =  -228.742162443     A.U. after   14 cycles

 Excitation energies and oscillator strengths:

 Excited State   1:      Singlet-A      7.1432 eV  173.57 nm  f=0.2330  <S**2>=0.000
      18 -> 19         0.66836
 This state for optimization and/or second-order correction.
 Total Energy, E(CIS) =  -228.479655377
 Copying the excited state density for this state as the 1-particle RhoCI density.

 Excited State   2:      Singlet-A      7.2956 eV  169.94 nm  f=0.0112  <S**2>=0.000
      17 -> 19         0.51660
      18 -> 19        -0.12875
      18 -> 20         0.45243

 Excited State   3:      Singlet-A      8.4145 eV  147.35 nm  f=0.0024  <S**2>=0.000
      16 -> 19        -0.11820
      18 -> 21         0.68112

 Excited State   4:      Singlet-A      8.4373 eV  146.95 nm  f=0.0047  <S**2>=0.000
      16 -> 19         0.69333
      18 -> 21         0.11420

 Excited State   5:      Singlet-A      9.3043 eV  133.25 nm  f=0.0020  <S**2>=0.000
      18 -> 21         0.10223
      18 -> 22         0.68333

 Excited State   6:      Singlet-A      9.6705 eV  128.21 nm  f=0.4854  <S**2>=0.000
      17 -> 19        -0.40459
      17 -> 21         0.13389
      18 -> 20         0.47591

 Excited State   7:      Singlet-A      9.7741 eV  126.85 nm  f=0.0475  <S**2>=0.000
      17 -> 20        -0.32361
      17 -> 21         0.53274
      18 -> 23         0.25428
      18 -> 24         0.11076

 Excited State   8:      Singlet-A      9.9232 eV  124.94 nm  f=0.0098  <S**2>=0.000
      14 -> 19        -0.11329
      15 -> 19         0.52649
      16 -> 20        -0.13607
      17 -> 20         0.12485
      18 -> 23         0.37392
      18 -> 24         0.10923

 Excited State   9:      Singlet-A      9.9544 eV  124.55 nm  f=0.0445  <S**2>=0.000
      15 -> 19        -0.39877
      16 -> 20         0.11231
      17 -> 20         0.23855
      17 -> 21        -0.11455
      18 -> 23         0.44260
      18 -> 24         0.15011

 Excited State  10:      Singlet-A     10.0759 eV  123.05 nm  f=0.1412  <S**2>=0.000
      17 -> 20         0.51923
      17 -> 21         0.39301
      18 -> 23        -0.18433
      18 -> 24         0.10154

 Excited State  11:      Singlet-A     10.2965 eV  120.41 nm  f=0.0079  <S**2>=0.000
      14 -> 19         0.52285
      18 -> 24         0.45377

 Excited State  12:      Singlet-A     10.3674 eV  119.59 nm  f=0.0189  <S**2>=0.000
      14 -> 19        -0.44579
      17 -> 20        -0.10676
      18 -> 23        -0.21801
      18 -> 24         0.47127

 Excited State  13:      Singlet-A     10.7179 eV  115.68 nm  f=0.0010  <S**2>=0.000
      16 -> 20        -0.35817
      17 -> 22         0.59127

 Excited State  14:      Singlet-A     10.7283 eV  115.57 nm  f=0.0083  <S**2>=0.000
      15 -> 19         0.15348
      16 -> 20         0.57135
      17 -> 22         0.36208

 Excited State  15:      Singlet-A     10.8495 eV  114.28 nm  f=0.0051  <S**2>=0.000
      18 -> 25         0.68179

 The electronic state is 1-A.
 Alpha  occ. eigenvalues --  -19.10860 -10.17295 -10.17006 -10.12446 -10.11924
 Alpha  occ. eigenvalues --   -1.11740  -0.81041  -0.74933  -0.59569  -0.58306
 Alpha  occ. eigenvalues --   -0.54139  -0.45738  -0.44272  -0.41778  -0.40376
 Alpha  occ. eigenvalues --   -0.35504  -0.28236  -0.22861
 Alpha virt. eigenvalues --    0.01491   0.08881   0.12905   0.15508   0.18353
 Alpha virt. eigenvalues --    0.19093   0.21714   0.23267   0.34958   0.42359
 Alpha virt. eigenvalues --    0.49241   0.67335   0.69986   0.72524   0.74992

 Mulliken charges:
               1
     1  C   -0.258763
     2  C    0.094929
     3  O   -0.484093
     4  C    0.067967
     5  C   -0.235745
     6  H    0.183878
     7  H    0.221264
     8  H    0.223145
     9  H    0.187416
 Sum of Mulliken charges =   0.00000

 Dipole moment (field-independent basis, Debye):
    X=              0.0609    Y=              0.6525    Z=              0.0909  Tot=              0.6616
 Quadrupole moment (field-independent basis, Debye-Ang):
   XX=            -23.3460   YY=            -28.2370   ZZ=            -31.6889
   XY=             -0.2724   XZ=              0.3845   YZ=              0.0925

 Normal termination of Gaussian 09 at Tue Dec 15 16:21:25 2015.
