 Gaussian 09, Revision D.01,
 Gaussian 09:  ES64L-G09RevD.01 24-Apr-2013

 ------------------------------------------------------------
 #P AM1(Input,print) CIS(Singlets,NStates=15) pop(full) force
 ------------------------------------------------------------

 -----------------
 AM1-Reparam Input
 -----------------
 Symbolic Z-matrix:
 Charge =  0 Multiplicity = 1

                         Standard orientation:
 ---------------------------------------------------------------------
 Center     Atomic      Atomic             Coordinates (Angstroms)
 Number     Number       Type             X           Y           Z
 ---------------------------------------------------------------------
      1          6           0       -0.771177    0.857452   -0.007565
      2          6           0       -1.028867   -0.432706    0.000097
      3          8           0        0.101544   -1.122845   -0.009403
      4          6           0        1.127116   -0.225692    0.001740
      5          6           0        0.584698    0.984843    0.015259
      6          1           0        1.141704    1.894237   -0.041266
      7          1           0        2.137814   -0.626432    0.017541
      8          1           0       -1.978290   -1.078726    0.041361
      9          1           0       -1.584198    1.690297    0.000396
 ---------------------------------------------------------------------

 SCF Done:  E(RAM1) =   1.88689809217     A.U. after   14 cycles

 Excitation energies and oscillator strengths:

 Excited State   1:      Singlet-A      5.8060 eV  213.54 nm  f=0.2842  <S**2>=0.000
      11 -> 17         0.13062
      13 -> 14         0.68201
 This state for optimization and/or second-order correction.
 Total Energy, E(CIS) =   2.10026471546
 Copying the excited state density for this state as the 1-particle RhoCI density.

 Excited State   2:      Singlet-A      6.2040 eV  199.85 nm  f=0.0037  <S**2>=0.000
      10 -> 15         0.13385
      13 -> 15         0.67420
      13 -> 17        -0.10154

 Excited State   3:      Singlet-A      6.7341 eV  184.11 nm  f=0.0020  <S**2>=0.000
      10 -> 16        -0.12891
      13 -> 16         0.65972
      13 -> 17        -0.15757
      13 -> 19        -0.11177

 Excited State   4:      Singlet-A      6.9187 eV  179.20 nm  f=0.0003  <S**2>=0.000
      12 -> 14         0.69755

 Excited State   5:      Singlet-A      7.5978 eV  163.19 nm  f=0.0062  <S**2>=0.000
      11 -> 14         0.68517
      13 -> 17        -0.13304

 Excited State   6:      Singlet-A      8.0127 eV  154.73 nm  f=0.0081  <S**2>=0.000
      11 -> 14         0.14984
      13 -> 16         0.12404
      13 -> 17         0.65098

 Excited State   7:      Singlet-A      8.2174 eV  150.88 nm  f=0.0011  <S**2>=0.000
      13 -> 18         0.63315
      13 -> 21         0.25952

 Excited State   8:      Singlet-A      8.7199 eV  142.19 nm  f=0.0160  <S**2>=0.000
       8 -> 15        -0.15079
      10 -> 14         0.10475
      11 -> 16         0.10136
      11 -> 17        -0.19442
      12 -> 15         0.55476
      12 -> 16        -0.13405
      12 -> 18        -0.19950

 Excited State   9:      Singlet-A      8.9828 eV  138.02 nm  f=0.0712  <S**2>=0.000
       9 -> 15        -0.12763
      10 -> 14        -0.28339
      11 -> 15         0.37589
      11 -> 16         0.12939
      11 -> 17        -0.22408
      11 -> 18        -0.12285
      12 -> 15        -0.21749
      12 -> 16        -0.18949
      12 -> 18        -0.20791
      13 -> 14         0.10020

 Excited State  10:      Singlet-A      9.0326 eV  137.26 nm  f=0.0006  <S**2>=0.000
      13 -> 18         0.13108
      13 -> 19         0.66597

 Excited State  11:      Singlet-A      9.1694 eV  135.21 nm  f=0.0553  <S**2>=0.000
       9 -> 15        -0.14136
      10 -> 14         0.49202
      11 -> 15         0.30715
      11 -> 17        -0.11541
      12 -> 15        -0.13082
      12 -> 16         0.18021
      12 -> 17         0.16340

 Excited State  12:      Singlet-A      9.3775 eV  132.21 nm  f=0.1411  <S**2>=0.000
       9 -> 16         0.13399
      11 -> 15        -0.11882
      11 -> 16         0.36307
      11 -> 17        -0.11658
      11 -> 19        -0.13588
      12 -> 16         0.47256
      12 -> 17        -0.14234
      12 -> 18        -0.15413

 Excited State  13:      Singlet-A      9.7097 eV  127.69 nm  f=0.0166  <S**2>=0.000
      10 -> 14        -0.12526
      10 -> 15         0.50581
      10 -> 16         0.11070
      12 -> 16         0.11283
      12 -> 18         0.10438
      13 -> 15        -0.13142
      13 -> 18        -0.16416
      13 -> 20        -0.12337
      13 -> 21         0.27874

 Excited State  14:      Singlet-A      9.7299 eV  127.43 nm  f=0.0981  <S**2>=0.000
       8 -> 15         0.11392
       9 -> 15         0.12661
      10 -> 14         0.31259
      10 -> 15         0.14822
      11 -> 15        -0.26753
      11 -> 19        -0.14236
      12 -> 15        -0.22066
      12 -> 16        -0.22931
      12 -> 18        -0.23729
      13 -> 21         0.15228

 Excited State  15:      Singlet-A      9.7671 eV  126.94 nm  f=0.0550  <S**2>=0.000
      10 -> 15         0.36069
      13 -> 18         0.12936
      13 -> 20         0.47596
      13 -> 21        -0.30575

 The electronic state is 1-A.
 Alpha  occ. eigenvalues --   -1.96336  -1.24408  -0.98885  -0.81121  -0.80275
 Alpha  occ. eigenvalues --   -0.70848  -0.66155  -0.52309  -0.49196  -0.42440
 Alpha  occ. eigenvalues --   -0.39539  -0.37646  -0.28044
 Alpha virt. eigenvalues --    0.15111   0.17007   0.19899   0.25640   0.28046
 Alpha virt. eigenvalues --    0.30939   0.32675   0.36074   0.37357   0.46142
 Alpha virt. eigenvalues --    0.50893

 Mulliken charges:
               1
     1  C   -0.108917
     2  C   -1.925237
     3  O    3.135576
     4  C   -1.929133
     5  C   -0.089125
     6  H    0.153364
     7  H    0.305632
     8  H    0.307015
     9  H    0.150825
 Sum of Mulliken charges =   0.00000

 Dipole moment (field-independent basis, Debye):
    X=              0.4994    Y=            -10.1806    Z=             -0.0594  Tot=             10.1930
 N-N= 1.050771065774D+02 E-N=-1.713046768690D+02  KE=-1.573168742044D+01
 Orbital energies and kinetic energies (alpha):
                                 1                 2
   1         O                -1.963359         -1.451428
   2         O                -1.244084         -1.097421
   3         O                -0.988852         -0.914684
   4         O                -0.811209         -0.606637
   5         O                -0.802750         -0.691792
   6         O                -0.708479         -0.591661
   7         O                -0.661545         -0.580067

 Normal termination of Gaussian 09 at Tue Dec 15 17:09:56 2015.
