 Gaussian 09, Revision D.01,
 Gaussian 09:  ES64L-G09RevD.01 24-Apr-2013

 ------------------------------------------------------------
 #P AM1(Input,print) CIS(Singlets,NStates=15) pop(full) force
 ------------------------------------------------------------

 -----------------
 AM1-Reparam Input
 -----------------
 Symbolic Z-matrix:
 Charge =  0 Multiplicity = 1

                         Standard orientation:
 ---------------------------------------------------------------------
 Center     Atomic      Atomic             Coordinates (Angstroms)
 Number     Number       Type             X           Y           Z
 ---------------------------------------------------------------------
      1          6           0        0.000000    0.715963   -0.955475
      2          6           0        0.000000    1.092818    0.345627
      3          8           0        0.000000    0.000000    1.157305
      4          6           0        0.000000   -1.092818    0.345627
      5          6           0        0.000000   -0.715963   -0.955475
      6          1           0        0.000000   -1.369382   -1.810438
      7          1           0        0.000000   -2.046884    0.840307
      8          1           0        0.000000    2.046884    0.840307
      9          1           0        0.000000    1.369382   -1.810438
 ---------------------------------------------------------------------

 SCF Done:  E(RAM1) = -0.926377887862     A.U. after   13 cycles

 Excitation energies and oscillator strengths:

 Excited State   1:      Singlet-B2     4.7186 eV  262.76 nm  f=0.0791  <S**2>=0.000
      12 -> 15        -0.28099
      13 -> 14         0.64283
 This state for optimization and/or second-order correction.
 Total Energy, E(CIS) = -0.752973376445
 Copying the excited state density for this state as the 1-particle RhoCI density.

 Excited State   2:      Singlet-A1     5.3230 eV  232.92 nm  f=0.0078  <S**2>=0.000
      12 -> 14         0.40862
      13 -> 15         0.57417

 Excited State   3:      Singlet-A2     6.0969 eV  203.36 nm  f=0.0000  <S**2>=0.000
      13 -> 16         0.69115

 Excited State   4:      Singlet-A1     6.5678 eV  188.78 nm  f=0.5246  <S**2>=0.000
      11 -> 16         0.10012
      12 -> 14         0.55954
      13 -> 15        -0.39550

 Excited State   5:      Singlet-B2     6.6198 eV  187.29 nm  f=0.2253  <S**2>=0.000
      12 -> 15         0.64150
      13 -> 14         0.27308

 Excited State   6:      Singlet-B1     7.1471 eV  173.47 nm  f=0.0013  <S**2>=0.000
       7 -> 16        -0.11337
      12 -> 16         0.65859
      13 -> 21         0.10558

 Excited State   7:      Singlet-B1     7.3495 eV  168.70 nm  f=0.0000  <S**2>=0.000
       9 -> 14         0.47152
      10 -> 15        -0.32727
      12 -> 22        -0.11783
      13 -> 17        -0.32958
      13 -> 19        -0.12970
      13 -> 21        -0.10507
      13 -> 24        -0.10316

 Excited State   8:      Singlet-B1     7.4604 eV  166.19 nm  f=0.0016  <S**2>=0.000
       9 -> 14         0.26018
      10 -> 15        -0.22103
      11 -> 14         0.19921
      12 -> 18        -0.10125
      13 -> 17         0.54924

 Excited State   9:      Singlet-A2     7.5115 eV  165.06 nm  f=0.0000  <S**2>=0.000
       8 -> 14        -0.15175
       9 -> 15        -0.23050
      10 -> 14         0.53896
      11 -> 15        -0.28659
      13 -> 22        -0.14873

 Excited State  10:      Singlet-A2     7.8785 eV  157.37 nm  f=0.0000  <S**2>=0.000
      10 -> 14         0.12447
      11 -> 15        -0.11367
      12 -> 17         0.40482
      12 -> 19         0.18801
      12 -> 21         0.23443
      13 -> 20         0.21909
      13 -> 22         0.39627

 Excited State  11:      Singlet-B1     7.9461 eV  156.03 nm  f=0.0003  <S**2>=0.000
       8 -> 15         0.13239
       9 -> 14        -0.20071
      11 -> 14         0.63580

 Excited State  12:      Singlet-A2     7.9937 eV  155.10 nm  f=0.0000  <S**2>=0.000
       8 -> 14         0.11760
       9 -> 15        -0.22723
      10 -> 14         0.27648
      11 -> 15         0.57619
      13 -> 18         0.10656

 Excited State  13:      Singlet-A2     8.2029 eV  151.15 nm  f=0.0000  <S**2>=0.000
      11 -> 15        -0.15383
      12 -> 17        -0.33684
      12 -> 24         0.17502
      13 -> 18         0.49754
      13 -> 20         0.10629
      13 -> 22         0.23220

 Excited State  14:      Singlet-B1     8.3164 eV  149.08 nm  f=0.0107  <S**2>=0.000
      11 -> 14         0.13238
      12 -> 16        -0.10871
      12 -> 18         0.23076
      12 -> 20         0.15875
      12 -> 22         0.28757
      13 -> 17        -0.18983
      13 -> 19         0.21144
      13 -> 21         0.32656
      13 -> 23        -0.15181
      13 -> 24         0.27854

 Excited State  15:      Singlet-A2     8.5855 eV  144.41 nm  f=0.0000  <S**2>=0.000
      12 -> 17        -0.18289
      12 -> 19        -0.30438
      12 -> 21        -0.12240
      12 -> 24         0.15065
      13 -> 18        -0.32828
      13 -> 20         0.43326
      13 -> 22         0.13906

 The electronic state is 1-A1.
 Alpha  occ. eigenvalues --   -1.56174  -1.20000  -1.08625  -0.84671  -0.79588
 Alpha  occ. eigenvalues --   -0.73427  -0.66453  -0.58156  -0.53820  -0.52997
 Alpha  occ. eigenvalues --   -0.52709  -0.42266  -0.38237
 Alpha virt. eigenvalues --    0.01283   0.04230   0.10762   0.14484   0.16417
 Alpha virt. eigenvalues --    0.18177   0.18714   0.19866   0.21816   0.23039
 Alpha virt. eigenvalues --    0.23943

 Mulliken charges:
               1
     1  C   -0.243047
     2  C   -0.113927
     3  O   -0.070403
     4  C   -0.113927
     5  C   -0.243047
     6  H    0.185818
     7  H    0.206358
     8  H    0.206358
     9  H    0.185818
 Sum of Mulliken charges =   0.00000

 Dipole moment (field-independent basis, Debye):
    X=              0.0000    Y=              0.0000    Z=             -0.2343  Tot=              0.2343
 N-N= 1.031739992356D+02 E-N=-1.709073385343D+02  KE=-1.755093857329D+01
 Symmetry A1   KE=-9.438553760679D+00
 Symmetry A2   KE=-7.243753899829D-01
 Symmetry B1   KE=-1.916405448635D+00
 Symmetry B2   KE=-5.471603973989D+00
 Orbital energies and kinetic energies (alpha):
                                 1                 2
   1         (A1)--O          -1.561739         -1.337770
   2         (A1)--O          -1.199998         -1.050459
   3         (B2)--O          -1.086255         -0.967561

 Normal termination of Gaussian 09 at Tue Oct  6 15:41:39 2015.
