 Gaussian 09, Revision D.01,
 Gaussian 09:  ES64L-G09RevD.01 24-Apr-2013

 ------------------------------------------------------------
 #P AM1(Input,print) CIS(Singlets,NStates=15) pop(full) force
 ------------------------------------------------------------

 -----------------
 AM1-Reparam Input
 -----------------
 Symbolic Z-matrix:
 Charge =  0 Multiplicity = 1

                         Standard orientation:
 ---------------------------------------------------------------------
 Center     Atomic      Atomic             Coordinates (Angstroms)
 Number     Number       Type             X           Y           Z
 ---------------------------------------------------------------------
      1          6           0       -1.151780    0.428735   -0.051436
      2          6           0       -0.731541   -0.889562    0.041920
      3          8           0        0.676392   -0.968070   -0.012975
      4          6           0        1.099382    0.333947   -0.022468
      5          6           0        0.067705    1.137959    0.042047
      6          1           0        0.142793    2.267538    0.026043
      7          1           0        2.179964    0.367783    0.010261
      8          1           0       -1.272615   -1.756239    0.021526
      9          1           0       -2.163874    0.799003   -0.014409
 ---------------------------------------------------------------------

 SCF Done:  E(RAM1) =   1.75891723677     A.U. after   14 cycles

 Excitation energies and oscillator strengths:

 Excited State   1:      Singlet-A      5.4512 eV  227.44 nm  f=0.3441  <S**2>=0.000
      13 -> 14         0.69184
 This state for optimization and/or second-order correction.
 Total Energy, E(CIS) =   1.95924668014
 Copying the excited state density for this state as the 1-particle RhoCI density.

 Excited State   2:      Singlet-A      6.8791 eV  180.23 nm  f=0.0050  <S**2>=0.000
      12 -> 14         0.68742
      13 -> 15        -0.12595

 Excited State   3:      Singlet-A      6.9493 eV  178.41 nm  f=0.0007  <S**2>=0.000
      10 -> 15         0.11194
      12 -> 14         0.13109
      13 -> 15         0.66708

 Excited State   4:      Singlet-A      7.3849 eV  167.89 nm  f=0.0041  <S**2>=0.000
      13 -> 16         0.66911
      13 -> 17        -0.12126
      13 -> 19         0.12987

 Excited State   5:      Singlet-A      8.0856 eV  153.34 nm  f=0.0089  <S**2>=0.000
      11 -> 14         0.69618

 Excited State   6:      Singlet-A      8.8463 eV  140.15 nm  f=0.0006  <S**2>=0.000
      13 -> 16         0.11065
      13 -> 17         0.45731
      13 -> 18        -0.44915
      13 -> 22        -0.23415

 Excited State   7:      Singlet-A      9.0827 eV  136.51 nm  f=0.0091  <S**2>=0.000
      13 -> 15         0.11630
      13 -> 17         0.49333
      13 -> 18         0.42693
      13 -> 19         0.17034
      13 -> 22         0.11074

 Excited State   8:      Singlet-A      9.3878 eV  132.07 nm  f=0.0392  <S**2>=0.000
      10 -> 14         0.62723
      12 -> 15         0.22272
      13 -> 20         0.13292

 Excited State   9:      Singlet-A      9.7060 eV  127.74 nm  f=0.1074  <S**2>=0.000
      10 -> 14        -0.21168
      11 -> 18         0.11550
      12 -> 15         0.50060
      12 -> 16        -0.26023
      12 -> 18        -0.18555

 Excited State  10:      Singlet-A      9.8014 eV  126.50 nm  f=0.0044  <S**2>=0.000
      10 -> 16         0.11234
      13 -> 18        -0.22215
      13 -> 19         0.63154

 Excited State  11:      Singlet-A      9.9170 eV  125.02 nm  f=0.0969  <S**2>=0.000
      11 -> 15         0.19995
      11 -> 17        -0.12663
      11 -> 18        -0.15251
      12 -> 15         0.39184
      12 -> 16         0.30794
      12 -> 17        -0.30035
      12 -> 18         0.12716

 Excited State  12:      Singlet-A     10.5671 eV  117.33 nm  f=0.1212  <S**2>=0.000
      10 -> 14        -0.15593
      12 -> 16         0.21565
      12 -> 17         0.10735
      13 -> 20         0.46007
      13 -> 21         0.36363
      13 -> 22        -0.11031

 Excited State  13:      Singlet-A     10.6209 eV  116.74 nm  f=0.0768  <S**2>=0.000
      10 -> 14         0.10652
      11 -> 15         0.10378
      13 -> 18         0.12340
      13 -> 20        -0.30589
      13 -> 21         0.46960
      13 -> 22        -0.31114

 Excited State  14:      Singlet-A     10.6848 eV  116.04 nm  f=0.0878  <S**2>=0.000
       9 -> 16        -0.11274
      12 -> 16        -0.24474
      12 -> 17        -0.28643
      12 -> 19        -0.12872
      13 -> 18        -0.12285
      13 -> 20         0.18349
      13 -> 21         0.24969
      13 -> 22         0.36165

 Excited State  15:      Singlet-A     10.7577 eV  115.25 nm  f=0.0635  <S**2>=0.000
      12 -> 16         0.24275
      12 -> 17         0.18971
      13 -> 18        -0.14049
      13 -> 20        -0.31990
      13 -> 21         0.20583
      13 -> 22         0.40407

 The electronic state is 1-A.
 Alpha  occ. eigenvalues --   -1.90200  -1.17708  -0.92320  -0.81372  -0.78711
 Alpha  occ. eigenvalues --   -0.69739  -0.67181  -0.55962  -0.55003  -0.46295
 Alpha  occ. eigenvalues --   -0.44235  -0.40258  -0.29532
 Alpha virt. eigenvalues --    0.11721   0.18123   0.21525   0.27478   0.29216
 Alpha virt. eigenvalues --    0.31220   0.32137   0.33306   0.36479   0.41233
 Alpha virt. eigenvalues --    0.44130

 Mulliken charges:
               1
     1  C   -0.159758
     2  C   -2.032468
     3  O    3.293459
     4  C   -1.973431
     5  C   -0.176458
     6  H    0.206731
     7  H    0.312132
     8  H    0.326505
     9  H    0.203288
 Sum of Mulliken charges =   0.00000

 Dipole moment (field-independent basis, Debye):
    X=              6.7769    Y=             -9.0806    Z=             -0.2824  Tot=             11.3342
 N-N= 1.036712210035D+02 E-N=-1.689667950966D+02  KE=-1.548746418461D+01
 Orbital energies and kinetic energies (alpha):
                                 1                 2
   1         O                -1.902001         -1.348668
   2         O                -1.177077         -1.057783
   3         O                -0.923201         -0.889054
   4         O                -0.813723         -0.580009
   5         O                -0.787114         -0.689214
   6         O                -0.697392         -0.589635
   7         O                -0.671815         -0.539558

 Normal termination of Gaussian 09 at Tue Dec 15 17:09:34 2015.
