 Gaussian 09, Revision D.01,
 Gaussian 09:  ES64L-G09RevD.01 24-Apr-2013

 ------------------------------------------------------------
 #P AM1(Input,print) CIS(Singlets,NStates=15) pop(full) force
 ------------------------------------------------------------

 -----------------
 AM1-Reparam Input
 -----------------
 Symbolic Z-matrix:
 Charge =  0 Multiplicity = 1

                         Standard orientation:
 ---------------------------------------------------------------------
 Center     Atomic      Atomic             Coordinates (Angstroms)
 Number     Number       Type             X           Y           Z
 ---------------------------------------------------------------------
      1          6           0        0.804052    0.840071    0.001280
      2          6           0        1.027364   -0.520018   -0.011118
      3          8           0       -0.188200   -1.107461    0.028342
      4          6           0       -1.102251   -0.202701   -0.025629
      5          6           0       -0.527351    1.054121   -0.014606
      6          1           0       -1.063821    1.971322    0.073959
      7          1           0       -2.176746   -0.569906    0.004219
      8          1           0        1.924076   -1.135306   -0.049914
      9          1           0        1.611208    1.564739    0.045441
 ---------------------------------------------------------------------

 SCF Done:  E(RAM1) =   1.06954234128     A.U. after   14 cycles

 Excitation energies and oscillator strengths:

 Excited State   1:      Singlet-A      5.9413 eV  208.68 nm  f=0.1785  <S**2>=0.000
      12 -> 17        -0.12107
      13 -> 14         0.67199
 This state for optimization and/or second-order correction.
 Total Energy, E(CIS) =   1.28788114788
 Copying the excited state density for this state as the 1-particle RhoCI density.

 Excited State   2:      Singlet-A      6.7594 eV  183.43 nm  f=0.0047  <S**2>=0.000
      13 -> 15         0.65694
      13 -> 16         0.14400
      13 -> 18        -0.11137

 Excited State   3:      Singlet-A      7.3805 eV  167.99 nm  f=0.0093  <S**2>=0.000
      12 -> 14         0.48260
      12 -> 15         0.11525
      13 -> 16         0.45744

 Excited State   4:      Singlet-A      7.4443 eV  166.55 nm  f=0.0100  <S**2>=0.000
      11 -> 14         0.15389
      12 -> 14         0.33757
      12 -> 15        -0.14303
      13 -> 15         0.11433
      13 -> 16        -0.34274
      13 -> 17         0.40097
      13 -> 21        -0.11957

 Excited State   5:      Singlet-A      7.6412 eV  162.26 nm  f=0.0009  <S**2>=0.000
       9 -> 14        -0.18124
      10 -> 14        -0.22132
      11 -> 14         0.60353
      12 -> 14        -0.10838
      13 -> 17        -0.17064

 Excited State   6:      Singlet-A      7.8564 eV  157.81 nm  f=0.0023  <S**2>=0.000
       9 -> 14        -0.17989
      10 -> 14         0.64073
      11 -> 14         0.20399

 Excited State   7:      Singlet-A      8.2352 eV  150.55 nm  f=0.0003  <S**2>=0.000
      12 -> 15         0.61646
      12 -> 16         0.11966
      13 -> 16        -0.12103
      13 -> 18        -0.17557
      13 -> 19         0.10451

 Excited State   8:      Singlet-A      8.4092 eV  147.44 nm  f=0.1913  <S**2>=0.000
      11 -> 17        -0.14598
      12 -> 14        -0.34587
      13 -> 16         0.27336
      13 -> 17         0.47309

 Excited State   9:      Singlet-A      8.6872 eV  142.72 nm  f=0.0007  <S**2>=0.000
      12 -> 15         0.18836
      13 -> 16        -0.10600
      13 -> 18         0.43952
      13 -> 19        -0.43009
      13 -> 23        -0.17856

 Excited State  10:      Singlet-A      8.8310 eV  140.40 nm  f=0.0117  <S**2>=0.000
       9 -> 15         0.13179
       9 -> 17         0.12875
      10 -> 15         0.16165
      10 -> 17         0.12982
      11 -> 15         0.30676
      11 -> 16         0.33585
      11 -> 17         0.26318
      12 -> 16         0.26475

 Excited State  11:      Singlet-A      8.9464 eV  138.58 nm  f=0.0124  <S**2>=0.000
      11 -> 15        -0.10163
      11 -> 16        -0.14977
      11 -> 17        -0.12819
      12 -> 15        -0.10129
      12 -> 16         0.51213
      12 -> 17        -0.25452
      13 -> 18         0.23157
      13 -> 19         0.10213

 Excited State  12:      Singlet-A      9.0239 eV  137.40 nm  f=0.0370  <S**2>=0.000
       9 -> 15        -0.21252
       9 -> 17         0.12245
      10 -> 15        -0.29763
      10 -> 16         0.11253
      11 -> 15        -0.26555
      11 -> 16         0.10641
      11 -> 17         0.37604
      12 -> 17        -0.10245
      13 -> 17         0.11178

 Excited State  13:      Singlet-A      9.1974 eV  134.80 nm  f=0.2149  <S**2>=0.000
       8 -> 15        -0.11045
       9 -> 14        -0.13011
       9 -> 16        -0.13583
      11 -> 15        -0.19309
      11 -> 16        -0.11417
      12 -> 16         0.19075
      12 -> 17         0.50582
      13 -> 14         0.14843

 Excited State  14:      Singlet-A      9.2294 eV  134.34 nm  f=0.0039  <S**2>=0.000
      10 -> 15         0.32469
      10 -> 19        -0.12921
      12 -> 16        -0.16725
      12 -> 17        -0.20051
      13 -> 18         0.13378
      13 -> 19         0.14366
      13 -> 20         0.40629
      13 -> 21         0.17072
      13 -> 22         0.10033

 Excited State  15:      Singlet-A      9.2928 eV  133.42 nm  f=0.0200  <S**2>=0.000
      10 -> 15        -0.23769
      10 -> 16        -0.16157
      10 -> 19         0.10349
      11 -> 15         0.17376
      11 -> 17        -0.15783
      11 -> 18        -0.12098
      12 -> 17         0.19846
      13 -> 19         0.11971
      13 -> 20         0.39492
      13 -> 21         0.16335

 The electronic state is 1-A.
 Alpha  occ. eigenvalues --   -1.86566  -1.21524  -0.99225  -0.88157  -0.81268
 Alpha  occ. eigenvalues --   -0.73928  -0.73029  -0.61341  -0.55706  -0.51679
 Alpha  occ. eigenvalues --   -0.50448  -0.47173  -0.40528
 Alpha virt. eigenvalues --    0.03815   0.08559   0.11080   0.11640   0.17647
 Alpha virt. eigenvalues --    0.18407   0.20058   0.21172   0.26955   0.27492
 Alpha virt. eigenvalues --    0.29483

 Mulliken charges:
               1
     1  C   -0.092926
     2  C   -1.313474
     3  O    2.184135
     4  C   -1.304596
     5  C   -0.144401
     6  H    0.116655
     7  H    0.226783
     8  H    0.210564
     9  H    0.117259
 Sum of Mulliken charges =   0.00000

 Dipole moment (field-independent basis, Debye):
    X=             -1.4550    Y=             -6.5011    Z=              0.4740  Tot=              6.6788
 N-N= 1.051221659973D+02 E-N=-1.724189115542D+02  KE=-1.507489325091D+01
 Orbital energies and kinetic energies (alpha):
                                 1                 2
   1         O                -1.865659         -1.286078
   2         O                -1.215240         -0.984704
   3         O                -0.992251         -0.788729
   4         O                -0.881566         -0.649859
   5         O                -0.812679         -0.653815
   6         O                -0.739283         -0.574499
   7         O                -0.730291         -0.562607

 Normal termination of Gaussian 09 at Tue Dec 15 17:05:33 2015.
