 Gaussian 09, Revision D.01,
 Gaussian 09:  ES64L-G09RevD.01 24-Apr-2013

 ------------------------------------------------------------
 #P AM1(Input,print) CIS(Singlets,NStates=15) pop(full) force
 ------------------------------------------------------------

 -----------------
 AM1-Reparam Input
 -----------------
 Symbolic Z-matrix:
 Charge =  0 Multiplicity = 1

                         Standard orientation:
 ---------------------------------------------------------------------
 Center     Atomic      Atomic             Coordinates (Angstroms)
 Number     Number       Type             X           Y           Z
 ---------------------------------------------------------------------
      1          6           0       -0.635852    0.987878    0.013521
      2          6           0       -1.130008   -0.288040    0.007647
      3          8           0       -0.073227   -1.147976    0.000258
      4          6           0        1.100177   -0.403273   -0.007055
      5          6           0        0.726460    0.910716   -0.029787
      6          1           0        1.488692    1.726728    0.064265
      7          1           0        2.010116   -0.945801    0.059112
      8          1           0       -2.049912   -0.717208   -0.032770
      9          1           0       -1.227742    1.876404    0.001369
 ---------------------------------------------------------------------

 SCF Done:  E(RAM1) =   1.80060270836     A.U. after   14 cycles

 Excitation energies and oscillator strengths:

 Excited State   1:      Singlet-A      5.7217 eV  216.69 nm  f=0.3062  <S**2>=0.000
      13 -> 14         0.68413
 This state for optimization and/or second-order correction.
 Total Energy, E(CIS) =   2.01087205156
 Copying the excited state density for this state as the 1-particle RhoCI density.

 Excited State   2:      Singlet-A      7.0185 eV  176.65 nm  f=0.0122  <S**2>=0.000
      13 -> 15         0.67974
      13 -> 17        -0.12922

 Excited State   3:      Singlet-A      7.3411 eV  168.89 nm  f=0.0001  <S**2>=0.000
      10 -> 15        -0.11494
      13 -> 16         0.66356
      13 -> 18        -0.10251
      13 -> 19        -0.16101

 Excited State   4:      Singlet-A      7.8021 eV  158.91 nm  f=0.0016  <S**2>=0.000
      11 -> 14         0.15745
      12 -> 14         0.67936

 Excited State   5:      Singlet-A      8.0684 eV  153.67 nm  f=0.0058  <S**2>=0.000
      10 -> 14        -0.14071
      11 -> 14         0.66721
      12 -> 14        -0.16252

 Excited State   6:      Singlet-A      8.5345 eV  145.27 nm  f=0.0002  <S**2>=0.000
      13 -> 17        -0.21647
      13 -> 18         0.60795
      13 -> 21         0.24055

 Excited State   7:      Singlet-A      9.1926 eV  134.87 nm  f=0.0927  <S**2>=0.000
      10 -> 14         0.66719
      11 -> 14         0.14006

 Excited State   8:      Singlet-A      9.3122 eV  133.14 nm  f=0.0101  <S**2>=0.000
      10 -> 16        -0.19194
      13 -> 17         0.62208
      13 -> 18         0.20773

 Excited State   9:      Singlet-A      9.7590 eV  127.05 nm  f=0.1875  <S**2>=0.000
       9 -> 16         0.13901
      11 -> 15         0.34097
      11 -> 16         0.14512
      11 -> 17        -0.14969
      11 -> 18        -0.21317
      12 -> 15        -0.29058
      12 -> 17         0.23668
      12 -> 18        -0.22338
      13 -> 14         0.15114

 Excited State  10:      Singlet-A      9.9154 eV  125.04 nm  f=0.0006  <S**2>=0.000
      10 -> 15        -0.22968
      13 -> 19         0.62736
      13 -> 21         0.11689

 Excited State  11:      Singlet-A     10.3342 eV  119.97 nm  f=0.0096  <S**2>=0.000
      11 -> 15         0.25302
      11 -> 16        -0.20828
      11 -> 19         0.12010
      12 -> 15         0.38570
      12 -> 16         0.40783
      12 -> 18        -0.10182
      12 -> 19        -0.10120

 Excited State  12:      Singlet-A     10.4626 eV  118.50 nm  f=0.1501  <S**2>=0.000
      11 -> 15        -0.39993
      11 -> 16         0.26871
      12 -> 16         0.43471

 Excited State  13:      Singlet-A     10.6140 eV  116.81 nm  f=0.0165  <S**2>=0.000
      10 -> 15         0.53323
      10 -> 20        -0.10925
      12 -> 16         0.11543
      13 -> 16         0.15841
      13 -> 18         0.12626
      13 -> 19         0.22404
      13 -> 20         0.13126
      13 -> 21        -0.19874

 Excited State  14:      Singlet-A     10.6819 eV  116.07 nm  f=0.0138  <S**2>=0.000
      10 -> 15         0.27034
      13 -> 18        -0.18103
      13 -> 20        -0.27157
      13 -> 21         0.53161

 Excited State  15:      Singlet-A     10.7949 eV  114.85 nm  f=0.0780  <S**2>=0.000
      10 -> 16        -0.29526
      13 -> 20         0.53853
      13 -> 21         0.29575

 The electronic state is 1-A.
 Alpha  occ. eigenvalues --   -1.99495  -1.28525  -1.01176  -0.89728  -0.86295
 Alpha  occ. eigenvalues --   -0.76772  -0.74807  -0.64644  -0.62687  -0.52265
 Alpha  occ. eigenvalues --   -0.51297  -0.50423  -0.38280
 Alpha virt. eigenvalues --    0.04693   0.11659   0.12593   0.19170   0.20064
 Alpha virt. eigenvalues --    0.22676   0.25124   0.26939   0.28218   0.36170
 Alpha virt. eigenvalues --    0.41648

 Mulliken charges:
               1
     1  C   -0.135392
     2  C   -1.896345
     3  O    3.184593
     4  C   -1.897978
     5  C   -0.119993
     6  H    0.165873
     7  H    0.273763
     8  H    0.267114
     9  H    0.158364
 Sum of Mulliken charges =   0.00000

 Dipole moment (field-independent basis, Debye):
    X=             -0.5606    Y=            -10.3296    Z=              0.0971  Tot=             10.3452
 N-N= 1.057900347032D+02 E-N=-1.707586580214D+02  KE=-1.569233712447D+01
 Orbital energies and kinetic energies (alpha):
                                 1                 2
   1         O                -1.994952         -1.371785
   2         O                -1.285247         -1.055068
   3         O                -1.011758         -0.883873
   4         O                -0.897285         -0.601485
   5         O                -0.862946         -0.697835
   6         O                -0.767718         -0.619758
   7         O                -0.748067         -0.548930

 Normal termination of Gaussian 09 at Tue Dec 15 17:09:01 2015.
