 Gaussian 09, Revision D.01,
 Gaussian 09:  ES64L-G09RevD.01 24-Apr-2013

 ------------------------------------------------------------
 #P AM1(Input,print) CIS(Singlets,NStates=15) pop(full) force
 ------------------------------------------------------------

 -----------------
 AM1-Reparam Input
 -----------------
 Symbolic Z-matrix:
 Charge =  0 Multiplicity = 1

                         Standard orientation:
 ---------------------------------------------------------------------
 Center     Atomic      Atomic             Coordinates (Angstroms)
 Number     Number       Type             X           Y           Z
 ---------------------------------------------------------------------
      1          6           0        1.010083    0.697276   -0.032860
      2          6           0        0.930391   -0.687172    0.030939
      3          8           0       -0.399434   -1.105088   -0.013396
      4          6           0       -1.135891   -0.028866    0.008723
      5          6           0       -0.380748    1.193153    0.008364
      6          1           0       -0.733018    2.149220   -0.013539
      7          1           0       -2.233786   -0.150229    0.002140
      8          1           0        1.729140   -1.456914   -0.030691
      9          1           0        1.890128    1.252281    0.058256
 ---------------------------------------------------------------------

 SCF Done:  E(RAM1) =   2.59396811089     A.U. after   13 cycles

 Excitation energies and oscillator strengths:

 Excited State   1:      Singlet-A      5.0498 eV  245.52 nm  f=0.3748  <S**2>=0.000
      13 -> 14         0.69920
 This state for optimization and/or second-order correction.
 Total Energy, E(CIS) =   2.77954664133
 Copying the excited state density for this state as the 1-particle RhoCI density.

 Excited State   2:      Singlet-A      6.1222 eV  202.51 nm  f=0.0019  <S**2>=0.000
      13 -> 15         0.66148
      13 -> 17         0.16637

 Excited State   3:      Singlet-A      6.5381 eV  189.63 nm  f=0.0008  <S**2>=0.000
      12 -> 14         0.68170
      13 -> 16        -0.14184

 Excited State   4:      Singlet-A      6.6518 eV  186.39 nm  f=0.0034  <S**2>=0.000
      12 -> 14         0.15165
      13 -> 15         0.10590
      13 -> 16         0.64777

 Excited State   5:      Singlet-A      7.4814 eV  165.72 nm  f=0.0052  <S**2>=0.000
      10 -> 14         0.67979
      11 -> 14         0.16191

 Excited State   6:      Singlet-A      7.9438 eV  156.08 nm  f=0.0000  <S**2>=0.000
      11 -> 16        -0.10011
      13 -> 15        -0.11273
      13 -> 16         0.11414
      13 -> 17         0.64340
      13 -> 18        -0.14010
      13 -> 21        -0.12424

 Excited State   7:      Singlet-A      8.2015 eV  151.17 nm  f=0.1309  <S**2>=0.000
      10 -> 14        -0.16252
      11 -> 14         0.68028

 Excited State   8:      Singlet-A      9.1741 eV  135.15 nm  f=0.0083  <S**2>=0.000
       7 -> 15         0.13720
      11 -> 15        -0.41017
      13 -> 18         0.53270

 Excited State   9:      Singlet-A      9.4021 eV  131.87 nm  f=0.0887  <S**2>=0.000
       8 -> 16        -0.10407
       9 -> 15         0.14949
      10 -> 16        -0.20420
      10 -> 18        -0.13519
      12 -> 15         0.48407
      12 -> 16        -0.18198
      12 -> 17         0.29523

 Excited State  10:      Singlet-A      9.4867 eV  130.69 nm  f=0.0095  <S**2>=0.000
       7 -> 16         0.11140
      11 -> 16         0.36305
      13 -> 19         0.56646

 Excited State  11:      Singlet-A      9.8026 eV  126.48 nm  f=0.0078  <S**2>=0.000
       7 -> 15        -0.10475
      11 -> 15         0.50912
      11 -> 16         0.12499
      13 -> 15        -0.17112
      13 -> 17         0.13027
      13 -> 18         0.33876
      13 -> 19        -0.15958

 Excited State  12:      Singlet-A      9.9496 eV  124.61 nm  f=0.1335  <S**2>=0.000
       9 -> 15        -0.10136
      10 -> 15         0.49574
      10 -> 16         0.15581
      10 -> 18         0.17244
      12 -> 15         0.33416
      12 -> 17        -0.12215
      12 -> 18         0.11700

 Excited State  13:      Singlet-A     10.0507 eV  123.36 nm  f=0.1556  <S**2>=0.000
      10 -> 16        -0.26037
      10 -> 19        -0.10191
      12 -> 16         0.57601
      12 -> 17         0.10072
      12 -> 19         0.14611
      13 -> 19         0.11370

 Excited State  14:      Singlet-A     10.2487 eV  120.98 nm  f=0.0011  <S**2>=0.000
       9 -> 14         0.63955
      11 -> 16        -0.17257
      13 -> 18         0.10707

 Excited State  15:      Singlet-A     10.3704 eV  119.56 nm  f=0.0007  <S**2>=0.000
       8 -> 15         0.11625
       8 -> 16        -0.11821
       9 -> 14        -0.12761
       9 -> 15        -0.26772
      10 -> 15         0.27298
      10 -> 16        -0.14766
      10 -> 19        -0.15167
      11 -> 16        -0.14760
      12 -> 15        -0.21240
      12 -> 16        -0.20773
      12 -> 17         0.27382
      12 -> 19         0.10239

 The electronic state is 1-A.
 Alpha  occ. eigenvalues --   -1.84097  -1.09678  -0.85690  -0.79596  -0.73416
 Alpha  occ. eigenvalues --   -0.66841  -0.62236  -0.55580  -0.54155  -0.46181
 Alpha  occ. eigenvalues --   -0.44425  -0.43289  -0.30360
 Alpha virt. eigenvalues --    0.07807   0.15366   0.17628   0.25238   0.27779
 Alpha virt. eigenvalues --    0.29017   0.35327   0.39078   0.49488   0.56975
 Alpha virt. eigenvalues --    0.61176

 Mulliken charges:
               1
     1  C   -0.108998
     2  C   -1.996243
     3  O    3.425849
     4  C   -2.046292
     5  C   -0.194348
     6  H    0.172795
     7  H    0.293008
     8  H    0.277643
     9  H    0.176587
 Sum of Mulliken charges =   0.00000

 Dipole moment (field-independent basis, Debye):
    X=             -3.9033    Y=            -10.5378    Z=             -0.5662  Tot=             11.2518
 N-N= 1.032631160033D+02 E-N=-1.683528778691D+02  KE=-1.427454962608D+01
 Orbital energies and kinetic energies (alpha):
                                 1                 2
   1         O                -1.840972         -1.242736
   2         O                -1.096783         -0.954885
   3         O                -0.856898         -0.768282
   4         O                -0.795961         -0.540767
   5         O                -0.734159         -0.609832
   6         O                -0.668408         -0.552056
   7         O                -0.622361         -0.481085

 Normal termination of Gaussian 09 at Tue Dec 15 17:07:35 2015.
