 Gaussian 09, Revision D.01,
 Gaussian 09:  ES64L-G09RevD.01 24-Apr-2013

 ------------------------------------------------------------
 #P AM1(Input,print) CIS(Singlets,NStates=15) pop(full) force
 ------------------------------------------------------------

 -----------------
 AM1-Reparam Input
 -----------------
 Symbolic Z-matrix:
 Charge =  0 Multiplicity = 1

                         Standard orientation:
 ---------------------------------------------------------------------
 Center     Atomic      Atomic             Coordinates (Angstroms)
 Number     Number       Type             X           Y           Z
 ---------------------------------------------------------------------
      1          6           0        0.284427    1.155142   -0.014745
      2          6           0       -1.009958    0.597668   -0.004234
      3          8           0       -0.898506   -0.785851    0.003526
      4          6           0        0.448782   -1.041636    0.009463
      5          6           0        1.206793    0.132270   -0.010155
      6          1           0        2.319277    0.109767    0.026051
      7          1           0        0.757952   -2.073515   -0.015654
      8          1           0       -1.915603    0.955824    0.004693
      9          1           0        0.446161    2.234072    0.074725
 ---------------------------------------------------------------------

 SCF Done:  E(RAM1) =   2.51806903737     A.U. after   14 cycles

 Excitation energies and oscillator strengths:

 Excited State   1:      Singlet-A      5.6842 eV  218.12 nm  f=0.3112  <S**2>=0.000
      13 -> 14         0.68998
 This state for optimization and/or second-order correction.
 Total Energy, E(CIS) =   2.72695787875
 Copying the excited state density for this state as the 1-particle RhoCI density.

 Excited State   2:      Singlet-A      6.7143 eV  184.66 nm  f=0.0050  <S**2>=0.000
      11 -> 15         0.10212
      13 -> 15         0.63978
      13 -> 16         0.16616
      13 -> 17        -0.18250

 Excited State   3:      Singlet-A      7.1769 eV  172.75 nm  f=0.0024  <S**2>=0.000
      13 -> 15        -0.15697
      13 -> 16         0.63528
      13 -> 19         0.17581

 Excited State   4:      Singlet-A      7.2848 eV  170.20 nm  f=0.0025  <S**2>=0.000
       9 -> 14         0.12235
      12 -> 14         0.68437

 Excited State   5:      Singlet-A      7.8070 eV  158.81 nm  f=0.0040  <S**2>=0.000
      10 -> 14         0.59117
      11 -> 14         0.36769

 Excited State   6:      Singlet-A      8.4468 eV  146.78 nm  f=0.0032  <S**2>=0.000
      11 -> 15        -0.12941
      13 -> 15        -0.10954
      13 -> 17        -0.37203
      13 -> 18         0.44653
      13 -> 21        -0.33385

 Excited State   7:      Singlet-A      8.6600 eV  143.17 nm  f=0.0044  <S**2>=0.000
      11 -> 16        -0.14600
      13 -> 17         0.52003
      13 -> 18         0.35490
      13 -> 21        -0.20459

 Excited State   8:      Singlet-A      8.7913 eV  141.03 nm  f=0.1013  <S**2>=0.000
      10 -> 14        -0.37064
      11 -> 14         0.58584

 Excited State   9:      Singlet-A      9.2641 eV  133.83 nm  f=0.0018  <S**2>=0.000
      11 -> 15         0.14220
      11 -> 16         0.16393
      13 -> 17        -0.11082
      13 -> 18         0.17687
      13 -> 19         0.58589
      13 -> 21         0.16478

 Excited State  10:      Singlet-A      9.4447 eV  131.27 nm  f=0.0738  <S**2>=0.000
       8 -> 15        -0.11471
       9 -> 15         0.13075
       9 -> 16        -0.11050
       9 -> 19        -0.10031
      10 -> 15        -0.25898
      10 -> 16        -0.23688
      10 -> 17         0.21761
      11 -> 15        -0.11629
      11 -> 16        -0.13978
      11 -> 17         0.11236
      12 -> 15         0.31148
      12 -> 17        -0.13470
      12 -> 18         0.22059
      13 -> 14        -0.10931

 Excited State  11:      Singlet-A      9.7129 eV  127.65 nm  f=0.0033  <S**2>=0.000
      13 -> 18         0.36170
      13 -> 19        -0.23633
      13 -> 21         0.53325

 Excited State  12:      Singlet-A      9.9401 eV  124.73 nm  f=0.0275  <S**2>=0.000
      10 -> 15        -0.13199
      11 -> 15         0.58538
      12 -> 15         0.11332
      13 -> 15        -0.15534
      13 -> 16         0.11316
      13 -> 19        -0.14974

 Excited State  13:      Singlet-A     10.0165 eV  123.78 nm  f=0.0074  <S**2>=0.000
       9 -> 15        -0.12191
      10 -> 15         0.34541
      10 -> 19        -0.12772
      11 -> 15         0.12169
      11 -> 16        -0.14606
      12 -> 15         0.23170
      12 -> 16         0.40336
      12 -> 17        -0.13979
      13 -> 20         0.14703

 Excited State  14:      Singlet-A     10.0764 eV  123.04 nm  f=0.1612  <S**2>=0.000
       8 -> 15         0.12417
      10 -> 15        -0.33093
      12 -> 15        -0.34115
      12 -> 16         0.28473
      12 -> 19         0.11874
      13 -> 20         0.34934

 Excited State  15:      Singlet-A     10.1376 eV  122.30 nm  f=0.1387  <S**2>=0.000
      10 -> 16         0.17216
      11 -> 16        -0.15993
      12 -> 15         0.13584
      12 -> 16        -0.27869
      12 -> 19        -0.11961
      13 -> 20         0.51511

 The electronic state is 1-A.
 Alpha  occ. eigenvalues --   -1.71970  -1.15542  -0.94360  -0.80112  -0.76793
 Alpha  occ. eigenvalues --   -0.67452  -0.63283  -0.54505  -0.50331  -0.43249
 Alpha  occ. eigenvalues --   -0.42739  -0.41577  -0.30125
 Alpha virt. eigenvalues --    0.12143   0.18101   0.20406   0.25229   0.27347
 Alpha virt. eigenvalues --    0.29038   0.30898   0.32608   0.38612   0.48091
 Alpha virt. eigenvalues --    0.52193

 Mulliken charges:
               1
     1  C   -0.036492
     2  C   -1.933620
     3  O    3.227745
     4  C   -1.951944
     5  C   -0.040887
     6  H    0.117665
     7  H    0.260998
     8  H    0.240202
     9  H    0.116333
 Sum of Mulliken charges =   0.00000

 Dipole moment (field-independent basis, Debye):
    X=             -7.6544    Y=             -7.3985    Z=              0.0452  Tot=             10.6456
 N-N= 1.033019640062D+02 E-N=-1.679152987263D+02  KE=-1.501174040881D+01
 Orbital energies and kinetic energies (alpha):
                                 1                 2
   1         O                -1.719700         -1.208895
   2         O                -1.155422         -1.018644
   3         O                -0.943604         -0.862663
   4         O                -0.801117         -0.623341
   5         O                -0.767932         -0.681899
   6         O                -0.674516         -0.577411
   7         O                -0.632832         -0.517440

 Normal termination of Gaussian 09 at Tue Dec 15 17:06:21 2015.
