 Gaussian 09, Revision D.01,
 Gaussian 09:  ES64L-G09RevD.01 24-Apr-2013

 ------------------------------------------------------------
 #P AM1(Input,print) CIS(Singlets,NStates=15) pop(full) force
 ------------------------------------------------------------

 -----------------
 AM1-Reparam Input
 -----------------
 Symbolic Z-matrix:
 Charge =  0 Multiplicity = 1

                         Standard orientation:
 ---------------------------------------------------------------------
 Center     Atomic      Atomic             Coordinates (Angstroms)
 Number     Number       Type             X           Y           Z
 ---------------------------------------------------------------------
      1          6           0       -0.539353    1.061019   -0.012649
      2          6           0       -1.170045   -0.182549    0.028961
      3          8           0       -0.201308   -1.090727   -0.017120
      4          6           0        1.014732   -0.522020   -0.001889
      5          6           0        0.911592    0.780923   -0.009582
      6          1           0        1.622497    1.557458    0.076031
      7          1           0        1.845513   -1.197540    0.044122
      8          1           0       -2.155868   -0.461706    0.015911
      9          1           0       -1.003236    2.003364   -0.028147
 ---------------------------------------------------------------------

 SCF Done:  E(RAM1) =  -4.52197411412     A.U. after   14 cycles

 Excitation energies and oscillator strengths:

 Excited State   1:      Singlet-A      6.3609 eV  194.92 nm  f=0.4047  <S**2>=0.000
      13 -> 14         0.69223
 This state for optimization and/or second-order correction.
 Total Energy, E(CIS) =  -4.28821617100
 Copying the excited state density for this state as the 1-particle RhoCI density.

 Excited State   2:      Singlet-A      7.0485 eV  175.90 nm  f=0.0036  <S**2>=0.000
      12 -> 14         0.68904

 Excited State   3:      Singlet-A      8.1696 eV  151.76 nm  f=0.0066  <S**2>=0.000
      11 -> 14         0.54661
      13 -> 15        -0.24153
      13 -> 16         0.19536
      13 -> 17         0.17410
      13 -> 18        -0.10604
      13 -> 19         0.21746

 Excited State   4:      Singlet-A      8.2115 eV  150.99 nm  f=0.0029  <S**2>=0.000
      11 -> 14         0.41266
      13 -> 15         0.13873
      13 -> 16        -0.40104
      13 -> 17        -0.14602
      13 -> 18         0.14108
      13 -> 19        -0.29501

 Excited State   5:      Singlet-A      8.3702 eV  148.13 nm  f=0.0625  <S**2>=0.000
      11 -> 14         0.14154
      13 -> 15         0.51407
      13 -> 16         0.38476
      13 -> 17        -0.23556

 Excited State   6:      Singlet-A      9.4055 eV  131.82 nm  f=0.0103  <S**2>=0.000
      10 -> 15        -0.11066
      13 -> 15        -0.30070
      13 -> 16         0.19182
      13 -> 17        -0.36611
      13 -> 18         0.43894
      13 -> 21        -0.14815

 Excited State   7:      Singlet-A      9.8137 eV  126.34 nm  f=0.0333  <S**2>=0.000
      13 -> 15         0.22313
      13 -> 17         0.37434
      13 -> 18         0.44000
      13 -> 19         0.25922
      13 -> 20         0.13909

 Excited State   8:      Singlet-A     10.0844 eV  122.95 nm  f=0.0941  <S**2>=0.000
      10 -> 14         0.62603
      12 -> 15         0.10288
      12 -> 16        -0.11035
      13 -> 21        -0.10069
      13 -> 22         0.15800

 Excited State   9:      Singlet-A     10.2613 eV  120.83 nm  f=0.0700  <S**2>=0.000
      10 -> 14         0.17859
      11 -> 17         0.12062
      12 -> 15        -0.18859
      12 -> 16         0.33779
      12 -> 17         0.24332
      12 -> 18        -0.30981
      12 -> 19         0.27604
      12 -> 21         0.12922

 Excited State  10:      Singlet-A     10.3059 eV  120.30 nm  f=0.0019  <S**2>=0.000
      13 -> 16        -0.29800
      13 -> 17        -0.30256
      13 -> 18        -0.10616
      13 -> 19         0.52511

 Excited State  11:      Singlet-A     10.5974 eV  117.00 nm  f=0.0087  <S**2>=0.000
       9 -> 14         0.67396
      13 -> 22        -0.12174

 Excited State  12:      Singlet-A     10.9319 eV  113.42 nm  f=0.0026  <S**2>=0.000
      11 -> 16         0.15214
      11 -> 18         0.12012
      11 -> 19         0.13879
      12 -> 15         0.42408
      12 -> 16         0.38914
      12 -> 17        -0.27406

 Excited State  13:      Singlet-A     11.0542 eV  112.16 nm  f=0.0250  <S**2>=0.000
       8 -> 14        -0.10262
      13 -> 20         0.67211

 Excited State  14:      Singlet-A     11.3606 eV  109.14 nm  f=0.0396  <S**2>=0.000
      11 -> 15        -0.19809
      11 -> 16        -0.15921
      11 -> 17         0.12436
      12 -> 15         0.11400
      12 -> 18        -0.11984
      12 -> 19        -0.12966
      13 -> 18         0.17392
      13 -> 21         0.51390
      13 -> 22         0.20416

 Excited State  15:      Singlet-A     11.3886 eV  108.87 nm  f=0.1074  <S**2>=0.000
      11 -> 15         0.33887
      11 -> 16         0.21650
      11 -> 17        -0.24640
      12 -> 15        -0.17310
      12 -> 16         0.10173
      12 -> 18         0.14061
      12 -> 19         0.18209
      13 -> 18         0.11021
      13 -> 21         0.34200
      13 -> 22         0.10450

 The electronic state is 1-A.
 Alpha  occ. eigenvalues --   -3.03729  -1.26447  -0.99172  -0.95091  -0.94749
 Alpha  occ. eigenvalues --   -0.90667  -0.83321  -0.68541  -0.63975  -0.61877
 Alpha  occ. eigenvalues --   -0.58265  -0.54872  -0.44855
 Alpha virt. eigenvalues --   -0.00935   0.10018   0.11853   0.13578   0.15934
 Alpha virt. eigenvalues --    0.17213   0.19321   0.21933   0.22155   0.30462
 Alpha virt. eigenvalues --    0.37658

 Mulliken charges:
               1
     1  C   -0.578323
     2  C   -1.937696
     3  O    3.038801
     4  C   -1.892480
     5  C   -0.477787
     6  H    0.443090
     7  H    0.479260
     8  H    0.478170
     9  H    0.446965
 Sum of Mulliken charges =   0.00000

 Dipole moment (field-independent basis, Debye):
    X=             -1.1119    Y=             -9.3972    Z=             -0.1697  Tot=              9.4643
 N-N= 1.051767214704D+02 E-N=-1.708490820102D+02  KE=-2.363710557552D+01
 Orbital energies and kinetic energies (alpha):
                                 1                 2
   1         O                -3.037291         -2.323579
   2         O                -1.264472         -1.221452
   3         O                -0.991722         -0.923463
   4         O                -0.950905         -0.958797
   5         O                -0.947491         -0.960539
   6         O                -0.906665         -0.922410
   7         O                -0.833210         -0.795544

 Normal termination of Gaussian 09 at Fri Dec 11 13:41:15 2015.
