 Gaussian 09, Revision D.01,
 Gaussian 09:  ES64L-G09RevD.01 24-Apr-2013

 ------------------------------------------------------------
 #P AM1(Input,print) CIS(Singlets,NStates=15) pop(full) force
 ------------------------------------------------------------

 -----------------
 AM1-Reparam Input
 -----------------
 Symbolic Z-matrix:
 Charge =  0 Multiplicity = 1

                         Standard orientation:
 ---------------------------------------------------------------------
 Center     Atomic      Atomic             Coordinates (Angstroms)
 Number     Number       Type             X           Y           Z
 ---------------------------------------------------------------------
      1          6           0       -0.409688    1.107866    0.020502
      2          6           0       -1.136864   -0.016702   -0.004374
      3          8           0       -0.361389   -1.094562    0.000825
      4          6           0        0.901189   -0.638383    0.008814
      5          6           0        1.003535    0.698559   -0.022100
      6          1           0        1.949464    1.271398    0.049859
      7          1           0        1.671334   -1.509186   -0.021189
      8          1           0       -2.193206   -0.109073   -0.007104
      9          1           0       -0.685512    2.195320   -0.045213
 ---------------------------------------------------------------------

 SCF Done:  E(RAM1) =  0.296075209984E-01 A.U. after   13 cycles

 Excitation energies and oscillator strengths:

 Excited State   1:      Singlet-A      4.6514 eV  266.55 nm  f=0.0652  <S**2>=0.000
      12 -> 15        -0.23622
      13 -> 14         0.66031
 This state for optimization and/or second-order correction.
 Total Energy, E(CIS) =  0.200542649695
 Copying the excited state density for this state as the 1-particle RhoCI density.

 Excited State   2:      Singlet-A      5.1668 eV  239.96 nm  f=0.0062  <S**2>=0.000
      12 -> 14         0.40687
      13 -> 15         0.54085
      13 -> 16        -0.18379

 Excited State   3:      Singlet-A      5.1987 eV  238.49 nm  f=0.0009  <S**2>=0.000
      12 -> 14         0.10614
      13 -> 15         0.16135
      13 -> 16         0.64763
      13 -> 17        -0.10473
      13 -> 22        -0.12723

 Excited State   4:      Singlet-A      5.9692 eV  207.71 nm  f=0.0022  <S**2>=0.000
       7 -> 16        -0.12066
      12 -> 16         0.54318
      12 -> 22        -0.21463
      13 -> 18        -0.30153
      13 -> 23        -0.12458

 Excited State   5:      Singlet-A      6.0617 eV  204.54 nm  f=0.0000  <S**2>=0.000
      12 -> 16         0.31599
      12 -> 18         0.14473
      12 -> 19        -0.10479
      12 -> 21         0.17256
      13 -> 18         0.42103
      13 -> 19        -0.10382
      13 -> 21         0.17291
      13 -> 22         0.14696
      13 -> 23         0.23111

 Excited State   6:      Singlet-A      6.1829 eV  200.53 nm  f=0.0004  <S**2>=0.000
      12 -> 16        -0.14392
      12 -> 18         0.26505
      12 -> 19         0.10557
      12 -> 20        -0.14523
      12 -> 23         0.14815
      13 -> 17        -0.16037
      13 -> 18        -0.13895
      13 -> 19        -0.25042
      13 -> 20         0.24104
      13 -> 21         0.23244
      13 -> 22         0.29542

 Excited State   7:      Singlet-A      6.2779 eV  197.49 nm  f=0.1193  <S**2>=0.000
      12 -> 15         0.64193
      13 -> 14         0.21917
      13 -> 17         0.10524

 Excited State   8:      Singlet-A      6.3287 eV  195.91 nm  f=0.4091  <S**2>=0.000
      12 -> 14         0.52834
      13 -> 15        -0.39871

 Excited State   9:      Singlet-A      6.3947 eV  193.89 nm  f=0.0137  <S**2>=0.000
      11 -> 14        -0.10799
      12 -> 15        -0.12446
      12 -> 19        -0.10826
      13 -> 17         0.58524
      13 -> 18        -0.15979
      13 -> 19        -0.16229
      13 -> 23         0.11558

 Excited State  10:      Singlet-A      6.7989 eV  182.36 nm  f=0.0002  <S**2>=0.000
      12 -> 17         0.47406
      12 -> 18        -0.24385
      12 -> 19        -0.21510
      12 -> 20         0.16709
      12 -> 23         0.14625
      13 -> 19        -0.27818

 Excited State  11:      Singlet-A      7.1154 eV  174.25 nm  f=0.0011  <S**2>=0.000
       9 -> 14         0.24391
       9 -> 15         0.10270
      11 -> 14         0.44979
      11 -> 15         0.42907

 Excited State  12:      Singlet-A      7.2348 eV  171.37 nm  f=0.0042  <S**2>=0.000
       9 -> 15         0.10744
      10 -> 14         0.11107
      11 -> 14         0.12068
      11 -> 15        -0.17613
      12 -> 17         0.13692
      12 -> 18         0.22625
      12 -> 19        -0.28747
      12 -> 20         0.15567
      12 -> 21        -0.11674
      12 -> 23         0.16133
      13 -> 19         0.39559
      13 -> 22         0.10683

 Excited State  13:      Singlet-A      7.4179 eV  167.14 nm  f=0.0005  <S**2>=0.000
      10 -> 14         0.53751
      10 -> 15        -0.31338
      11 -> 15        -0.15169
      13 -> 19        -0.15598
      13 -> 23         0.10986

 Excited State  14:      Singlet-A      7.5242 eV  164.78 nm  f=0.0005  <S**2>=0.000
       9 -> 15         0.10189
      11 -> 14         0.32883
      11 -> 15        -0.24565
      12 -> 17         0.10464
      12 -> 18         0.16686
      12 -> 19         0.21023
      12 -> 22        -0.19994
      13 -> 17         0.12735
      13 -> 18         0.19259
      13 -> 19        -0.12134
      13 -> 20         0.12623
      13 -> 21        -0.10123
      13 -> 22        -0.26929
      13 -> 24        -0.10747

 Excited State  15:      Singlet-A      7.5862 eV  163.43 nm  f=0.0003  <S**2>=0.000
       9 -> 14        -0.14931
      11 -> 14         0.17367
      12 -> 18        -0.33281
      12 -> 19         0.10501
      12 -> 20         0.12802
      12 -> 22        -0.14200
      13 -> 18         0.10572
      13 -> 22         0.43583
      13 -> 23        -0.13991

 The electronic state is 1-A.
 Alpha  occ. eigenvalues --   -1.59085  -1.23372  -1.10134  -0.83007  -0.79848
 Alpha  occ. eigenvalues --   -0.68540  -0.61505  -0.55853  -0.51073  -0.50546
 Alpha  occ. eigenvalues --   -0.47953  -0.38877  -0.35118
 Alpha virt. eigenvalues --    0.03915   0.06383   0.09855   0.13178   0.14433
 Alpha virt. eigenvalues --    0.15091   0.17718   0.18053   0.18996   0.20526
 Alpha virt. eigenvalues --    0.23060

 Mulliken charges:
               1
     1  C   -0.225196
     2  C   -0.096971
     3  O   -0.058142
     4  C   -0.118897
     5  C   -0.207039
     6  H    0.170812
     7  H    0.188753
     8  H    0.183176
     9  H    0.163504
 Sum of Mulliken charges =   0.00000

 Dipole moment (field-independent basis, Debye):
    X=              0.2548    Y=              0.2677    Z=             -0.0237  Tot=              0.3703
 N-N= 1.036370930087D+02 E-N=-1.713580905665D+02  KE=-1.655865466623D+01
 Orbital energies and kinetic energies (alpha):
                                 1                 2
   1         O                -1.590854         -1.328190
   2         O                -1.233717         -1.049862
   3         O                -1.101335         -0.958593
   4         O                -0.830072         -0.700924
   5         O                -0.798479         -0.716035
   6         O                -0.685403         -0.602039
   7         O                -0.615048         -0.495673

 Normal termination of Gaussian 09 at Tue Dec 15 16:27:19 2015.
