 Gaussian 09, Revision D.01,
 Gaussian 09:  ES64L-G09RevD.01 24-Apr-2013

 ------------------------------------------------------------
 #P AM1(Input,print) CIS(Singlets,NStates=15) pop(full) force
 ------------------------------------------------------------

 -----------------
 AM1-Reparam Input
 -----------------
 Symbolic Z-matrix:
 Charge =  0 Multiplicity = 1

                         Standard orientation:
 ---------------------------------------------------------------------
 Center     Atomic      Atomic             Coordinates (Angstroms)
 Number     Number       Type             X           Y           Z
 ---------------------------------------------------------------------
      1          6           0        1.041420    0.649805   -0.038434
      2          6           0        0.885524   -0.662698    0.043344
      3          8           0       -0.430291   -1.099748   -0.015550
      4          6           0       -1.099306    0.047668   -0.016891
      5          6           0       -0.381449    1.131555    0.027832
      6          1           0       -0.679998    2.150430    0.006740
      7          1           0       -2.171500   -0.081625    0.031763
      8          1           0        1.677080   -1.468754   -0.000150
      9          1           0        1.939605    1.199960   -0.009059
 ---------------------------------------------------------------------

 SCF Done:  E(RAM1) =   1.85572120049     A.U. after   14 cycles

 Excitation energies and oscillator strengths:

 Excited State   1:      Singlet-A      5.1015 eV  243.03 nm  f=0.3615  <S**2>=0.000
      13 -> 14         0.69599
 This state for optimization and/or second-order correction.
 Total Energy, E(CIS) =   2.04319926490
 Copying the excited state density for this state as the 1-particle RhoCI density.

 Excited State   2:      Singlet-A      5.9292 eV  209.11 nm  f=0.0010  <S**2>=0.000
      13 -> 15         0.68058
      13 -> 18        -0.12319

 Excited State   3:      Singlet-A      6.2586 eV  198.10 nm  f=0.0028  <S**2>=0.000
      13 -> 16         0.67577
      13 -> 17        -0.15084

 Excited State   4:      Singlet-A      7.1611 eV  173.14 nm  f=0.0007  <S**2>=0.000
      12 -> 14         0.70248

 Excited State   5:      Singlet-A      7.6839 eV  161.36 nm  f=0.0000  <S**2>=0.000
      13 -> 16         0.10212
      13 -> 17         0.58943
      13 -> 18        -0.28341
      13 -> 21        -0.19905

 Excited State   6:      Singlet-A      8.4416 eV  146.87 nm  f=0.0180  <S**2>=0.000
      10 -> 14         0.42032
      13 -> 17         0.22670
      13 -> 18         0.48994

 Excited State   7:      Singlet-A      8.6094 eV  144.01 nm  f=0.0029  <S**2>=0.000
      10 -> 14         0.54445
      13 -> 17        -0.17878
      13 -> 18        -0.37465

 Excited State   8:      Singlet-A      9.0463 eV  137.06 nm  f=0.0231  <S**2>=0.000
      11 -> 14         0.36733
      13 -> 19         0.56835

 Excited State   9:      Singlet-A      9.0713 eV  136.68 nm  f=0.0602  <S**2>=0.000
      10 -> 14        -0.11843
      11 -> 14         0.53295
      12 -> 16        -0.10221
      13 -> 19        -0.38333

 Excited State  10:      Singlet-A      9.3623 eV  132.43 nm  f=0.1497  <S**2>=0.000
       8 -> 16         0.13491
      10 -> 18        -0.12948
      12 -> 15         0.51858
      12 -> 16        -0.25716
      12 -> 17         0.24378
      12 -> 18        -0.13267

 Excited State  11:      Singlet-A      9.9601 eV  124.48 nm  f=0.0387  <S**2>=0.000
      10 -> 15        -0.22074
      10 -> 18         0.13978
      11 -> 14         0.13281
      12 -> 15         0.39508
      12 -> 16         0.40363
      12 -> 17        -0.20646

 Excited State  12:      Singlet-A     10.0879 eV  122.90 nm  f=0.0112  <S**2>=0.000
      13 -> 17         0.16093
      13 -> 20        -0.19639
      13 -> 21         0.63874

 Excited State  13:      Singlet-A     10.2172 eV  121.35 nm  f=0.1166  <S**2>=0.000
      10 -> 16         0.10673
      11 -> 15         0.25500
      12 -> 16         0.23348
      12 -> 17         0.12655
      13 -> 20         0.52355
      13 -> 21         0.15576

 Excited State  14:      Singlet-A     10.2975 eV  120.40 nm  f=0.1383  <S**2>=0.000
       8 -> 16        -0.10182
      10 -> 15         0.12400
      10 -> 16         0.20856
      10 -> 18        -0.13409
      11 -> 16         0.14925
      12 -> 16         0.31445
      12 -> 17         0.30200
      12 -> 18        -0.11262
      12 -> 19         0.12613
      13 -> 20        -0.30282

 Excited State  15:      Singlet-A     10.3663 eV  119.60 nm  f=0.0093  <S**2>=0.000
       7 -> 15        -0.12691
      11 -> 15         0.58997
      11 -> 16         0.17355
      13 -> 20        -0.23733
      13 -> 21        -0.11190

 The electronic state is 1-A.
 Alpha  occ. eigenvalues --   -1.99769  -1.27208  -1.00869  -0.89805  -0.83565
 Alpha  occ. eigenvalues --   -0.77307  -0.74714  -0.60946  -0.60449  -0.52412
 Alpha  occ. eigenvalues --   -0.51923  -0.47867  -0.34004
 Alpha virt. eigenvalues --    0.04986   0.10382   0.11637   0.21107   0.21469
 Alpha virt. eigenvalues --    0.24018   0.27246   0.28500   0.29397   0.38228
 Alpha virt. eigenvalues --    0.41960

 Mulliken charges:
               1
     1  C   -0.092966
     2  C   -1.869449
     3  O    3.145483
     4  C   -1.854439
     5  C   -0.177221
     6  H    0.143642
     7  H    0.282854
     8  H    0.288352
     9  H    0.133743
 Sum of Mulliken charges =   0.00000

 Dipole moment (field-independent basis, Debye):
    X=             -4.1787    Y=            -10.8075    Z=             -0.3860  Tot=             11.5936
 N-N= 1.058145512705D+02 E-N=-1.710379148944D+02  KE=-1.566295775398D+01
 Orbital energies and kinetic energies (alpha):
                                 1                 2
   1         O                -1.997689         -1.380321
   2         O                -1.272079         -1.060722
   3         O                -1.008693         -0.901187
   4         O                -0.898054         -0.581627
   5         O                -0.835655         -0.690029
   6         O                -0.773068         -0.585570
   7         O                -0.747141         -0.546853

 Normal termination of Gaussian 09 at Tue Dec 15 17:09:02 2015.
