 Gaussian 09, Revision D.01,
 Gaussian 09:  ES64L-G09RevD.01 24-Apr-2013

 ------------------------------------------------------------
 #P AM1(Input,print) CIS(Singlets,NStates=15) pop(full) force
 ------------------------------------------------------------

 -----------------
 AM1-Reparam Input
 -----------------
 Symbolic Z-matrix:
 Charge =  0 Multiplicity = 1

                         Standard orientation:
 ---------------------------------------------------------------------
 Center     Atomic      Atomic             Coordinates (Angstroms)
 Number     Number       Type             X           Y           Z
 ---------------------------------------------------------------------
      1          6           0        0.863239    0.784245   -0.020767
      2          6           0        1.033205   -0.481976    0.015390
      3          8           0       -0.225510   -1.153029    0.003608
      4          6           0       -1.105698   -0.133167   -0.010492
      5          6           0       -0.522442    1.046167   -0.000348
      6          1           0       -1.117619    1.976527    0.081247
      7          1           0       -2.183631   -0.462451   -0.015577
      8          1           0        1.851522   -1.191054    0.001046
      9          1           0        1.643985    1.609587    0.001716
 ---------------------------------------------------------------------

 SCF Done:  E(RAM1) =   1.86275321745     A.U. after   13 cycles

 Excitation energies and oscillator strengths:

 Excited State   1:      Singlet-A      5.3830 eV  230.32 nm  f=0.3268  <S**2>=0.000
      13 -> 14         0.69064
 This state for optimization and/or second-order correction.
 Total Energy, E(CIS) =   2.06057585893
 Copying the excited state density for this state as the 1-particle RhoCI density.

 Excited State   2:      Singlet-A      6.0529 eV  204.83 nm  f=0.0017  <S**2>=0.000
      13 -> 15         0.67994
      13 -> 17        -0.13048

 Excited State   3:      Singlet-A      6.6413 eV  186.69 nm  f=0.0026  <S**2>=0.000
      10 -> 16        -0.10027
      13 -> 16         0.67771
      13 -> 19         0.10329

 Excited State   4:      Singlet-A      7.4464 eV  166.50 nm  f=0.0008  <S**2>=0.000
      12 -> 14         0.70140

 Excited State   5:      Singlet-A      7.9809 eV  155.35 nm  f=0.0008  <S**2>=0.000
      11 -> 14         0.10007
      13 -> 17        -0.37432
      13 -> 18         0.52144
      13 -> 19        -0.10926
      13 -> 22        -0.22056

 Excited State   6:      Singlet-A      8.2215 eV  150.80 nm  f=0.0101  <S**2>=0.000
      11 -> 14         0.64475
      13 -> 17        -0.15124
      13 -> 18        -0.21448

 Excited State   7:      Singlet-A      8.4396 eV  146.91 nm  f=0.0076  <S**2>=0.000
      11 -> 14         0.25197
      13 -> 17         0.53840
      13 -> 18         0.33306

 Excited State   8:      Singlet-A      9.2111 eV  134.60 nm  f=0.0006  <S**2>=0.000
      10 -> 14         0.14219
      13 -> 17        -0.10213
      13 -> 18         0.11786
      13 -> 19         0.64335

 Excited State   9:      Singlet-A      9.2390 eV  134.20 nm  f=0.0134  <S**2>=0.000
       8 -> 16         0.12171
      10 -> 14         0.54100
      11 -> 16        -0.10253
      11 -> 17         0.10325
      12 -> 15         0.10288
      12 -> 16        -0.16625
      12 -> 17        -0.19002
      12 -> 18         0.15903
      13 -> 19        -0.17165
      13 -> 21        -0.10630

 Excited State  10:      Singlet-A      9.5027 eV  130.47 nm  f=0.0288  <S**2>=0.000
       9 -> 15         0.16445
      10 -> 14        -0.25754
      11 -> 15         0.10682
      11 -> 16        -0.10765
      11 -> 17         0.12177
      11 -> 18         0.15838
      12 -> 15         0.48317
      12 -> 16        -0.12500
      12 -> 17        -0.12276
      12 -> 18         0.15774

 Excited State  11:      Singlet-A      9.8162 eV  126.31 nm  f=0.2164  <S**2>=0.000
       9 -> 15        -0.10983
      10 -> 14         0.14840
      11 -> 15         0.53710
      11 -> 16         0.12461
      11 -> 17        -0.19311
      11 -> 18        -0.12599
      12 -> 15         0.18066
      12 -> 18        -0.17119

 Excited State  12:      Singlet-A     10.0466 eV  123.41 nm  f=0.1306  <S**2>=0.000
      11 -> 15         0.13916
      11 -> 16        -0.14553
      12 -> 16         0.61282
      12 -> 17        -0.14227

 Excited State  13:      Singlet-A     10.2454 eV  121.01 nm  f=0.0176  <S**2>=0.000
      13 -> 18         0.18596
      13 -> 19        -0.11557
      13 -> 20        -0.32612
      13 -> 22         0.57053

 Excited State  14:      Singlet-A     10.2985 eV  120.39 nm  f=0.0485  <S**2>=0.000
      10 -> 15         0.53657
      13 -> 20         0.38397
      13 -> 22         0.12753

 Excited State  15:      Singlet-A     10.4202 eV  118.98 nm  f=0.0484  <S**2>=0.000
      10 -> 15        -0.37620
      13 -> 20         0.45285
      13 -> 22         0.29314

 The electronic state is 1-A.
 Alpha  occ. eigenvalues --   -1.99289  -1.29150  -1.00698  -0.88935  -0.84819
 Alpha  occ. eigenvalues --   -0.76098  -0.74922  -0.62103  -0.60827  -0.51925
 Alpha  occ. eigenvalues --   -0.49774  -0.47538  -0.34649
 Alpha virt. eigenvalues --    0.06449   0.10208   0.12816   0.19980   0.21501
 Alpha virt. eigenvalues --    0.24148   0.27188   0.27711   0.29112   0.36549
 Alpha virt. eigenvalues --    0.40376

 Mulliken charges:
               1
     1  C   -0.095014
     2  C   -1.829872
     3  O    3.158263
     4  C   -1.874988
     5  C   -0.214798
     6  H    0.158593
     7  H    0.288518
     8  H    0.257709
     9  H    0.151588
 Sum of Mulliken charges =   0.00000

 Dipole moment (field-independent basis, Debye):
    X=             -2.5630    Y=            -11.4507    Z=              0.0478  Tot=             11.7341
 N-N= 1.058995838130D+02 E-N=-1.711960666839D+02  KE=-1.566308980577D+01
 Orbital energies and kinetic energies (alpha):
                                 1                 2
   1         O                -1.992892         -1.368240
   2         O                -1.291496         -1.068277
   3         O                -1.006978         -0.901750
   4         O                -0.889354         -0.574156
   5         O                -0.848193         -0.692974
   6         O                -0.760978         -0.592348
   7         O                -0.749218         -0.556660

 Normal termination of Gaussian 09 at Tue Dec 15 17:09:04 2015.
