 Gaussian 09, Revision D.01,
 Gaussian 09:  ES64L-G09RevD.01 24-Apr-2013

 ------------------------------------------------------------
 #P AM1(Input,print) CIS(Singlets,NStates=15) pop(full) force
 ------------------------------------------------------------

 -----------------
 AM1-Reparam Input
 -----------------
 Symbolic Z-matrix:
 Charge =  0 Multiplicity = 1

                         Standard orientation:
 ---------------------------------------------------------------------
 Center     Atomic      Atomic             Coordinates (Angstroms)
 Number     Number       Type             X           Y           Z
 ---------------------------------------------------------------------
      1          6           0        0.222048    1.174549   -0.022903
      2          6           0        1.125406    0.115966    0.022755
      3          8           0        0.481424   -1.064922   -0.017949
      4          6           0       -0.810911   -0.774028    0.015656
      5          6           0       -1.055215    0.593731   -0.003601
      6          1           0       -1.979509    1.086894    0.028569
      7          1           0       -1.545866   -1.581484    0.001573
      8          1           0        2.236428    0.095079    0.020905
      9          1           0        0.549588    2.257576    0.021105
 ---------------------------------------------------------------------

 SCF Done:  E(RAM1) =   2.08384123080     A.U. after   13 cycles

 Excitation energies and oscillator strengths:

 Excited State   1:      Singlet-A      5.7827 eV  214.40 nm  f=0.3411  <S**2>=0.000
      13 -> 14         0.69357
 This state for optimization and/or second-order correction.
 Total Energy, E(CIS) =   2.29635275392
 Copying the excited state density for this state as the 1-particle RhoCI density.

 Excited State   2:      Singlet-A      6.7258 eV  184.34 nm  f=0.0029  <S**2>=0.000
      11 -> 16        -0.11155
      13 -> 15         0.66758
      13 -> 17        -0.16100

 Excited State   3:      Singlet-A      6.9475 eV  178.46 nm  f=0.0000  <S**2>=0.000
      11 -> 15        -0.13867
      13 -> 16         0.66347
      13 -> 19        -0.13659

 Excited State   4:      Singlet-A      7.5092 eV  165.11 nm  f=0.0008  <S**2>=0.000
      12 -> 14         0.69393

 Excited State   5:      Singlet-A      8.0843 eV  153.36 nm  f=0.0067  <S**2>=0.000
      10 -> 14         0.66025
      11 -> 14        -0.20460
      13 -> 17         0.10332

 Excited State   6:      Singlet-A      8.5610 eV  144.82 nm  f=0.0029  <S**2>=0.000
      11 -> 15         0.11291
      13 -> 17         0.47520
      13 -> 18        -0.34855
      13 -> 19        -0.13857
      13 -> 21        -0.30471

 Excited State   7:      Singlet-A      8.6320 eV  143.63 nm  f=0.0055  <S**2>=0.000
      11 -> 16        -0.15122
      13 -> 17         0.45702
      13 -> 18         0.39557
      13 -> 19         0.13147
      13 -> 21         0.24504

 Excited State   8:      Singlet-A      8.9317 eV  138.81 nm  f=0.1036  <S**2>=0.000
      10 -> 14         0.20509
      11 -> 14         0.65570

 Excited State   9:      Singlet-A      9.3481 eV  132.63 nm  f=0.0041  <S**2>=0.000
      11 -> 15        -0.16560
      13 -> 18        -0.29753
      13 -> 19         0.58819
      13 -> 20        -0.13264

 Excited State  10:      Singlet-A      9.7757 eV  126.83 nm  f=0.0049  <S**2>=0.000
       8 -> 15        -0.10755
      10 -> 15        -0.19285
      10 -> 17         0.17833
      11 -> 15         0.14527
      12 -> 15        -0.14997
      12 -> 16         0.20378
      12 -> 17         0.11894
      12 -> 18        -0.14491
      13 -> 18        -0.22602
      13 -> 20         0.18666
      13 -> 21         0.35638

 Excited State  11:      Singlet-A      9.8266 eV  126.17 nm  f=0.0033  <S**2>=0.000
       8 -> 15         0.10272
      10 -> 15         0.17257
      10 -> 16         0.10404
      10 -> 17        -0.15169
      11 -> 15        -0.14216
      12 -> 15         0.13681
      12 -> 16        -0.19797
      12 -> 18         0.13359
      13 -> 18        -0.24679
      13 -> 19        -0.14607
      13 -> 20         0.16943
      13 -> 21         0.38251

 Excited State  12:      Singlet-A      9.9840 eV  124.18 nm  f=0.0028  <S**2>=0.000
      10 -> 15         0.11516
      11 -> 15         0.58680
      12 -> 15         0.14322
      12 -> 16        -0.10780
      13 -> 16         0.17256
      13 -> 19         0.14082
      13 -> 21         0.10550

 Excited State  13:      Singlet-A     10.0685 eV  123.14 nm  f=0.0805  <S**2>=0.000
      11 -> 16         0.34782
      13 -> 19         0.15574
      13 -> 20         0.52758
      13 -> 21        -0.20085

 Excited State  14:      Singlet-A     10.1860 eV  121.72 nm  f=0.1213  <S**2>=0.000
      10 -> 16         0.14971
      12 -> 15         0.38246
      12 -> 16         0.49871
      12 -> 17        -0.11394

 Excited State  15:      Singlet-A     10.2971 eV  120.41 nm  f=0.1781  <S**2>=0.000
      10 -> 15         0.39494
      10 -> 17        -0.15217
      11 -> 16         0.18609
      12 -> 15        -0.35406
      12 -> 16         0.24897
      13 -> 20        -0.14072

 The electronic state is 1-A.
 Alpha  occ. eigenvalues --   -1.94099  -1.19119  -0.91724  -0.80598  -0.77796
 Alpha  occ. eigenvalues --   -0.68953  -0.66106  -0.54534  -0.53415  -0.44571
 Alpha  occ. eigenvalues --   -0.43686  -0.42559  -0.30378
 Alpha virt. eigenvalues --    0.11969   0.17512   0.18043   0.25229   0.27488
 Alpha virt. eigenvalues --    0.29399   0.30638   0.32556   0.34092   0.42376
 Alpha virt. eigenvalues --    0.46537

 Mulliken charges:
               1
     1  C   -0.113437
     2  C   -1.907666
     3  O    3.205394
     4  C   -1.919433
     5  C   -0.131192
     6  H    0.155111
     7  H    0.282421
     8  H    0.272376
     9  H    0.156427
 Sum of Mulliken charges =   0.00000

 Dipole moment (field-independent basis, Debye):
    X=              4.2457    Y=             -9.4495    Z=             -0.4800  Tot=             10.3706
 N-N= 1.040984361663D+02 E-N=-1.693593847355D+02  KE=-1.531903414132D+01
 Orbital energies and kinetic energies (alpha):
                                 1                 2
   1         O                -1.940990         -1.380271
   2         O                -1.191193         -1.055479
   3         O                -0.917240         -0.871725
   4         O                -0.805976         -0.563787
   5         O                -0.777964         -0.675235
   6         O                -0.689532         -0.596190
   7         O                -0.661061         -0.528758

 Normal termination of Gaussian 09 at Tue Dec 15 17:08:46 2015.
