 Gaussian 09, Revision D.01,
 Gaussian 09:  ES64L-G09RevD.01 24-Apr-2013

 ------------------------------------------------------------
 #P AM1(Input,print) CIS(Singlets,NStates=15) pop(full) force
 ------------------------------------------------------------

 -----------------
 AM1-Reparam Input
 -----------------
 Symbolic Z-matrix:
 Charge =  0 Multiplicity = 1

                         Standard orientation:
 ---------------------------------------------------------------------
 Center     Atomic      Atomic             Coordinates (Angstroms)
 Number     Number       Type             X           Y           Z
 ---------------------------------------------------------------------
      1          6           0        0.233851    1.154702    0.003250
      2          6           0        1.135344    0.102583   -0.003083
      3          8           0        0.513178   -1.038706   -0.012188
      4          6           0       -0.894355   -0.752286    0.020260
      5          6           0       -1.039467    0.578183   -0.021205
      6          1           0       -1.994764    1.099424   -0.005095
      7          1           0       -1.506241   -1.562490    0.034581
      8          1           0        2.247521    0.079366    0.026829
      9          1           0        0.535823    2.194256    0.045854
 ---------------------------------------------------------------------

 SCF Done:  E(RAM1) =   2.11839376221     A.U. after   14 cycles

 Excitation energies and oscillator strengths:

 Excited State   1:      Singlet-A      5.6283 eV  220.29 nm  f=0.3327  <S**2>=0.000
      13 -> 14         0.69328
 This state for optimization and/or second-order correction.
 Total Energy, E(CIS) =   2.32522988131
 Copying the excited state density for this state as the 1-particle RhoCI density.

 Excited State   2:      Singlet-A      6.2568 eV  198.16 nm  f=0.0023  <S**2>=0.000
      10 -> 15         0.11883
      13 -> 15         0.66989
      13 -> 17        -0.15048

 Excited State   3:      Singlet-A      7.2162 eV  171.81 nm  f=0.0022  <S**2>=0.000
      10 -> 16        -0.12018
      13 -> 16         0.66382
      13 -> 20        -0.10363

 Excited State   4:      Singlet-A      7.4189 eV  167.12 nm  f=0.0007  <S**2>=0.000
      12 -> 14         0.69737

 Excited State   5:      Singlet-A      8.0620 eV  153.79 nm  f=0.0083  <S**2>=0.000
      11 -> 14         0.67363
      13 -> 17        -0.16567

 Excited State   6:      Singlet-A      8.3252 eV  148.93 nm  f=0.0036  <S**2>=0.000
      10 -> 15         0.10855
      11 -> 14         0.16916
      13 -> 15         0.11459
      13 -> 17         0.50148
      13 -> 18        -0.31143
      13 -> 19         0.12112
      13 -> 20        -0.14835
      13 -> 22         0.22771

 Excited State   7:      Singlet-A      8.4598 eV  146.56 nm  f=0.0052  <S**2>=0.000
      10 -> 16        -0.11456
      13 -> 17         0.40098
      13 -> 18         0.47481
      13 -> 22        -0.25590

 Excited State   8:      Singlet-A      9.1044 eV  136.18 nm  f=0.0633  <S**2>=0.000
      10 -> 14         0.64833
      13 -> 21        -0.13107

 Excited State   9:      Singlet-A      9.2944 eV  133.40 nm  f=0.0003  <S**2>=0.000
      13 -> 17        -0.12611
      13 -> 18         0.24142
      13 -> 19         0.57951
      13 -> 20        -0.21579

 Excited State  10:      Singlet-A      9.6517 eV  128.46 nm  f=0.0177  <S**2>=0.000
      13 -> 18         0.31188
      13 -> 19        -0.31791
      13 -> 20        -0.32126
      13 -> 21         0.11123
      13 -> 22         0.41546

 Excited State  11:      Singlet-A      9.7027 eV  127.78 nm  f=0.0224  <S**2>=0.000
       8 -> 15         0.11278
      10 -> 15        -0.15411
      11 -> 15        -0.21796
      12 -> 15         0.56556
      12 -> 17        -0.13753
      12 -> 18         0.10653

 Excited State  12:      Singlet-A      9.8343 eV  126.07 nm  f=0.0286  <S**2>=0.000
       9 -> 15         0.16885
      10 -> 14         0.10888
      10 -> 15         0.37907
      11 -> 15         0.33504
      11 -> 16         0.15736
      11 -> 17        -0.22515
      12 -> 18         0.18427
      13 -> 21        -0.10091

 Excited State  13:      Singlet-A      9.9221 eV  124.96 nm  f=0.0681  <S**2>=0.000
       9 -> 15        -0.11455
      10 -> 15         0.48963
      11 -> 15        -0.30949
      11 -> 17         0.16740
      12 -> 15         0.12822
      12 -> 18        -0.11147
      13 -> 20         0.14879

 Excited State  14:      Singlet-A     10.1889 eV  121.69 nm  f=0.0758  <S**2>=0.000
      10 -> 15        -0.13622
      10 -> 16        -0.11132
      13 -> 19         0.13475
      13 -> 20         0.47712
      13 -> 21        -0.10193
      13 -> 22         0.42992

 Excited State  15:      Singlet-A     10.4519 eV  118.62 nm  f=0.1080  <S**2>=0.000
      10 -> 14         0.19006
      11 -> 15        -0.10269
      12 -> 16        -0.35796
      12 -> 18         0.12146
      13 -> 20         0.13259
      13 -> 21         0.48017

 The electronic state is 1-A.
 Alpha  occ. eigenvalues --   -1.94159  -1.19876  -0.93366  -0.80775  -0.78835
 Alpha  occ. eigenvalues --   -0.69436  -0.66314  -0.55986  -0.53622  -0.44657
 Alpha  occ. eigenvalues --   -0.43977  -0.41913  -0.29542
 Alpha virt. eigenvalues --    0.12246   0.15853   0.21091   0.25340   0.27681
 Alpha virt. eigenvalues --    0.29517   0.31530   0.31863   0.32757   0.39937
 Alpha virt. eigenvalues --    0.44269

 Mulliken charges:
               1
     1  C   -0.227272
     2  C   -1.915927
     3  O    3.214434
     4  C   -1.866336
     5  C   -0.055713
     6  H    0.152527
     7  H    0.248431
     8  H    0.284119
     9  H    0.165737
 Sum of Mulliken charges =   0.00000

 Dipole moment (field-independent basis, Debye):
    X=              5.1901    Y=             -9.4522    Z=             -0.1765  Tot=             10.7848
 N-N= 1.042171036121D+02 E-N=-1.693970817064D+02  KE=-1.535119166658D+01
 Orbital energies and kinetic energies (alpha):
                                 1                 2
   1         O                -1.941589         -1.363009
   2         O                -1.198765         -1.055696
   3         O                -0.933659         -0.883981
   4         O                -0.807748         -0.563055
   5         O                -0.788347         -0.691389
   6         O                -0.694359         -0.589151
   7         O                -0.663139         -0.528492

 Normal termination of Gaussian 09 at Tue Dec 15 17:08:36 2015.
