 Gaussian 09, Revision D.01,
 Gaussian 09:  ES64L-G09RevD.01 24-Apr-2013

 ------------------------------------------------------------
 #P AM1(Input,print) CIS(Singlets,NStates=15) pop(full) force
 ------------------------------------------------------------

 -----------------
 AM1-Reparam Input
 -----------------
 Symbolic Z-matrix:
 Charge =  0 Multiplicity = 1

                         Standard orientation:
 ---------------------------------------------------------------------
 Center     Atomic      Atomic             Coordinates (Angstroms)
 Number     Number       Type             X           Y           Z
 ---------------------------------------------------------------------
      1          6           0       -0.975310    0.715668   -0.009273
      2          6           0       -0.928919   -0.602198   -0.018064
      3          8           0        0.318882   -1.148367    0.018147
      4          6           0        1.166129   -0.012823   -0.013168
      5          6           0        0.405930    1.103118    0.015270
      6          1           0        0.802026    2.164230   -0.016746
      7          1           0        2.195371   -0.198491   -0.022500
      8          1           0       -1.727105   -1.367089   -0.003242
      9          1           0       -1.828327    1.365698    0.048715
 ---------------------------------------------------------------------

 SCF Done:  E(RAM1) =  -2.80916144624     A.U. after   14 cycles

 Excitation energies and oscillator strengths:

 Excited State   1:      Singlet-A      5.8912 eV  210.46 nm  f=0.0002  <S**2>=0.000
      13 -> 14         0.45648
      13 -> 16         0.49773
      13 -> 23         0.11669
 This state for optimization and/or second-order correction.
 Total Energy, E(CIS) =  -2.59266529139
 Copying the excited state density for this state as the 1-particle RhoCI density.

 Excited State   2:      Singlet-A      6.4396 eV  192.53 nm  f=0.0004  <S**2>=0.000
      13 -> 14         0.49559
      13 -> 15         0.13453
      13 -> 16        -0.42940
      13 -> 17         0.18997

 Excited State   3:      Singlet-A      6.9108 eV  179.41 nm  f=0.1166  <S**2>=0.000
      13 -> 14        -0.15723
      13 -> 15         0.36793
      13 -> 16         0.16550
      13 -> 17         0.53958

 Excited State   4:      Singlet-A      7.0314 eV  176.33 nm  f=0.1937  <S**2>=0.000
      13 -> 15         0.55042
      13 -> 17        -0.39996

 Excited State   5:      Singlet-A      7.9503 eV  155.95 nm  f=0.0009  <S**2>=0.000
      11 -> 14        -0.10746
      13 -> 18         0.59936
      13 -> 20        -0.32543

 Excited State   6:      Singlet-A      8.5194 eV  145.53 nm  f=0.1023  <S**2>=0.000
      11 -> 15        -0.18601
      13 -> 19         0.65775

 Excited State   7:      Singlet-A      8.6096 eV  144.01 nm  f=0.0164  <S**2>=0.000
      11 -> 14        -0.10700
      12 -> 14        -0.11315
      12 -> 15         0.35541
      13 -> 16        -0.12891
      13 -> 18         0.24103
      13 -> 19        -0.10170
      13 -> 20         0.46417
      13 -> 21        -0.13781

 Excited State   8:      Singlet-A      8.7125 eV  142.31 nm  f=0.1998  <S**2>=0.000
      10 -> 17        -0.10254
      12 -> 14         0.34886
      12 -> 15        -0.19661
      12 -> 16         0.44631
      12 -> 18         0.12032
      12 -> 20         0.11616
      13 -> 18         0.10349
      13 -> 20         0.21566

 Excited State   9:      Singlet-A      8.8308 eV  140.40 nm  f=0.0199  <S**2>=0.000
      12 -> 15         0.54957
      12 -> 16         0.29900
      13 -> 18        -0.12129
      13 -> 20        -0.24166

 Excited State  10:      Singlet-A      9.3574 eV  132.50 nm  f=0.0228  <S**2>=0.000
      10 -> 15        -0.12954
      13 -> 20         0.20755
      13 -> 21         0.65074

 Excited State  11:      Singlet-A      9.5989 eV  129.17 nm  f=0.1931  <S**2>=0.000
      10 -> 14         0.24962
      10 -> 15        -0.17394
      10 -> 16         0.46192
      10 -> 18         0.16156
      11 -> 16         0.17455
      12 -> 14        -0.12420
      12 -> 17        -0.12591
      12 -> 21        -0.18471

 Excited State  12:      Singlet-A      9.8041 eV  126.46 nm  f=0.0284  <S**2>=0.000
      10 -> 15         0.45912
      10 -> 16         0.17972
      11 -> 14        -0.18730
      11 -> 15         0.25284
      11 -> 16        -0.13264
      12 -> 14        -0.22703
      12 -> 16         0.15247

 Excited State  13:      Singlet-A      9.8965 eV  125.28 nm  f=0.0740  <S**2>=0.000
       9 -> 14         0.16952
       9 -> 18        -0.11436
      10 -> 14         0.13072
      10 -> 15         0.31178
      10 -> 16         0.18611
      12 -> 14         0.38883
      12 -> 16        -0.26112
      12 -> 17        -0.18516

 Excited State  14:      Singlet-A     10.1241 eV  122.46 nm  f=0.0016  <S**2>=0.000
      10 -> 14        -0.11831
      10 -> 15         0.15014
      11 -> 14         0.45674
      11 -> 17         0.31762
      12 -> 17        -0.11970
      13 -> 18         0.16558
      13 -> 23        -0.26817

 Excited State  15:      Singlet-A     10.1513 eV  122.14 nm  f=0.0090  <S**2>=0.000
      11 -> 16        -0.14260
      11 -> 18         0.12876
      12 -> 17        -0.18962
      13 -> 22         0.63082

 The electronic state is 1-A.
 Alpha  occ. eigenvalues --   -3.06230  -1.26201  -0.96620  -0.95676  -0.91128
 Alpha  occ. eigenvalues --   -0.84036  -0.76091  -0.60686  -0.57731  -0.48274
 Alpha  occ. eigenvalues --   -0.47349  -0.44817  -0.31515
 Alpha virt. eigenvalues --    0.14295   0.15777   0.16101   0.19547   0.22248
 Alpha virt. eigenvalues --    0.23329   0.26767   0.26883   0.31934   0.33009
 Alpha virt. eigenvalues --    0.39779

 Mulliken charges:
               1
     1  C   -0.187071
     2  C   -1.704560
     3  O    2.835327
     4  C   -1.718432
     5  C   -0.168510
     6  H    0.188685
     7  H    0.284566
     8  H    0.273437
     9  H    0.196557
 Sum of Mulliken charges =   0.00000

 Dipole moment (field-independent basis, Debye):
    X=              2.3446    Y=            -10.1023    Z=              0.4385  Tot=             10.3801
 N-N= 1.049573825859D+02 E-N=-1.704907022945D+02  KE=-2.171529965253D+01
 Orbital energies and kinetic energies (alpha):
                                 1                 2
   1         O                -3.062304         -2.360649
   2         O                -1.262006         -1.194164
   3         O                -0.966202         -0.909383
   4         O                -0.956756         -0.972115
   5         O                -0.911277         -0.808839
   6         O                -0.840363         -0.835470
   7         O                -0.760913         -0.752981

 Normal termination of Gaussian 09 at Fri Dec 11 13:41:26 2015.
