 Gaussian 09, Revision D.01,
 Gaussian 09:  ES64L-G09RevD.01 24-Apr-2013

 ------------------------------------------------------------
 #P AM1(Input,print) CIS(Singlets,NStates=15) pop(full) force
 ------------------------------------------------------------

 -----------------
 AM1-Reparam Input
 -----------------
 Symbolic Z-matrix:
 Charge =  0 Multiplicity = 1

                         Standard orientation:
 ---------------------------------------------------------------------
 Center     Atomic      Atomic             Coordinates (Angstroms)
 Number     Number       Type             X           Y           Z
 ---------------------------------------------------------------------
      1          6           0        0.285540    1.128025   -0.022795
      2          6           0        1.182488    0.050844   -0.009044
      3          8           0        0.402109   -1.082291    0.000520
      4          6           0       -0.907967   -0.694371    0.000924
      5          6           0       -0.980951    0.676219    0.016464
      6          1           0       -1.943050    1.161635   -0.007027
      7          1           0       -1.636924   -1.524341   -0.014432
      8          1           0        2.254782   -0.096142    0.061871
      9          1           0        0.633659    2.152871    0.042130
 ---------------------------------------------------------------------

 SCF Done:  E(RAM1) =   2.02323885236     A.U. after   13 cycles

 Excitation energies and oscillator strengths:

 Excited State   1:      Singlet-A      5.7683 eV  214.94 nm  f=0.2985  <S**2>=0.000
      13 -> 14         0.68632
 This state for optimization and/or second-order correction.
 Total Energy, E(CIS) =   2.23522057425
 Copying the excited state density for this state as the 1-particle RhoCI density.

 Excited State   2:      Singlet-A      7.0596 eV  175.63 nm  f=0.0163  <S**2>=0.000
      12 -> 14         0.14553
      13 -> 15         0.62744
      13 -> 16         0.13122
      13 -> 17         0.21685

 Excited State   3:      Singlet-A      7.2069 eV  172.04 nm  f=0.0013  <S**2>=0.000
      11 -> 14        -0.13660
      12 -> 14         0.66448
      13 -> 15        -0.13410

 Excited State   4:      Singlet-A      7.4734 eV  165.90 nm  f=0.0017  <S**2>=0.000
      10 -> 15        -0.11188
      13 -> 16         0.61965
      13 -> 18        -0.25726

 Excited State   5:      Singlet-A      7.6223 eV  162.66 nm  f=0.0042  <S**2>=0.000
      10 -> 14         0.20449
      11 -> 14         0.65008
      12 -> 14         0.14713

 Excited State   6:      Singlet-A      8.5114 eV  145.67 nm  f=0.0014  <S**2>=0.000
      10 -> 15        -0.12655
      13 -> 17         0.20214
      13 -> 18         0.14408
      13 -> 19         0.50240
      13 -> 21        -0.36873

 Excited State   7:      Singlet-A      8.8255 eV  140.48 nm  f=0.1055  <S**2>=0.000
      10 -> 14         0.66276
      11 -> 14        -0.21118

 Excited State   8:      Singlet-A      8.9317 eV  138.81 nm  f=0.0233  <S**2>=0.000
      10 -> 16         0.18375
      13 -> 15        -0.15612
      13 -> 17         0.58678
      13 -> 19        -0.22273
      13 -> 21         0.11623

 Excited State   9:      Singlet-A      9.3137 eV  133.12 nm  f=0.0017  <S**2>=0.000
      10 -> 15        -0.13885
      10 -> 16        -0.13277
      13 -> 16         0.17665
      13 -> 17        -0.13319
      13 -> 18         0.58050
      13 -> 19        -0.21768

 Excited State  10:      Singlet-A      9.4752 eV  130.85 nm  f=0.1358  <S**2>=0.000
       9 -> 16        -0.10823
       9 -> 18         0.10561
      11 -> 15         0.22530
      11 -> 16         0.16668
      11 -> 17         0.16024
      11 -> 19        -0.16127
      12 -> 15         0.40667
      12 -> 16         0.12882
      12 -> 17         0.24514
      12 -> 19         0.15395
      13 -> 14         0.13838

 Excited State  11:      Singlet-A     10.0316 eV  123.59 nm  f=0.0214  <S**2>=0.000
       9 -> 15        -0.11070
      10 -> 15        -0.12739
      11 -> 15        -0.28719
      11 -> 17        -0.16479
      12 -> 16         0.49610
      12 -> 17         0.10673
      12 -> 18        -0.24746

 Excited State  12:      Singlet-A     10.0538 eV  123.32 nm  f=0.0003  <S**2>=0.000
      10 -> 15         0.16718
      13 -> 18         0.19541
      13 -> 19         0.36565
      13 -> 21         0.51773

 Excited State  13:      Singlet-A     10.1991 eV  121.56 nm  f=0.0228  <S**2>=0.000
      10 -> 15         0.39249
      10 -> 16         0.17576
      10 -> 17         0.12139
      11 -> 15        -0.35957
      12 -> 15         0.13188
      13 -> 16         0.15872
      13 -> 21        -0.23121

 Excited State  14:      Singlet-A     10.2647 eV  120.79 nm  f=0.1333  <S**2>=0.000
      10 -> 15         0.33798
      11 -> 15         0.33035
      11 -> 16        -0.23940
      11 -> 18         0.15964
      12 -> 15        -0.10169
      12 -> 16         0.28167
      12 -> 18        -0.14024

 Excited State  15:      Singlet-A     10.3568 eV  119.71 nm  f=0.0750  <S**2>=0.000
      13 -> 20         0.68241

 The electronic state is 1-A.
 Alpha  occ. eigenvalues --   -1.93499  -1.21225  -0.94612  -0.81876  -0.79280
 Alpha  occ. eigenvalues --   -0.67941  -0.64840  -0.55300  -0.54262  -0.43615
 Alpha  occ. eigenvalues --   -0.43138  -0.41976  -0.31310
 Alpha virt. eigenvalues --    0.11732   0.18732   0.20203   0.24626   0.27096
 Alpha virt. eigenvalues --    0.28685   0.30618   0.30785   0.35372   0.44103
 Alpha virt. eigenvalues --    0.48910

 Mulliken charges:
               1
     1  C   -0.200232
     2  C   -2.028173
     3  O    3.193840
     4  C   -2.029774
     5  C   -0.189722
     6  H    0.261264
     7  H    0.367732
     8  H    0.364054
     9  H    0.261010
 Sum of Mulliken charges =   0.00000

 Dipole moment (field-independent basis, Debye):
    X=              3.1030    Y=             -9.5873    Z=              0.2304  Tot=             10.0796
 N-N= 1.043031105617D+02 E-N=-1.696102730921D+02  KE=-1.549199832697D+01
 Orbital energies and kinetic energies (alpha):
                                 1                 2
   1         O                -1.934993         -1.381246
   2         O                -1.212245         -1.078067
   3         O                -0.946117         -0.861689
   4         O                -0.818761         -0.604222
   5         O                -0.792795         -0.670676
   6         O                -0.679410         -0.586336
   7         O                -0.648399         -0.525398

 Normal termination of Gaussian 09 at Tue Dec 15 17:07:19 2015.
