 Gaussian 09, Revision D.01,
 Gaussian 09:  ES64L-G09RevD.01 24-Apr-2013

 ------------------------------------------------------------
 #P AM1(Input,print) CIS(Singlets,NStates=15) pop(full) force
 ------------------------------------------------------------

 -----------------
 AM1-Reparam Input
 -----------------
 Symbolic Z-matrix:
 Charge =  0 Multiplicity = 1

                         Standard orientation:
 ---------------------------------------------------------------------
 Center     Atomic      Atomic             Coordinates (Angstroms)
 Number     Number       Type             X           Y           Z
 ---------------------------------------------------------------------
      1          6           0        0.742803    0.936896   -0.010631
      2          6           0        1.121547   -0.390514   -0.001570
      3          8           0       -0.036720   -1.126727   -0.003046
      4          6           0       -1.137069   -0.293390   -0.004775
      5          6           0       -0.695913    0.939560    0.009100
      6          1           0       -1.292563    1.819857   -0.003905
      7          1           0       -2.080019   -0.819037    0.021126
      8          1           0        2.038956   -0.905150    0.038451
      9          1           0        1.439177    1.762834    0.015956
 ---------------------------------------------------------------------

 SCF Done:  E(RAM1) =   1.11621012578     A.U. after   14 cycles

 Excitation energies and oscillator strengths:

 Excited State   1:      Singlet-A      5.4230 eV  228.63 nm  f=0.2014  <S**2>=0.000
      12 -> 15        -0.14331
      13 -> 14         0.67951
 This state for optimization and/or second-order correction.
 Total Energy, E(CIS) =   1.31550205064
 Copying the excited state density for this state as the 1-particle RhoCI density.

 Excited State   2:      Singlet-A      6.3320 eV  195.80 nm  f=0.0032  <S**2>=0.000
      13 -> 16         0.67026
      13 -> 19         0.12168
      13 -> 20        -0.11122

 Excited State   3:      Singlet-A      6.7441 eV  183.84 nm  f=0.0234  <S**2>=0.000
      12 -> 14         0.32201
      13 -> 15         0.60681

 Excited State   4:      Singlet-A      6.9083 eV  179.47 nm  f=0.0001  <S**2>=0.000
      13 -> 17         0.65038
      13 -> 18         0.17284
      13 -> 21         0.15503

 Excited State   5:      Singlet-A      7.1897 eV  172.45 nm  f=0.0003  <S**2>=0.000
       9 -> 14         0.15481
      11 -> 14         0.68120

 Excited State   6:      Singlet-A      7.7761 eV  159.44 nm  f=0.0003  <S**2>=0.000
       9 -> 15         0.10714
      10 -> 14         0.59344
      11 -> 15        -0.33036

 Excited State   7:      Singlet-A      7.9765 eV  155.44 nm  f=0.2258  <S**2>=0.000
      11 -> 16        -0.12282
      12 -> 14         0.60794
      13 -> 15        -0.28977

 Excited State   8:      Singlet-A      8.0449 eV  154.12 nm  f=0.0001  <S**2>=0.000
      12 -> 16        -0.15738
      13 -> 17        -0.15002
      13 -> 18         0.63856
      13 -> 24         0.14190

 Excited State   9:      Singlet-A      8.1926 eV  151.34 nm  f=0.0204  <S**2>=0.000
       9 -> 15        -0.15852
      10 -> 14         0.30446
      11 -> 15         0.55079
      13 -> 19        -0.22978

 Excited State  10:      Singlet-A      8.2265 eV  150.71 nm  f=0.0003  <S**2>=0.000
      10 -> 14         0.20099
      11 -> 15         0.15227
      13 -> 19         0.61866
      13 -> 20         0.11741
      13 -> 22         0.10823

 Excited State  11:      Singlet-A      8.6421 eV  143.47 nm  f=0.0056  <S**2>=0.000
      12 -> 15        -0.15356
      12 -> 16         0.62945
      12 -> 17        -0.11859
      12 -> 19         0.11051
      13 -> 18         0.13064

 Excited State  12:      Singlet-A      8.8120 eV  140.70 nm  f=0.2384  <S**2>=0.000
       9 -> 17         0.13126
      12 -> 15         0.62654
      12 -> 16         0.15562
      13 -> 14         0.13495

 Excited State  13:      Singlet-A      9.0127 eV  137.57 nm  f=0.0685  <S**2>=0.000
       9 -> 16        -0.21075
      10 -> 16         0.10543
      10 -> 17        -0.17971
      11 -> 16         0.56878
      11 -> 19         0.17603
      13 -> 15        -0.12740

 Excited State  14:      Singlet-A      9.1183 eV  135.97 nm  f=0.0041  <S**2>=0.000
       7 -> 16        -0.10258
      12 -> 17         0.50434
      13 -> 20         0.44682

 Excited State  15:      Singlet-A      9.4022 eV  131.87 nm  f=0.0001  <S**2>=0.000
       9 -> 14         0.64370
      10 -> 15         0.11406
      11 -> 14        -0.14623
      13 -> 21         0.15527

 The electronic state is 1-A.
 Alpha  occ. eigenvalues --   -1.82298  -1.18934  -1.00078  -0.87643  -0.81058
 Alpha  occ. eigenvalues --   -0.73932  -0.71502  -0.62229  -0.56566  -0.52063
 Alpha  occ. eigenvalues --   -0.49266  -0.47892  -0.38204
 Alpha virt. eigenvalues --    0.03082   0.08748   0.09989   0.11384   0.17886
 Alpha virt. eigenvalues --    0.18617   0.19132   0.21538   0.26469   0.26925
 Alpha virt. eigenvalues --    0.27317

 Mulliken charges:
               1
     1  C   -0.154154
     2  C   -1.245270
     3  O    2.141948
     4  C   -1.226196
     5  C   -0.141101
     6  H    0.116444
     7  H    0.196014
     8  H    0.196474
     9  H    0.115840
 Sum of Mulliken charges =   0.00000

 Dipole moment (field-independent basis, Debye):
    X=             -0.3634    Y=             -7.0757    Z=              0.0954  Tot=              7.0857
 N-N= 1.043401947256D+02 E-N=-1.710459703491D+02  KE=-1.496867193620D+01
 Orbital energies and kinetic energies (alpha):
                                 1                 2
   1         O                -1.822983         -1.235894
   2         O                -1.189339         -0.959044
   3         O                -1.000780         -0.821722
   4         O                -0.876430         -0.631050
   5         O                -0.810579         -0.677670
   6         O                -0.739325         -0.595458
   7         O                -0.715020         -0.512438

 Normal termination of Gaussian 09 at Tue Dec 15 17:05:37 2015.
