 Gaussian 09, Revision D.01,
 Gaussian 09:  ES64L-G09RevD.01 24-Apr-2013

 ------------------------------------------------------------
 #P AM1(Input,print) CIS(Singlets,NStates=15) pop(full) force
 ------------------------------------------------------------

 -----------------
 AM1-Reparam Input
 -----------------
 Symbolic Z-matrix:
 Charge =  0 Multiplicity = 1

                         Standard orientation:
 ---------------------------------------------------------------------
 Center     Atomic      Atomic             Coordinates (Angstroms)
 Number     Number       Type             X           Y           Z
 ---------------------------------------------------------------------
      1          6           0       -0.975310    0.715668   -0.009273
      2          6           0       -0.928919   -0.602198   -0.018064
      3          8           0        0.318882   -1.148367    0.018147
      4          6           0        1.166129   -0.012823   -0.013168
      5          6           0        0.405930    1.103118    0.015270
      6          1           0        0.802026    2.164230   -0.016746
      7          1           0        2.195371   -0.198491   -0.022500
      8          1           0       -1.727105   -1.367089   -0.003242
      9          1           0       -1.828327    1.365698    0.048715
 ---------------------------------------------------------------------

 SCF Done:  E(RAM1) =  -5.23094878054     A.U. after   14 cycles

 Excitation energies and oscillator strengths:

 Excited State   1:      Singlet-A      6.7936 eV  182.50 nm  f=0.0200  <S**2>=0.000
      13 -> 14         0.23170
      13 -> 15         0.65106
 This state for optimization and/or second-order correction.
 Total Energy, E(CIS) =  -4.98128732443
 Copying the excited state density for this state as the 1-particle RhoCI density.

 Excited State   2:      Singlet-A      7.1207 eV  174.12 nm  f=0.1967  <S**2>=0.000
      12 -> 14        -0.12411
      13 -> 14         0.62718
      13 -> 15        -0.23885

 Excited State   3:      Singlet-A      7.1762 eV  172.77 nm  f=0.0090  <S**2>=0.000
      12 -> 14         0.68202
      13 -> 14         0.12873

 Excited State   4:      Singlet-A      7.5525 eV  164.16 nm  f=0.0026  <S**2>=0.000
      13 -> 16         0.67881

 Excited State   5:      Singlet-A      8.0201 eV  154.59 nm  f=0.0018  <S**2>=0.000
      10 -> 14        -0.11369
      11 -> 14         0.68850

 Excited State   6:      Singlet-A      8.8407 eV  140.24 nm  f=0.0003  <S**2>=0.000
      10 -> 14        -0.28414
      12 -> 15         0.34418
      12 -> 16         0.17252
      13 -> 17         0.49337

 Excited State   7:      Singlet-A      9.1691 eV  135.22 nm  f=0.0321  <S**2>=0.000
      10 -> 14         0.35515
      11 -> 16        -0.10484
      12 -> 15         0.45105
      12 -> 16         0.25256
      13 -> 17        -0.23875

 Excited State   8:      Singlet-A      9.4390 eV  131.35 nm  f=0.0399  <S**2>=0.000
      10 -> 15         0.36295
      11 -> 15         0.39699
      12 -> 16        -0.37723
      13 -> 18         0.13941

 Excited State   9:      Singlet-A      9.4991 eV  130.52 nm  f=0.0239  <S**2>=0.000
      10 -> 15         0.49839
      11 -> 15        -0.17142
      12 -> 15        -0.21410
      12 -> 16         0.31818
      13 -> 18         0.16869

 Excited State  10:      Singlet-A      9.7396 eV  127.30 nm  f=0.0039  <S**2>=0.000
      10 -> 15        -0.15905
      10 -> 16        -0.27748
      13 -> 18         0.56736
      13 -> 20        -0.16272

 Excited State  11:      Singlet-A      9.8253 eV  126.19 nm  f=0.0120  <S**2>=0.000
       9 -> 15         0.15754
      10 -> 15        -0.11399
      11 -> 15         0.49469
      12 -> 15        -0.22847
      12 -> 16         0.34561

 Excited State  12:      Singlet-A      9.9019 eV  125.21 nm  f=0.0002  <S**2>=0.000
      10 -> 15        -0.13264
      10 -> 16         0.30529
      13 -> 19         0.58841
      13 -> 22         0.10631

 Excited State  13:      Singlet-A     10.0448 eV  123.43 nm  f=0.1762  <S**2>=0.000
       9 -> 15         0.11899
      10 -> 14         0.43576
      10 -> 15        -0.10042
      11 -> 16         0.26507
      12 -> 18        -0.12784
      13 -> 17         0.36753

 Excited State  14:      Singlet-A     10.1798 eV  121.79 nm  f=0.0021  <S**2>=0.000
       8 -> 14        -0.11897
       9 -> 14         0.61642
      12 -> 17         0.28192

 Excited State  15:      Singlet-A     10.5147 eV  117.91 nm  f=0.0026  <S**2>=0.000
       8 -> 14        -0.10915
      10 -> 16        -0.29275
      13 -> 20         0.58824
      13 -> 23         0.10001

 The electronic state is 1-A.
 Alpha  occ. eigenvalues --   -3.83257  -1.32507  -0.96965  -0.95985  -0.94441
 Alpha  occ. eigenvalues --   -0.85744  -0.73629  -0.53407  -0.51029  -0.47111
 Alpha  occ. eigenvalues --   -0.45915  -0.42981  -0.36221
 Alpha virt. eigenvalues --    0.09893   0.13102   0.15498   0.19810   0.23704
 Alpha virt. eigenvalues --    0.24703   0.26647   0.28944   0.35091   0.36508
 Alpha virt. eigenvalues --    0.37504

 Mulliken charges:
               1
     1  C   -0.370749
     2  C   -1.137715
     3  O    2.385041
     4  C   -1.145151
     5  C   -0.352268
     6  H    0.196631
     7  H    0.116122
     8  H    0.122201
     9  H    0.185888
 Sum of Mulliken charges =   0.00000

 Dipole moment (field-independent basis, Debye):
    X=              2.3085    Y=             -9.3473    Z=              0.3512  Tot=              9.6346
 N-N= 1.016250920631D+02 E-N=-1.670474473683D+02  KE=-2.188078822547D+01
 Orbital energies and kinetic energies (alpha):
                                 1                 2
   1         O                -3.832566         -3.116133
   2         O                -1.325072         -1.202068
   3         O                -0.969654         -0.882841
   4         O                -0.959849         -0.909374
   5         O                -0.944412         -0.934982
   6         O                -0.857440         -0.729645
   7         O                -0.736286         -0.630955

 Normal termination of Gaussian 09 at Fri Dec 11 13:41:25 2015.
