 Gaussian 09, Revision D.01,
 Gaussian 09:  ES64L-G09RevD.01 24-Apr-2013

 ------------------------------------------------------------
 #P AM1(Input,print) CIS(Singlets,NStates=15) pop(full) force
 ------------------------------------------------------------

 -----------------
 AM1-Reparam Input
 -----------------
 Symbolic Z-matrix:
 Charge =  0 Multiplicity = 1

                         Standard orientation:
 ---------------------------------------------------------------------
 Center     Atomic      Atomic             Coordinates (Angstroms)
 Number     Number       Type             X           Y           Z
 ---------------------------------------------------------------------
      1          6           0        0.997475    0.685063   -0.014824
      2          6           0        0.940449   -0.633211   -0.000099
      3          8           0       -0.343307   -1.080257   -0.024714
      4          6           0       -1.184418   -0.037306    0.038479
      5          6           0       -0.389944    1.104132    0.005761
      6          1           0       -0.719698    2.168621   -0.062461
      7          1           0       -2.209550   -0.159561   -0.029901
      8          1           0        1.684739   -1.406406    0.074416
      9          1           0        1.809589    1.327340    0.039754
 ---------------------------------------------------------------------

 SCF Done:  E(RAM1) =   2.82528358406     A.U. after   13 cycles

 Excitation energies and oscillator strengths:

 Excited State   1:      Singlet-A      5.1844 eV  239.15 nm  f=0.3448  <S**2>=0.000
      13 -> 14         0.69583
 This state for optimization and/or second-order correction.
 Total Energy, E(CIS) =   3.01580711228
 Copying the excited state density for this state as the 1-particle RhoCI density.

 Excited State   2:      Singlet-A      6.4701 eV  191.63 nm  f=0.0053  <S**2>=0.000
      11 -> 15         0.11187
      13 -> 15         0.64902
      13 -> 17         0.18579
      13 -> 18        -0.12495

 Excited State   3:      Singlet-A      6.5175 eV  190.23 nm  f=0.0003  <S**2>=0.000
       9 -> 14         0.12128
      12 -> 14         0.68880

 Excited State   4:      Singlet-A      6.6904 eV  185.32 nm  f=0.0061  <S**2>=0.000
      13 -> 16         0.63336
      13 -> 17         0.13565
      13 -> 18         0.22652

 Excited State   5:      Singlet-A      7.5789 eV  163.59 nm  f=0.0044  <S**2>=0.000
      13 -> 15         0.17480
      13 -> 17        -0.33393
      13 -> 18         0.38621
      13 -> 19         0.13057
      13 -> 20         0.29874
      13 -> 21        -0.26851

 Excited State   6:      Singlet-A      7.8224 eV  158.50 nm  f=0.0066  <S**2>=0.000
      10 -> 14         0.67926
      13 -> 20         0.12443

 Excited State   7:      Singlet-A      8.1757 eV  151.65 nm  f=0.0080  <S**2>=0.000
      10 -> 14        -0.14976
      11 -> 16         0.12610
      13 -> 15        -0.10691
      13 -> 16        -0.15907
      13 -> 17         0.55565
      13 -> 18         0.15374
      13 -> 19         0.13735
      13 -> 20         0.22897
      13 -> 21        -0.11805

 Excited State   8:      Singlet-A      8.5634 eV  144.78 nm  f=0.1088  <S**2>=0.000
      11 -> 14         0.67836
      12 -> 15         0.11780

 Excited State   9:      Singlet-A      8.6365 eV  143.56 nm  f=0.0015  <S**2>=0.000
      13 -> 16         0.15315
      13 -> 18        -0.28012
      13 -> 19         0.59054
      13 -> 20         0.11403

 Excited State  10:      Singlet-A      8.9332 eV  138.79 nm  f=0.0186  <S**2>=0.000
      13 -> 18         0.39876
      13 -> 19         0.30822
      13 -> 20        -0.39731
      13 -> 21         0.27075

 Excited State  11:      Singlet-A      9.2704 eV  133.74 nm  f=0.0533  <S**2>=0.000
       8 -> 15        -0.10852
       9 -> 18        -0.11408
      10 -> 16         0.11256
      10 -> 17         0.17998
      12 -> 15         0.41344
      12 -> 16        -0.24651
      12 -> 17         0.14530
      12 -> 18        -0.29362
      12 -> 20        -0.14755
      12 -> 21         0.10057

 Excited State  12:      Singlet-A      9.3866 eV  132.09 nm  f=0.0727  <S**2>=0.000
      13 -> 20         0.39818
      13 -> 21         0.55993

 Excited State  13:      Singlet-A      9.6518 eV  128.46 nm  f=0.0296  <S**2>=0.000
       9 -> 14         0.16562
      10 -> 15        -0.14782
      12 -> 15         0.38843
      12 -> 16         0.43807
      12 -> 18         0.18925

 Excited State  14:      Singlet-A      9.7487 eV  127.18 nm  f=0.0205  <S**2>=0.000
       9 -> 14         0.60564
      10 -> 16        -0.10937
      12 -> 14        -0.10620
      12 -> 16        -0.24149
      12 -> 17        -0.12124

 Excited State  15:      Singlet-A      9.7632 eV  126.99 nm  f=0.1417  <S**2>=0.000
       9 -> 14        -0.26927
       9 -> 16         0.12847
      10 -> 15        -0.18030
      10 -> 16        -0.19161
      10 -> 17        -0.17789
      12 -> 15         0.27440
      12 -> 16        -0.25739
      12 -> 17        -0.20615
      12 -> 18         0.12490
      12 -> 19         0.19110
      12 -> 20         0.13317

 The electronic state is 1-A.
 Alpha  occ. eigenvalues --   -1.72678  -1.11643  -0.93285  -0.79590  -0.75798
 Alpha  occ. eigenvalues --   -0.66630  -0.64136  -0.55106  -0.49588  -0.44560
 Alpha  occ. eigenvalues --   -0.43701  -0.40044  -0.28789
 Alpha virt. eigenvalues --    0.10588   0.18045   0.19639   0.24678   0.26445
 Alpha virt. eigenvalues --    0.27973   0.28625   0.29973   0.37932   0.46475
 Alpha virt. eigenvalues --    0.51257

 Mulliken charges:
               1
     1  C   -0.105101
     2  C   -1.941809
     3  O    3.222609
     4  C   -1.977795
     5  C   -0.177540
     6  H    0.185213
     7  H    0.313596
     8  H    0.301394
     9  H    0.179433
 Sum of Mulliken charges =   0.00000

 Dipole moment (field-independent basis, Debye):
    X=             -2.5592    Y=             -9.5031    Z=             -0.6049  Tot=              9.8602
 N-N= 1.041534311079D+02 E-N=-1.693534497634D+02  KE=-1.479187073188D+01
 Orbital energies and kinetic energies (alpha):
                                 1                 2
   1         O                -1.726783         -1.226160
   2         O                -1.116429         -0.979873
   3         O                -0.932853         -0.843274
   4         O                -0.795896         -0.600086
   5         O                -0.757984         -0.688315
   6         O                -0.666301         -0.571117
   7         O                -0.641362         -0.522457

 Normal termination of Gaussian 09 at Tue Dec 15 17:06:06 2015.
