 Gaussian 09, Revision D.01,
 Gaussian 09:  ES64L-G09RevD.01 24-Apr-2013

 ------------------------------------------------------------
 #P AM1(Input,print) CIS(Singlets,NStates=15) pop(full) force
 ------------------------------------------------------------

 -----------------
 AM1-Reparam Input
 -----------------
 Symbolic Z-matrix:
 Charge =  0 Multiplicity = 1

                         Standard orientation:
 ---------------------------------------------------------------------
 Center     Atomic      Atomic             Coordinates (Angstroms)
 Number     Number       Type             X           Y           Z
 ---------------------------------------------------------------------
      1          6           0       -0.539353    1.061019   -0.012649
      2          6           0       -1.170045   -0.182549    0.028961
      3          8           0       -0.201308   -1.090727   -0.017120
      4          6           0        1.014732   -0.522020   -0.001889
      5          6           0        0.911592    0.780923   -0.009582
      6          1           0        1.622497    1.557458    0.076031
      7          1           0        1.845513   -1.197540    0.044122
      8          1           0       -2.155868   -0.461706    0.015911
      9          1           0       -1.003236    2.003364   -0.028147
 ---------------------------------------------------------------------

 SCF Done:  E(RAM1) =  -5.44836359658     A.U. after   14 cycles

 Excitation energies and oscillator strengths:

 Excited State   1:      Singlet-A      6.4141 eV  193.30 nm  f=0.4187  <S**2>=0.000
      13 -> 14         0.69627
 This state for optimization and/or second-order correction.
 Total Energy, E(CIS) =  -5.21264812452
 Copying the excited state density for this state as the 1-particle RhoCI density.

 Excited State   2:      Singlet-A      7.2257 eV  171.59 nm  f=0.0013  <S**2>=0.000
      13 -> 15         0.68231
      13 -> 20         0.10158

 Excited State   3:      Singlet-A      7.5923 eV  163.30 nm  f=0.0077  <S**2>=0.000
      13 -> 16         0.68438

 Excited State   4:      Singlet-A      8.2697 eV  149.93 nm  f=0.0013  <S**2>=0.000
      12 -> 14         0.69773

 Excited State   5:      Singlet-A      9.3649 eV  132.39 nm  f=0.0007  <S**2>=0.000
      13 -> 17         0.62324
      13 -> 18        -0.21043
      13 -> 20         0.13880
      13 -> 22         0.15453

 Excited State   6:      Singlet-A      9.7091 eV  127.70 nm  f=0.0042  <S**2>=0.000
      10 -> 14         0.66530
      11 -> 14        -0.21424

 Excited State   7:      Singlet-A     10.3931 eV  119.29 nm  f=0.0057  <S**2>=0.000
      11 -> 14        -0.21492
      11 -> 15         0.12600
      13 -> 17         0.20440
      13 -> 18         0.60861

 Excited State   8:      Singlet-A     10.5079 eV  117.99 nm  f=0.0879  <S**2>=0.000
      10 -> 14         0.21432
      11 -> 14         0.57403
      12 -> 15         0.15918
      13 -> 18         0.20686
      13 -> 21         0.14090

 Excited State   9:      Singlet-A     11.0876 eV  111.82 nm  f=0.1672  <S**2>=0.000
      11 -> 14        -0.16853
      12 -> 15         0.57309
      12 -> 16        -0.16722
      12 -> 17         0.20963

 Excited State  10:      Singlet-A     11.2812 eV  109.90 nm  f=0.0007  <S**2>=0.000
      11 -> 16        -0.15058
      13 -> 17        -0.17534
      13 -> 20         0.64419

 Excited State  11:      Singlet-A     11.5305 eV  107.53 nm  f=0.0679  <S**2>=0.000
      11 -> 15        -0.34393
      11 -> 16         0.15009
      13 -> 19         0.57947

 Excited State  12:      Singlet-A     11.7779 eV  105.27 nm  f=0.0260  <S**2>=0.000
      10 -> 15        -0.22387
      10 -> 18         0.11738
      11 -> 15         0.13555
      11 -> 16         0.13700
      12 -> 15         0.26159
      12 -> 16         0.48699
      12 -> 17        -0.21577

 Excited State  13:      Singlet-A     12.0472 eV  102.92 nm  f=0.0061  <S**2>=0.000
      11 -> 15         0.40128
      11 -> 16         0.45765
      12 -> 16        -0.18972
      13 -> 15        -0.10414
      13 -> 19         0.10229
      13 -> 20         0.14888

 Excited State  14:      Singlet-A     12.1400 eV  102.13 nm  f=0.1704  <S**2>=0.000
      10 -> 16         0.45723
      10 -> 18        -0.18526
      12 -> 15        -0.13471
      12 -> 16         0.27708
      12 -> 17         0.25077
      12 -> 18        -0.13270
      13 -> 22        -0.17530

 Excited State  15:      Singlet-A     12.2052 eV  101.58 nm  f=0.0386  <S**2>=0.000
      10 -> 16         0.12243
      11 -> 15         0.25234
      11 -> 16        -0.17658
      13 -> 17        -0.11809
      13 -> 19         0.20082
      13 -> 21        -0.11531
      13 -> 22         0.51869

 The electronic state is 1-A.
 Alpha  occ. eigenvalues --   -3.88622  -1.34214  -0.98963  -0.97263  -0.92606
 Alpha  occ. eigenvalues --   -0.90608  -0.82513  -0.68162  -0.67292  -0.57806
 Alpha  occ. eigenvalues --   -0.56828  -0.53461  -0.38674
 Alpha virt. eigenvalues --    0.05687   0.12179   0.14125   0.23253   0.24099
 Alpha virt. eigenvalues --    0.28943   0.29674   0.30947   0.32131   0.40137
 Alpha virt. eigenvalues --    0.47568

 Mulliken charges:
               1
     1  C   -0.112866
     2  C   -1.550596
     3  O    3.124728
     4  C   -1.508785
     5  C   -0.046544
     6  H   -0.008236
     7  H    0.051085
     8  H    0.055089
     9  H   -0.003874
 Sum of Mulliken charges =   0.00000

 Dipole moment (field-independent basis, Debye):
    X=             -1.5197    Y=            -11.0371    Z=             -0.3707  Tot=             11.1474
 N-N= 1.053996655676D+02 E-N=-1.717506002235D+02  KE=-2.340521724746D+01
 Orbital energies and kinetic energies (alpha):
                                 1                 2
   1         O                -3.886219         -3.085142
   2         O                -1.342137         -1.216409
   3         O                -0.989632         -0.935874
   4         O                -0.972632         -0.959824
   5         O                -0.926063         -0.826599
   6         O                -0.906084         -0.810984
   7         O                -0.825125         -0.765168

 Normal termination of Gaussian 09 at Fri Dec 11 13:41:32 2015.
