 Gaussian 09, Revision D.01,
 Gaussian 09:  ES64L-G09RevD.01 24-Apr-2013

 ------------------------------------------------------------
 #P AM1(Input,print) CIS(Singlets,NStates=15) pop(full) force
 ------------------------------------------------------------

 -----------------
 AM1-Reparam Input
 -----------------
 Symbolic Z-matrix:
 Charge =  0 Multiplicity = 1

                         Standard orientation:
 ---------------------------------------------------------------------
 Center     Atomic      Atomic             Coordinates (Angstroms)
 Number     Number       Type             X           Y           Z
 ---------------------------------------------------------------------
      1          6           0       -0.885270    0.787392    0.015701
      2          6           0       -1.065905   -0.472591   -0.015346
      3          8           0        0.213108   -1.146504    0.022311
      4          6           0        1.169657   -0.156108   -0.021829
      5          6           0        0.536669    1.068398   -0.009674
      6          1           0        1.077165    1.969415    0.057703
      7          1           0        2.133243   -0.528447   -0.004625
      8          1           0       -1.874166   -1.175156   -0.029939
      9          1           0       -1.572016    1.543671   -0.014736
 ---------------------------------------------------------------------

 SCF Done:  E(RAM1) =  -4.45507300551     A.U. after   14 cycles

 Excitation energies and oscillator strengths:

 Excited State   1:      Singlet-A      6.3498 eV  195.26 nm  f=0.0008  <S**2>=0.000
      13 -> 14         0.42709
      13 -> 15         0.35413
      13 -> 16        -0.36983
      13 -> 18         0.14201
      13 -> 21         0.12207
      13 -> 22        -0.10381
 This state for optimization and/or second-order correction.
 Total Energy, E(CIS) =  -4.22172075014
 Copying the excited state density for this state as the 1-particle RhoCI density.

 Excited State   2:      Singlet-A      6.7013 eV  185.02 nm  f=0.0017  <S**2>=0.000
      13 -> 14         0.49453
      13 -> 15        -0.22120
      13 -> 16         0.32031
      13 -> 17        -0.29457

 Excited State   3:      Singlet-A      7.0720 eV  175.32 nm  f=0.1304  <S**2>=0.000
      13 -> 14         0.21890
      13 -> 15        -0.39293
      13 -> 16        -0.14760
      13 -> 17         0.50774

 Excited State   4:      Singlet-A      7.2420 eV  171.20 nm  f=0.2329  <S**2>=0.000
      11 -> 17         0.11046
      13 -> 15         0.35246
      13 -> 16         0.43459
      13 -> 17         0.38231

 Excited State   5:      Singlet-A      7.9339 eV  156.27 nm  f=0.0003  <S**2>=0.000
      12 -> 15         0.14235
      12 -> 16         0.10908
      13 -> 16         0.12893
      13 -> 18         0.63943
      13 -> 22        -0.11257

 Excited State   6:      Singlet-A      8.2208 eV  150.82 nm  f=0.0026  <S**2>=0.000
      12 -> 15         0.56649
      12 -> 16         0.36965
      13 -> 18        -0.17869

 Excited State   7:      Singlet-A      8.6117 eV  143.97 nm  f=0.1119  <S**2>=0.000
      11 -> 17        -0.13856
      12 -> 14        -0.33330
      12 -> 15        -0.25161
      12 -> 16         0.43214
      12 -> 18        -0.24666
      12 -> 21        -0.12778
      12 -> 22         0.13459

 Excited State   8:      Singlet-A      9.0076 eV  137.64 nm  f=0.0089  <S**2>=0.000
      13 -> 19         0.36474
      13 -> 21         0.56432

 Excited State   9:      Singlet-A      9.2742 eV  133.69 nm  f=0.0180  <S**2>=0.000
      11 -> 15         0.42426
      11 -> 16         0.28004
      12 -> 17        -0.10011
      13 -> 19        -0.32782
      13 -> 20        -0.21577
      13 -> 21         0.23903

 Excited State  10:      Singlet-A      9.3396 eV  132.75 nm  f=0.0479  <S**2>=0.000
      11 -> 15         0.30665
      11 -> 16         0.22647
      12 -> 17         0.18380
      13 -> 19         0.17245
      13 -> 20         0.51290

 Excited State  11:      Singlet-A      9.5203 eV  130.23 nm  f=0.0257  <S**2>=0.000
      11 -> 15         0.24927
      11 -> 16         0.12010
      13 -> 19         0.45072
      13 -> 20        -0.32422
      13 -> 21        -0.29494

 Excited State  12:      Singlet-A      9.5961 eV  129.20 nm  f=0.0468  <S**2>=0.000
      11 -> 14         0.11741
      11 -> 16        -0.19231
      12 -> 14         0.54695
      12 -> 15        -0.13184
      12 -> 16         0.18516
      12 -> 18        -0.18988

 Excited State  13:      Singlet-A      9.7341 eV  127.37 nm  f=0.0098  <S**2>=0.000
      11 -> 14         0.15378
      11 -> 15         0.15537
      11 -> 16        -0.26753
      11 -> 17        -0.13806
      11 -> 18         0.31190
      12 -> 17         0.43480
      12 -> 19        -0.17422
      13 -> 20        -0.10216

 Excited State  14:      Singlet-A      9.8830 eV  125.45 nm  f=0.2334  <S**2>=0.000
      11 -> 14        -0.21964
      11 -> 15        -0.17089
      11 -> 16         0.26692
      11 -> 18        -0.16991
      11 -> 21        -0.11818
      12 -> 14         0.15732
      12 -> 16         0.11608
      12 -> 17         0.41862
      13 -> 20        -0.17860

 Excited State  15:      Singlet-A     10.2565 eV  120.88 nm  f=0.0014  <S**2>=0.000
      13 -> 18         0.15306
      13 -> 22         0.67310

 The electronic state is 1-A.
 Alpha  occ. eigenvalues --   -3.15645  -1.37812  -1.05573  -1.04115  -1.03205
 Alpha  occ. eigenvalues --   -0.93663  -0.82125  -0.62576  -0.62327  -0.57444
 Alpha  occ. eigenvalues --   -0.50838  -0.47448  -0.37103
 Alpha virt. eigenvalues --    0.09353   0.10404   0.10637   0.14148   0.16489
 Alpha virt. eigenvalues --    0.20624   0.21230   0.22654   0.26356   0.28500
 Alpha virt. eigenvalues --    0.36822

 Mulliken charges:
               1
     1  C   -0.267300
     2  C   -1.742794
     3  O    2.985219
     4  C   -1.815389
     5  C   -0.451802
     6  H    0.307036
     7  H    0.357917
     8  H    0.343502
     9  H    0.283611
 Sum of Mulliken charges =   0.00000

 Dipole moment (field-independent basis, Debye):
    X=              1.7054    Y=            -11.3369    Z=              0.5769  Tot=             11.4790
 N-N= 1.045483814122D+02 E-N=-1.691304239628D+02  KE=-2.367901467345D+01
 Orbital energies and kinetic energies (alpha):
                                 1                 2
   1         O                -3.156445         -2.390272
   2         O                -1.378118         -1.329496
   3         O                -1.055730         -1.058566
   4         O                -1.041153         -1.056816
   5         O                -1.032050         -1.037635
   6         O                -0.936627         -0.856695
   7         O                -0.821246         -0.809859

 Normal termination of Gaussian 09 at Fri Dec 11 13:41:21 2015.
