 Gaussian 09, Revision D.01,
 Gaussian 09:  ES64L-G09RevD.01 24-Apr-2013

 ------------------------------------------------------------
 #P AM1(Input,print) CIS(Singlets,NStates=15) pop(full) force
 ------------------------------------------------------------

 -----------------
 AM1-Reparam Input
 -----------------
 Symbolic Z-matrix:
 Charge =  0 Multiplicity = 1

                         Standard orientation:
 ---------------------------------------------------------------------
 Center     Atomic      Atomic             Coordinates (Angstroms)
 Number     Number       Type             X           Y           Z
 ---------------------------------------------------------------------
      1          6           0       -0.649419    0.961871   -0.002631
      2          6           0       -1.095568   -0.246318    0.001723
      3          8           0       -0.104229   -1.154401    0.000617
      4          6           0        1.085947   -0.418762   -0.000511
      5          6           0        0.768999    0.916622    0.000003
      6          1           0        1.440928    1.691179    0.031100
      7          1           0        2.021488   -0.928274   -0.019471
      8          1           0       -2.054341   -0.701881    0.012815
      9          1           0       -1.233998    1.893702   -0.020884
 ---------------------------------------------------------------------

 SCF Done:  E(RAM1) =   2.57722572221     A.U. after   14 cycles

 Excitation energies and oscillator strengths:

 Excited State   1:      Singlet-A      5.3302 eV  232.61 nm  f=0.3424  <S**2>=0.000
      13 -> 14         0.69548
 This state for optimization and/or second-order correction.
 Total Energy, E(CIS) =   2.77310837740
 Copying the excited state density for this state as the 1-particle RhoCI density.

 Excited State   2:      Singlet-A      6.1156 eV  202.74 nm  f=0.0008  <S**2>=0.000
      10 -> 15         0.10624
      13 -> 15         0.67600
      13 -> 18         0.10408

 Excited State   3:      Singlet-A      6.6404 eV  186.71 nm  f=0.0027  <S**2>=0.000
      10 -> 16        -0.10053
      13 -> 16         0.65468
      13 -> 17        -0.17508
      13 -> 19         0.13157

 Excited State   4:      Singlet-A      6.8501 eV  180.99 nm  f=0.0001  <S**2>=0.000
       9 -> 14        -0.10162
      12 -> 14         0.69637

 Excited State   5:      Singlet-A      7.8514 eV  157.91 nm  f=0.0004  <S**2>=0.000
      11 -> 14         0.22229
      13 -> 16         0.13128
      13 -> 17         0.29693
      13 -> 18         0.49938
      13 -> 21        -0.26404

 Excited State   6:      Singlet-A      7.8964 eV  157.01 nm  f=0.0069  <S**2>=0.000
      10 -> 14         0.21610
      11 -> 14         0.59718
      13 -> 18        -0.26354
      13 -> 21         0.10351

 Excited State   7:      Singlet-A      8.2016 eV  151.17 nm  f=0.0071  <S**2>=0.000
      11 -> 14        -0.17406
      13 -> 15         0.11510
      13 -> 17         0.58546
      13 -> 18        -0.25757
      13 -> 19         0.12264

 Excited State   8:      Singlet-A      8.8510 eV  140.08 nm  f=0.0609  <S**2>=0.000
      10 -> 14         0.60194
      11 -> 14        -0.21671
      12 -> 15         0.23945

 Excited State   9:      Singlet-A      8.9289 eV  138.86 nm  f=0.0020  <S**2>=0.000
      10 -> 16         0.11971
      13 -> 16        -0.12176
      13 -> 19         0.66193

 Excited State  10:      Singlet-A      9.1978 eV  134.80 nm  f=0.1241  <S**2>=0.000
       8 -> 15        -0.11833
      10 -> 14        -0.23129
      11 -> 17         0.11985
      12 -> 15         0.53482
      12 -> 16        -0.19381
      12 -> 18         0.21086

 Excited State  11:      Singlet-A      9.5153 eV  130.30 nm  f=0.0422  <S**2>=0.000
       9 -> 15         0.18135
      10 -> 15         0.10917
      11 -> 15         0.26417
      11 -> 16         0.10937
      11 -> 17        -0.20366
      11 -> 18         0.10872
      12 -> 15         0.31040
      12 -> 16         0.24093
      12 -> 17        -0.24311
      12 -> 18        -0.21838

 Excited State  12:      Singlet-A      9.5570 eV  129.73 nm  f=0.0102  <S**2>=0.000
      13 -> 18         0.29614
      13 -> 20        -0.28228
      13 -> 21         0.55557

 Excited State  13:      Singlet-A      9.9246 eV  124.93 nm  f=0.0865  <S**2>=0.000
      10 -> 15         0.30320
      11 -> 15        -0.12826
      13 -> 20         0.55853
      13 -> 21         0.22947

 Excited State  14:      Singlet-A     10.0150 eV  123.80 nm  f=0.0147  <S**2>=0.000
       7 -> 15        -0.13234
      10 -> 15         0.51321
      10 -> 16         0.11411
      11 -> 15        -0.21266
      11 -> 16        -0.10090
      13 -> 15        -0.12703
      13 -> 20        -0.27255
      13 -> 21        -0.19698

 Excited State  15:      Singlet-A     10.0937 eV  122.83 nm  f=0.1559  <S**2>=0.000
      10 -> 15        -0.10496
      11 -> 16        -0.33411
      11 -> 17         0.13511
      12 -> 16         0.50847
      12 -> 18         0.16904
      12 -> 19         0.13246

 The electronic state is 1-A.
 Alpha  occ. eigenvalues --   -1.74184  -1.17081  -0.96318  -0.81033  -0.76646
 Alpha  occ. eigenvalues --   -0.67765  -0.65000  -0.54797  -0.50136  -0.43810
 Alpha  occ. eigenvalues --   -0.43578  -0.40189  -0.28270
 Alpha virt. eigenvalues --    0.12039   0.16813   0.19774   0.25969   0.27912
 Alpha virt. eigenvalues --    0.29646   0.32075   0.33092   0.38756   0.48203
 Alpha virt. eigenvalues --    0.52384

 Mulliken charges:
               1
     1  C   -0.091667
     2  C   -1.888229
     3  O    3.225880
     4  C   -1.933567
     5  C   -0.056129
     6  H    0.115397
     7  H    0.259060
     8  H    0.249058
     9  H    0.120197
 Sum of Mulliken charges =   0.00000

 Dipole moment (field-independent basis, Debye):
    X=             -1.4533    Y=            -10.8111    Z=             -0.0073  Tot=             10.9083
 N-N= 1.041515769719D+02 E-N=-1.692868042669D+02  KE=-1.508576579266D+01
 Orbital energies and kinetic energies (alpha):
                                 1                 2
   1         O                -1.741840         -1.239125
   2         O                -1.170812         -1.021203
   3         O                -0.963175         -0.881643
   4         O                -0.810333         -0.612256
   5         O                -0.766459         -0.688439
   6         O                -0.677648         -0.570696
   7         O                -0.649998         -0.528082

 Normal termination of Gaussian 09 at Tue Dec 15 17:06:12 2015.
