 Gaussian 09, Revision D.01,
 Gaussian 09:  ES64L-G09RevD.01 24-Apr-2013

 -------------------------------------------------------
 #P B3LYP/3-21G CIS(Singlets,NStates=15) pop(full) force
 -------------------------------------------------------

 --------
 FuranDFT
 --------
 Symbolic Z-matrix:
 Charge =  0 Multiplicity = 1

                         Standard orientation:
 ---------------------------------------------------------------------
 Center     Atomic      Atomic             Coordinates (Angstroms)
 Number     Number       Type             X           Y           Z
 ---------------------------------------------------------------------
      1          6           0       -0.580822    0.998465   -0.038253
      2          6           0       -1.094022   -0.221458    0.050986
      3          8           0       -0.151048   -1.125212   -0.037750
      4          6           0        1.033067   -0.491337    0.032976
      5          6           0        0.801596    0.893040    0.012313
      6          1           0        1.655578    1.614624   -0.044816
      7          1           0        1.897739   -1.124745   -0.014281
      8          1           0       -2.165750   -0.502364   -0.007960
      9          1           0       -1.138090    1.941924    0.020924
 ---------------------------------------------------------------------

 SCF Done:  E(RB3LYP) =  -228.731717761     A.U. after   15 cycles

 Excitation energies and oscillator strengths:

 Excited State   1:      Singlet-A      7.2591 eV  170.80 nm  f=0.1509  <S**2>=0.000
      17 -> 19         0.32341
      18 -> 19         0.54385
      18 -> 20         0.27561
 This state for optimization and/or second-order correction.
 Total Energy, E(CIS) =  -228.464949659
 Copying the excited state density for this state as the 1-particle RhoCI density.

 Excited State   2:      Singlet-A      7.3789 eV  168.03 nm  f=0.0944  <S**2>=0.000
      17 -> 19        -0.39033
      18 -> 19         0.41279
      18 -> 20        -0.39953

 Excited State   3:      Singlet-A      8.4098 eV  147.43 nm  f=0.0038  <S**2>=0.000
      18 -> 21         0.68780

 Excited State   4:      Singlet-A      8.7685 eV  141.40 nm  f=0.0138  <S**2>=0.000
      16 -> 19         0.68804
      18 -> 20         0.11069

 Excited State   5:      Singlet-A      9.2062 eV  134.67 nm  f=0.0086  <S**2>=0.000
      18 -> 22         0.67759
      18 -> 23        -0.10386

 Excited State   6:      Singlet-A      9.6443 eV  128.56 nm  f=0.3308  <S**2>=0.000
      17 -> 19        -0.33922
      17 -> 20        -0.19958
      17 -> 21         0.13202
      18 -> 20         0.35179
      18 -> 21        -0.10584
      18 -> 22        -0.13980
      18 -> 23        -0.31280
      18 -> 24         0.13197

 Excited State   7:      Singlet-A      9.6741 eV  128.16 nm  f=0.0776  <S**2>=0.000
      17 -> 19         0.11334
      17 -> 20         0.39636
      17 -> 21         0.41071
      18 -> 20        -0.10497
      18 -> 23        -0.32592
      18 -> 24         0.13006

 Excited State   8:      Singlet-A      9.8536 eV  125.83 nm  f=0.0457  <S**2>=0.000
      15 -> 19        -0.20768
      17 -> 19        -0.12031
      17 -> 21         0.39371
      18 -> 20         0.12366
      18 -> 23         0.48650

 Excited State   9:      Singlet-A      9.9535 eV  124.56 nm  f=0.0914  <S**2>=0.000
      15 -> 19         0.57101
      16 -> 20        -0.16062
      17 -> 19        -0.15500
      17 -> 20         0.15350
      18 -> 20         0.16117
      18 -> 23         0.11991
      18 -> 24        -0.18220

 Excited State  10:      Singlet-A     10.0724 eV  123.09 nm  f=0.0572  <S**2>=0.000
      15 -> 19         0.27300
      17 -> 20        -0.27768
      17 -> 21         0.10478
      18 -> 20        -0.10806
      18 -> 23         0.12078
      18 -> 24         0.52957

 Excited State  11:      Singlet-A     10.1444 eV  122.22 nm  f=0.1363  <S**2>=0.000
      14 -> 19        -0.16028
      15 -> 19        -0.10297
      17 -> 19        -0.10656
      17 -> 20         0.36196
      17 -> 21        -0.34852
      17 -> 22         0.10463
      18 -> 20         0.12462
      18 -> 24         0.37499

 Excited State  12:      Singlet-A     10.3601 eV  119.67 nm  f=0.0160  <S**2>=0.000
      14 -> 19         0.66931
      17 -> 20         0.12657

 Excited State  13:      Singlet-A     10.6944 eV  115.93 nm  f=0.0242  <S**2>=0.000
      16 -> 20         0.20815
      17 -> 22         0.65150

 Excited State  14:      Singlet-A     10.7542 eV  115.29 nm  f=0.0133  <S**2>=0.000
      14 -> 19        -0.11048
      15 -> 19         0.14517
      16 -> 20         0.62716
      17 -> 22        -0.20999

 Excited State  15:      Singlet-A     11.1860 eV  110.84 nm  f=0.0035  <S**2>=0.000
      18 -> 25         0.68467

 The electronic state is 1-A.
 Alpha  occ. eigenvalues --  -19.12081 -10.17546 -10.17178 -10.12911 -10.11738
 Alpha  occ. eigenvalues --   -1.15766  -0.81307  -0.75630  -0.60709  -0.56765
 Alpha  occ. eigenvalues --   -0.54288  -0.46599  -0.44965  -0.41276  -0.40000
 Alpha  occ. eigenvalues --   -0.36033  -0.28299  -0.22871
 Alpha virt. eigenvalues --    0.02164   0.08509   0.12546   0.15311   0.17485
 Alpha virt. eigenvalues --    0.18194   0.23272   0.24827   0.34558   0.42600
 Alpha virt. eigenvalues --    0.49449   0.69080   0.69753   0.72085   0.75385

 Mulliken charges:
               1
     1  C   -0.267085
     2  C    0.137079
     3  O   -0.497219
     4  C    0.065597
     5  C   -0.238480
     6  H    0.186948
     7  H    0.215871
     8  H    0.212631
     9  H    0.184657
 Sum of Mulliken charges =   0.00000

 Dipole moment (field-independent basis, Debye):
    X=              0.1111    Y=              0.5551    Z=             -0.0333  Tot=              0.5671
 Quadrupole moment (field-independent basis, Debye-Ang):
   XX=            -23.7642   YY=            -28.2198   ZZ=            -31.7548
   XY=             -0.5769   XZ=             -0.1366   YZ=             -0.0249

 Normal termination of Gaussian 09 at Tue Dec 15 16:27:18 2015.
