 Gaussian 09, Revision D.01,
 Gaussian 09:  ES64L-G09RevD.01 24-Apr-2013

 ------------------------------------------------------------
 #P AM1(Input,print) CIS(Singlets,NStates=15) pop(full) force
 ------------------------------------------------------------

 -----------------
 AM1-Reparam Input
 -----------------
 Symbolic Z-matrix:
 Charge =  0 Multiplicity = 1

                         Standard orientation:
 ---------------------------------------------------------------------
 Center     Atomic      Atomic             Coordinates (Angstroms)
 Number     Number       Type             X           Y           Z
 ---------------------------------------------------------------------
      1          6           0        1.007904    0.735301   -0.010651
      2          6           0        0.916886   -0.666669   -0.015906
      3          8           0       -0.356045   -1.062698    0.009082
      4          6           0       -1.117933   -0.040962   -0.017816
      5          6           0       -0.431617    1.100602    0.019935
      6          1           0       -0.735326    2.120375   -0.047185
      7          1           0       -2.221389   -0.217233    0.035419
      8          1           0        1.722424   -1.466074    0.028507
      9          1           0        1.831221    1.294886    0.057225
 ---------------------------------------------------------------------

 SCF Done:  E(RAM1) =   2.04119952638     A.U. after   13 cycles

 Excitation energies and oscillator strengths:

 Excited State   1:      Singlet-A      5.2351 eV  236.83 nm  f=0.3682  <S**2>=0.000
      13 -> 14         0.69672
 This state for optimization and/or second-order correction.
 Total Energy, E(CIS) =   2.23358697966
 Copying the excited state density for this state as the 1-particle RhoCI density.

 Excited State   2:      Singlet-A      6.4737 eV  191.52 nm  f=0.0007  <S**2>=0.000
      12 -> 14         0.69734

 Excited State   3:      Singlet-A      6.5859 eV  188.26 nm  f=0.0061  <S**2>=0.000
      13 -> 15         0.64001
      13 -> 17         0.10548
      13 -> 18         0.24044

 Excited State   4:      Singlet-A      6.7554 eV  183.53 nm  f=0.0075  <S**2>=0.000
      13 -> 15         0.10777
      13 -> 16         0.60242
      13 -> 17         0.24010
      13 -> 18        -0.23001

 Excited State   5:      Singlet-A      7.7440 eV  160.10 nm  f=0.0002  <S**2>=0.000
      13 -> 15         0.11163
      13 -> 16        -0.25547
      13 -> 17         0.13959
      13 -> 18        -0.37661
      13 -> 19         0.47593
      13 -> 20         0.11520

 Excited State   6:      Singlet-A      7.9304 eV  156.34 nm  f=0.0074  <S**2>=0.000
      10 -> 14         0.69362

 Excited State   7:      Singlet-A      8.5334 eV  145.29 nm  f=0.0923  <S**2>=0.000
      11 -> 14         0.53489
      13 -> 15         0.12618
      13 -> 17        -0.36308
      13 -> 18        -0.19042

 Excited State   8:      Singlet-A      8.5391 eV  145.20 nm  f=0.0639  <S**2>=0.000
      11 -> 14         0.43543
      13 -> 15        -0.15280
      13 -> 17         0.43168
      13 -> 18         0.24439

 Excited State   9:      Singlet-A      8.8625 eV  139.90 nm  f=0.0048  <S**2>=0.000
      11 -> 16        -0.14016
      13 -> 16         0.18596
      13 -> 17        -0.26121
      13 -> 18         0.34529
      13 -> 19         0.49333

 Excited State  10:      Singlet-A      9.3982 eV  131.92 nm  f=0.1378  <S**2>=0.000
      10 -> 15         0.13373
      10 -> 17         0.13993
      12 -> 15         0.28017
      12 -> 16        -0.35009
      12 -> 17        -0.13884
      12 -> 18         0.35231
      12 -> 19        -0.22000

 Excited State  11:      Singlet-A      9.6520 eV  128.45 nm  f=0.0203  <S**2>=0.000
      13 -> 18         0.12652
      13 -> 20         0.67272

 Excited State  12:      Singlet-A      9.6941 eV  127.90 nm  f=0.0344  <S**2>=0.000
      10 -> 15        -0.17725
      10 -> 18        -0.10743
      12 -> 15         0.56230
      12 -> 16         0.17053
      12 -> 17         0.24358
      12 -> 19         0.10815

 Excited State  13:      Singlet-A     10.0787 eV  123.02 nm  f=0.0142  <S**2>=0.000
      11 -> 15         0.48969
      11 -> 16         0.23989
      11 -> 17         0.13492
      13 -> 21        -0.34911

 Excited State  14:      Singlet-A     10.1356 eV  122.33 nm  f=0.0300  <S**2>=0.000
      11 -> 15         0.27623
      11 -> 16         0.18375
      13 -> 21         0.59232

 Excited State  15:      Singlet-A     10.2777 eV  120.63 nm  f=0.0835  <S**2>=0.000
       8 -> 16        -0.17554
      12 -> 16         0.46346
      12 -> 18         0.13502
      12 -> 19        -0.40313

 The electronic state is 1-A.
 Alpha  occ. eigenvalues --   -1.96395  -1.19240  -0.96212  -0.83689  -0.77425
 Alpha  occ. eigenvalues --   -0.69188  -0.66537  -0.55458  -0.53537  -0.46377
 Alpha  occ. eigenvalues --   -0.44777  -0.41649  -0.30049
 Alpha virt. eigenvalues --    0.09294   0.16905   0.18633   0.24772   0.25481
 Alpha virt. eigenvalues --    0.27734   0.29922   0.31271   0.39517   0.47679
 Alpha virt. eigenvalues --    0.52963

 Mulliken charges:
               1
     1  C   -0.171569
     2  C   -2.037687
     3  O    3.178435
     4  C   -2.015933
     5  C   -0.237259
     6  H    0.259795
     7  H    0.395092
     8  H    0.382365
     9  H    0.246762
 Sum of Mulliken charges =   0.00000

 Dipole moment (field-independent basis, Debye):
    X=             -3.3509    Y=             -8.8824    Z=              0.5494  Tot=              9.5094
 N-N= 1.048414726379D+02 E-N=-1.704667412519D+02  KE=-1.552315283456D+01
 Orbital energies and kinetic energies (alpha):
                                 1                 2
   1         O                -1.963951         -1.437086
   2         O                -1.192397         -1.057162
   3         O                -0.962119         -0.853341
   4         O                -0.836893         -0.615119
   5         O                -0.774245         -0.671467
   6         O                -0.691884         -0.570085
   7         O                -0.665372         -0.523012

 Normal termination of Gaussian 09 at Tue Dec 15 17:07:21 2015.
