 Gaussian 09, Revision D.01,
 Gaussian 09:  ES64L-G09RevD.01 24-Apr-2013

 ------------------------------------------------------------
 #P AM1(Input,print) CIS(Singlets,NStates=15) pop(full) force
 ------------------------------------------------------------

 -----------------
 AM1-Reparam Input
 -----------------
 Symbolic Z-matrix:
 Charge =  0 Multiplicity = 1

                         Standard orientation:
 ---------------------------------------------------------------------
 Center     Atomic      Atomic             Coordinates (Angstroms)
 Number     Number       Type             X           Y           Z
 ---------------------------------------------------------------------
      1          6           0       -0.255349    1.154326   -0.018917
      2          6           0       -1.171603    0.043826    0.001751
      3          8           0       -0.444608   -1.028435    0.007647
      4          6           0        0.888982   -0.700744   -0.033743
      5          6           0        0.990899    0.587051    0.036535
      6          1           0        1.995673    1.179372   -0.013098
      7          1           0        1.550679   -1.601472    0.026153
      8          1           0       -2.157597    0.016672    0.021472
      9          1           0       -0.549466    2.126148   -0.009459
 ---------------------------------------------------------------------

 SCF Done:  E(RAM1) =   1.86428055425     A.U. after   14 cycles

 Excitation energies and oscillator strengths:

 Excited State   1:      Singlet-A      5.8777 eV  210.94 nm  f=0.3005  <S**2>=0.000
      13 -> 14         0.68425
 This state for optimization and/or second-order correction.
 Total Energy, E(CIS) =   2.08028075428
 Copying the excited state density for this state as the 1-particle RhoCI density.

 Excited State   2:      Singlet-A      6.6809 eV  185.58 nm  f=0.0062  <S**2>=0.000
      13 -> 15         0.47463
      13 -> 16         0.46875
      13 -> 17        -0.14787

 Excited State   3:      Singlet-A      6.8465 eV  181.09 nm  f=0.0020  <S**2>=0.000
      10 -> 15        -0.12181
      13 -> 15        -0.46823
      13 -> 16         0.47529
      13 -> 19         0.15881

 Excited State   4:      Singlet-A      6.8540 eV  180.89 nm  f=0.0004  <S**2>=0.000
      12 -> 14         0.69151

 Excited State   5:      Singlet-A      7.6796 eV  161.45 nm  f=0.0052  <S**2>=0.000
      11 -> 14         0.69501

 Excited State   6:      Singlet-A      8.3690 eV  148.15 nm  f=0.0001  <S**2>=0.000
      10 -> 16        -0.10246
      13 -> 17         0.51020
      13 -> 18         0.40330
      13 -> 21         0.22810

 Excited State   7:      Singlet-A      8.5438 eV  145.12 nm  f=0.0093  <S**2>=0.000
      10 -> 15        -0.10057
      13 -> 15        -0.11007
      13 -> 17        -0.40639
      13 -> 18         0.42174
      13 -> 19        -0.28969
      13 -> 21         0.18023

 Excited State   8:      Singlet-A      8.7400 eV  141.86 nm  f=0.0165  <S**2>=0.000
       8 -> 15        -0.12725
      10 -> 14         0.34258
      11 -> 15         0.20769
      11 -> 16         0.15964
      11 -> 17        -0.14696
      12 -> 15         0.25599
      12 -> 16        -0.25157
      12 -> 17         0.23998
      12 -> 18         0.17331

 Excited State   9:      Singlet-A      9.1725 eV  135.17 nm  f=0.1459  <S**2>=0.000
       9 -> 15        -0.12165
      11 -> 15        -0.18380
      11 -> 18        -0.11076
      12 -> 15         0.58656
      12 -> 16         0.14836
      12 -> 17        -0.13995

 Excited State  10:      Singlet-A      9.2518 eV  134.01 nm  f=0.0086  <S**2>=0.000
      10 -> 16         0.18483
      13 -> 16        -0.12573
      13 -> 18         0.28125
      13 -> 19         0.54558
      13 -> 20        -0.13191

 Excited State  11:      Singlet-A      9.3816 eV  132.16 nm  f=0.1307  <S**2>=0.000
      10 -> 14         0.49574
      11 -> 16         0.16900
      11 -> 19         0.10537
      12 -> 15        -0.16745
      12 -> 16         0.35361
      12 -> 19         0.11203

 Excited State  12:      Singlet-A      9.4474 eV  131.24 nm  f=0.0886  <S**2>=0.000
       9 -> 16        -0.14044
      10 -> 14        -0.27027
      11 -> 16         0.50151
      11 -> 17        -0.10075
      11 -> 18         0.14439
      11 -> 19         0.10941
      12 -> 16         0.21823
      12 -> 17        -0.10214
      12 -> 18         0.12889

 Excited State  13:      Singlet-A      9.8423 eV  125.97 nm  f=0.0753  <S**2>=0.000
       8 -> 16         0.12017
       9 -> 16         0.17038
      10 -> 14        -0.18377
      11 -> 15         0.11770
      11 -> 16        -0.11378
      11 -> 17        -0.11025
      11 -> 18        -0.15823
      11 -> 19        -0.11471
      12 -> 16         0.30537
      12 -> 17         0.32557
      12 -> 18         0.24842
      12 -> 19         0.18995

 Excited State  14:      Singlet-A      9.9045 eV  125.18 nm  f=0.0065  <S**2>=0.000
      10 -> 15        -0.11694
      10 -> 16        -0.22349
      13 -> 17        -0.13306
      13 -> 18        -0.20033
      13 -> 19         0.18321
      13 -> 20        -0.17984
      13 -> 21         0.52946

 Excited State  15:      Singlet-A     10.1113 eV  122.62 nm  f=0.0855  <S**2>=0.000
       8 -> 15        -0.16322
      10 -> 16         0.19096
      11 -> 15         0.33929
      11 -> 20         0.13001
      12 -> 17        -0.13395
      12 -> 18        -0.23644
      13 -> 20         0.37119
      13 -> 21         0.18613

 The electronic state is 1-A.
 Alpha  occ. eigenvalues --   -1.96543  -1.23493  -0.99747  -0.82313  -0.80883
 Alpha  occ. eigenvalues --   -0.70710  -0.67148  -0.54051  -0.49925  -0.43340
 Alpha  occ. eigenvalues --   -0.41316  -0.38536  -0.29580
 Alpha virt. eigenvalues --    0.13739   0.18230   0.19601   0.24930   0.27793
 Alpha virt. eigenvalues --    0.29237   0.32294   0.34507   0.37829   0.46016
 Alpha virt. eigenvalues --    0.51615

 Mulliken charges:
               1
     1  C   -0.172329
     2  C   -2.004277
     3  O    3.149676
     4  C   -1.908260
     5  C   -0.003717
     6  H    0.148436
     7  H    0.295338
     8  H    0.325891
     9  H    0.169242
 Sum of Mulliken charges =   0.00000

 Dipole moment (field-independent basis, Debye):
    X=             -3.1911    Y=             -8.9432    Z=              0.4808  Tot=              9.5076
 N-N= 1.049923300528D+02 E-N=-1.709587388687D+02  KE=-1.574566221086D+01
 Orbital energies and kinetic energies (alpha):
                                 1                 2
   1         O                -1.965431         -1.451612
   2         O                -1.234929         -1.087027
   3         O                -0.997471         -0.909078
   4         O                -0.823130         -0.642702
   5         O                -0.808828         -0.682234
   6         O                -0.707098         -0.582347
   7         O                -0.671478         -0.581990

 Normal termination of Gaussian 09 at Tue Dec 15 17:10:00 2015.
