 Gaussian 09, Revision D.01,
 Gaussian 09:  ES64L-G09RevD.01 24-Apr-2013

 ------------------------------------------------------------
 #P AM1(Input,print) CIS(Singlets,NStates=15) pop(full) force
 ------------------------------------------------------------

 -----------------
 AM1-Reparam Input
 -----------------
 Symbolic Z-matrix:
 Charge =  0 Multiplicity = 1

                         Standard orientation:
 ---------------------------------------------------------------------
 Center     Atomic      Atomic             Coordinates (Angstroms)
 Number     Number       Type             X           Y           Z
 ---------------------------------------------------------------------
      1          6           0        1.010083    0.697276   -0.032860
      2          6           0        0.930391   -0.687172    0.030939
      3          8           0       -0.399434   -1.105088   -0.013396
      4          6           0       -1.135891   -0.028866    0.008723
      5          6           0       -0.380748    1.193153    0.008364
      6          1           0       -0.733018    2.149220   -0.013539
      7          1           0       -2.233786   -0.150229    0.002140
      8          1           0        1.729140   -1.456914   -0.030691
      9          1           0        1.890128    1.252281    0.058256
 ---------------------------------------------------------------------

 SCF Done:  E(RAM1) =   1.69802023592     A.U. after   14 cycles

 Excitation energies and oscillator strengths:

 Excited State   1:      Singlet-A      5.4159 eV  228.93 nm  f=0.3868  <S**2>=0.000
      13 -> 14         0.69591
 This state for optimization and/or second-order correction.
 Total Energy, E(CIS) =   1.89705094092
 Copying the excited state density for this state as the 1-particle RhoCI density.

 Excited State   2:      Singlet-A      6.9789 eV  177.66 nm  f=0.0037  <S**2>=0.000
      12 -> 14        -0.13437
      13 -> 15         0.65449
      13 -> 17         0.18933

 Excited State   3:      Singlet-A      7.0460 eV  175.96 nm  f=0.0006  <S**2>=0.000
      12 -> 14         0.68840
      13 -> 15         0.12825

 Excited State   4:      Singlet-A      7.5153 eV  164.98 nm  f=0.0025  <S**2>=0.000
      13 -> 16         0.66095
      13 -> 18         0.20112

 Excited State   5:      Singlet-A      8.0555 eV  153.91 nm  f=0.0061  <S**2>=0.000
      10 -> 14        -0.34698
      11 -> 14         0.60972

 Excited State   6:      Singlet-A      8.8338 eV  140.35 nm  f=0.0009  <S**2>=0.000
      13 -> 15        -0.13890
      13 -> 16         0.10870
      13 -> 17         0.43858
      13 -> 18        -0.42077
      13 -> 19        -0.13689
      13 -> 21        -0.24403

 Excited State   7:      Singlet-A      9.0925 eV  136.36 nm  f=0.1201  <S**2>=0.000
      10 -> 14         0.59596
      11 -> 14         0.33928

 Excited State   8:      Singlet-A      9.3312 eV  132.87 nm  f=0.0201  <S**2>=0.000
      13 -> 16        -0.10325
      13 -> 17         0.49345
      13 -> 18         0.41468
      13 -> 19         0.13976
      13 -> 21         0.11480

 Excited State   9:      Singlet-A      9.8933 eV  125.32 nm  f=0.0000  <S**2>=0.000
      13 -> 18        -0.21265
      13 -> 19         0.64396
      13 -> 21         0.10110

 Excited State  10:      Singlet-A     10.0188 eV  123.75 nm  f=0.0532  <S**2>=0.000
       9 -> 15         0.14560
      11 -> 16        -0.15315
      11 -> 17        -0.11284
      11 -> 18        -0.12660
      12 -> 15         0.44754
      12 -> 16        -0.20213
      12 -> 17         0.20618
      12 -> 18        -0.20163

 Excited State  11:      Singlet-A     10.5758 eV  117.23 nm  f=0.0389  <S**2>=0.000
      11 -> 15         0.37599
      11 -> 17         0.16005
      12 -> 15         0.41682
      12 -> 16         0.26698
      12 -> 18         0.12210
      12 -> 19         0.11158

 Excited State  12:      Singlet-A     10.6522 eV  116.39 nm  f=0.0128  <S**2>=0.000
       9 -> 14        -0.11553
      13 -> 17         0.10555
      13 -> 18        -0.18903
      13 -> 19        -0.11909
      13 -> 20         0.33878
      13 -> 21         0.52554

 Excited State  13:      Singlet-A     10.7179 eV  115.68 nm  f=0.0396  <S**2>=0.000
       7 -> 15        -0.11847
      10 -> 15         0.41682
      11 -> 15         0.35171
      11 -> 16         0.10032
      12 -> 16        -0.27320
      13 -> 15        -0.10598
      13 -> 20        -0.22913

 Excited State  14:      Singlet-A     10.7631 eV  115.19 nm  f=0.1935  <S**2>=0.000
      10 -> 15         0.32178
      11 -> 16        -0.17445
      12 -> 16         0.47643
      12 -> 19        -0.11310
      13 -> 20        -0.18539
      13 -> 21         0.10516

 Excited State  15:      Singlet-A     10.8759 eV  114.00 nm  f=0.0372  <S**2>=0.000
       9 -> 14        -0.29961
      10 -> 15         0.24995
      13 -> 19         0.10896
      13 -> 20         0.41257
      13 -> 21        -0.32817

 The electronic state is 1-A.
 Alpha  occ. eigenvalues --   -1.90093  -1.14807  -0.90341  -0.82057  -0.76901
 Alpha  occ. eigenvalues --   -0.70085  -0.66476  -0.56460  -0.54591  -0.46638
 Alpha  occ. eigenvalues --   -0.46162  -0.42857  -0.30814
 Alpha virt. eigenvalues --    0.09594   0.17299   0.19656   0.26759   0.28528
 Alpha virt. eigenvalues --    0.30253   0.32822   0.34394   0.35251   0.43732
 Alpha virt. eigenvalues --    0.47665

 Mulliken charges:
               1
     1  C   -0.091857
     2  C   -2.023105
     3  O    3.292776
     4  C   -2.059141
     5  C   -0.208205
     6  H    0.206852
     7  H    0.348390
     8  H    0.334312
     9  H    0.199979
 Sum of Mulliken charges =   0.00000

 Dipole moment (field-independent basis, Debye):
    X=             -3.6840    Y=             -9.9200    Z=             -0.5694  Tot=             10.5973
 N-N= 1.031142824170D+02 E-N=-1.680461595928D+02  KE=-1.542072490185D+01
 Orbital energies and kinetic energies (alpha):
                                 1                 2
   1         O                -1.900931         -1.364380
   2         O                -1.148068         -1.039907
   3         O                -0.903407         -0.873101
   4         O                -0.820568         -0.570816
   5         O                -0.769013         -0.682377
   6         O                -0.700853         -0.594256
   7         O                -0.664764         -0.521835

 Normal termination of Gaussian 09 at Tue Dec 15 17:09:35 2015.
