 Gaussian 09, Revision D.01,
 Gaussian 09:  ES64L-G09RevD.01 24-Apr-2013

 ------------------------------------------------------------
 #P AM1(Input,print) CIS(Singlets,NStates=15) pop(full) force
 ------------------------------------------------------------

 -----------------
 AM1-Reparam Input
 -----------------
 Symbolic Z-matrix:
 Charge =  0 Multiplicity = 1

                         Standard orientation:
 ---------------------------------------------------------------------
 Center     Atomic      Atomic             Coordinates (Angstroms)
 Number     Number       Type             X           Y           Z
 ---------------------------------------------------------------------
      1          6           0        1.167013   -0.258812   -0.004737
      2          6           0        0.108758   -1.117973   -0.004070
      3          8           0       -1.113809   -0.441459    0.003735
      4          6           0       -0.706110    0.856629    0.002176
      5          6           0        0.623408    0.998950   -0.000937
      6          1           0        1.147896    1.909734    0.006692
      7          1           0       -1.591595    1.537298   -0.015170
      8          1           0       -0.026602   -2.201753    0.001494
      9          1           0        2.222362   -0.586368    0.022516
 ---------------------------------------------------------------------

 SCF Done:  E(RAM1) =   1.82286741838     A.U. after   14 cycles

 Excitation energies and oscillator strengths:

 Excited State   1:      Singlet-A      5.7441 eV  215.85 nm  f=0.3172  <S**2>=0.000
      11 -> 17        -0.10898
      13 -> 14         0.68683
 This state for optimization and/or second-order correction.
 Total Energy, E(CIS) =   2.03396024143
 Copying the excited state density for this state as the 1-particle RhoCI density.

 Excited State   2:      Singlet-A      6.6265 eV  187.10 nm  f=0.0016  <S**2>=0.000
      10 -> 15         0.12021
      13 -> 15         0.67423
      13 -> 17        -0.11733

 Excited State   3:      Singlet-A      6.9433 eV  178.57 nm  f=0.0021  <S**2>=0.000
      10 -> 16        -0.11917
      13 -> 16         0.66853
      13 -> 17        -0.11084

 Excited State   4:      Singlet-A      7.8841 eV  157.26 nm  f=0.0001  <S**2>=0.000
      12 -> 14         0.69760

 Excited State   5:      Singlet-A      8.2746 eV  149.84 nm  f=0.0073  <S**2>=0.000
      10 -> 14         0.13221
      11 -> 14         0.68193

 Excited State   6:      Singlet-A      8.5566 eV  144.90 nm  f=0.0001  <S**2>=0.000
      13 -> 17         0.10596
      13 -> 18         0.63610
      13 -> 22        -0.24010

 Excited State   7:      Singlet-A      8.8789 eV  139.64 nm  f=0.0164  <S**2>=0.000
      10 -> 15         0.12590
      10 -> 16        -0.12338
      13 -> 17         0.65204
      13 -> 18        -0.10078

 Excited State   8:      Singlet-A      9.2002 eV  134.76 nm  f=0.0677  <S**2>=0.000
      10 -> 14         0.66030
      11 -> 14        -0.12678

 Excited State   9:      Singlet-A      9.5918 eV  129.26 nm  f=0.0001  <S**2>=0.000
      10 -> 16        -0.12462
      13 -> 19         0.67422

 Excited State  10:      Singlet-A      9.7372 eV  127.33 nm  f=0.0048  <S**2>=0.000
       9 -> 15        -0.15700
       9 -> 16        -0.11487
      11 -> 15         0.15859
      11 -> 16         0.20647
      11 -> 17        -0.26048
      12 -> 15         0.32054
      12 -> 16        -0.23811
      12 -> 18        -0.30667
      13 -> 14        -0.11402

 Excited State  11:      Singlet-A     10.0554 eV  123.30 nm  f=0.2191  <S**2>=0.000
      11 -> 15        -0.37940
      11 -> 16        -0.13025
      11 -> 17         0.15339
      12 -> 15         0.50234

 Excited State  12:      Singlet-A     10.1657 eV  121.96 nm  f=0.0073  <S**2>=0.000
       7 -> 15        -0.11171
      10 -> 15         0.62311
      10 -> 16         0.13519
      13 -> 15        -0.15346
      13 -> 19         0.10008

 Excited State  13:      Singlet-A     10.3938 eV  119.29 nm  f=0.1306  <S**2>=0.000
      11 -> 15        -0.12897
      11 -> 16         0.43362
      11 -> 19        -0.13414
      12 -> 16         0.45785
      12 -> 17        -0.13376

 Excited State  14:      Singlet-A     10.5131 eV  117.93 nm  f=0.0205  <S**2>=0.000
      10 -> 15        -0.13142
      10 -> 16         0.60715
      12 -> 16         0.11776
      13 -> 16         0.14477
      13 -> 17         0.11824
      13 -> 20        -0.16067

 Excited State  15:      Singlet-A     10.6693 eV  116.21 nm  f=0.0202  <S**2>=0.000
      13 -> 18         0.22827
      13 -> 20        -0.36758
      13 -> 22         0.53440

 The electronic state is 1-A.
 Alpha  occ. eigenvalues --   -1.98695  -1.29150  -0.98738  -0.89159  -0.85440
 Alpha  occ. eigenvalues --   -0.75720  -0.74206  -0.62129  -0.60605  -0.50701
 Alpha  occ. eigenvalues --   -0.50210  -0.49260  -0.36440
 Alpha virt. eigenvalues --    0.06618   0.10572   0.12403   0.20164   0.21819
 Alpha virt. eigenvalues --    0.23881   0.26924   0.28262   0.29265   0.37267
 Alpha virt. eigenvalues --    0.40788

 Mulliken charges:
               1
     1  C   -0.099304
     2  C   -1.873513
     3  O    3.152584
     4  C   -1.866724
     5  C   -0.135842
     6  H    0.143314
     7  H    0.270316
     8  H    0.262450
     9  H    0.146719
 Sum of Mulliken charges =   0.00000

 Dipole moment (field-independent basis, Debye):
    X=            -10.8866    Y=             -4.1486    Z=              0.0643  Tot=             11.6504
 N-N= 1.057102699424D+02 E-N=-1.708933003150D+02  KE=-1.567243408306D+01
 Orbital energies and kinetic energies (alpha):
                                 1                 2
   1         O                -1.986950         -1.363289
   2         O                -1.291499         -1.081911
   3         O                -0.987379         -0.882977
   4         O                -0.891591         -0.591930
   5         O                -0.854400         -0.679961
   6         O                -0.757204         -0.620599
   7         O                -0.742065         -0.552868

 Normal termination of Gaussian 09 at Tue Dec 15 17:08:53 2015.
