 Gaussian 09, Revision D.01,
 Gaussian 09:  ES64L-G09RevD.01 24-Apr-2013

 ------------------------------------------------------------
 #P AM1(Input,print) CIS(Singlets,NStates=15) pop(full) force
 ------------------------------------------------------------

 -----------------
 AM1-Reparam Input
 -----------------
 Symbolic Z-matrix:
 Charge =  0 Multiplicity = 1

                         Standard orientation:
 ---------------------------------------------------------------------
 Center     Atomic      Atomic             Coordinates (Angstroms)
 Number     Number       Type             X           Y           Z
 ---------------------------------------------------------------------
      1          6           0        0.569653    1.043992    0.004934
      2          6           0        1.183941   -0.220889   -0.006324
      3          8           0        0.135734   -1.131821   -0.002770
      4          6           0       -1.038320   -0.454336    0.013365
      5          6           0       -0.867145    0.820923   -0.009065
      6          1           0       -1.586914    1.554453   -0.018553
      7          1           0       -1.864804   -1.070508   -0.002558
      8          1           0        2.119918   -0.536569    0.003201
      9          1           0        1.157157    1.969053    0.022617
 ---------------------------------------------------------------------

 SCF Done:  E(RAM1) =   1.87284073826     A.U. after   14 cycles

 Excitation energies and oscillator strengths:

 Excited State   1:      Singlet-A      5.4984 eV  225.49 nm  f=0.3305  <S**2>=0.000
      13 -> 14         0.69115
 This state for optimization and/or second-order correction.
 Total Energy, E(CIS) =   2.07490327409
 Copying the excited state density for this state as the 1-particle RhoCI density.

 Excited State   2:      Singlet-A      6.3419 eV  195.50 nm  f=0.0019  <S**2>=0.000
      10 -> 15         0.11280
      13 -> 15         0.67351
      13 -> 17        -0.12376

 Excited State   3:      Singlet-A      6.6609 eV  186.14 nm  f=0.0001  <S**2>=0.000
      12 -> 14         0.69919

 Excited State   4:      Singlet-A      6.8652 eV  180.60 nm  f=0.0051  <S**2>=0.000
      13 -> 16         0.65760
      13 -> 17        -0.12581
      13 -> 18        -0.12303
      13 -> 19        -0.13020

 Excited State   5:      Singlet-A      7.6840 eV  161.35 nm  f=0.0050  <S**2>=0.000
      11 -> 14         0.69659

 Excited State   6:      Singlet-A      8.0128 eV  154.73 nm  f=0.0030  <S**2>=0.000
      13 -> 17        -0.31688
      13 -> 18         0.52694
      13 -> 20        -0.13948
      13 -> 21         0.26383

 Excited State   7:      Singlet-A      8.4213 eV  147.23 nm  f=0.0059  <S**2>=0.000
      10 -> 16        -0.12658
      13 -> 16         0.12279
      13 -> 17         0.56868
      13 -> 18         0.29412
      13 -> 19        -0.14047
      13 -> 20        -0.10204
      13 -> 21         0.10422

 Excited State   8:      Singlet-A      8.8678 eV  139.81 nm  f=0.0342  <S**2>=0.000
       8 -> 15         0.12968
      10 -> 14         0.44869
      11 -> 16         0.11663
      11 -> 17        -0.11076
      11 -> 18        -0.10500
      12 -> 15        -0.40689
      12 -> 18        -0.16966

 Excited State   9:      Singlet-A      9.0185 eV  137.48 nm  f=0.0013  <S**2>=0.000
      10 -> 16        -0.10792
      13 -> 16         0.11496
      13 -> 17         0.15038
      13 -> 18        -0.10390
      13 -> 19         0.64549

 Excited State  10:      Singlet-A      9.1519 eV  135.47 nm  f=0.0671  <S**2>=0.000
      10 -> 14         0.47354
      11 -> 16        -0.14692
      11 -> 17         0.16389
      12 -> 15         0.23205
      12 -> 16        -0.18336
      12 -> 17        -0.14057
      12 -> 18         0.24246

 Excited State  11:      Singlet-A      9.4334 eV  131.43 nm  f=0.1278  <S**2>=0.000
       9 -> 15         0.12251
      10 -> 14         0.15695
      11 -> 15         0.34164
      11 -> 16         0.14049
      11 -> 17        -0.18879
      12 -> 15         0.43659
      12 -> 16         0.10835
      12 -> 18        -0.22302

 Excited State  12:      Singlet-A      9.5815 eV  129.40 nm  f=0.0149  <S**2>=0.000
      13 -> 18         0.30542
      13 -> 19         0.11454
      13 -> 20         0.44471
      13 -> 21        -0.42063

 Excited State  13:      Singlet-A      9.7536 eV  127.12 nm  f=0.1360  <S**2>=0.000
       9 -> 16         0.10658
      11 -> 16        -0.34332
      11 -> 19         0.13428
      12 -> 16         0.51536
      12 -> 17        -0.21441
      12 -> 19        -0.10188

 Excited State  14:      Singlet-A      9.9141 eV  125.06 nm  f=0.0751  <S**2>=0.000
      10 -> 16        -0.12273
      13 -> 20         0.49629
      13 -> 21         0.46281

 Excited State  15:      Singlet-A     10.0495 eV  123.37 nm  f=0.0359  <S**2>=0.000
       8 -> 15         0.14057
       9 -> 15         0.25578
      10 -> 14        -0.15134
      11 -> 15         0.38323
      11 -> 19         0.18199
      12 -> 15        -0.12922
      12 -> 16        -0.22217
      12 -> 17        -0.17977
      12 -> 18         0.21353

 The electronic state is 1-A.
 Alpha  occ. eigenvalues --   -1.94764  -1.21691  -1.00348  -0.82576  -0.80700
 Alpha  occ. eigenvalues --   -0.69222  -0.67801  -0.53617  -0.49808  -0.43158
 Alpha  occ. eigenvalues --   -0.41557  -0.38308  -0.27652
 Alpha virt. eigenvalues --    0.13122   0.18618   0.21793   0.26905   0.28577
 Alpha virt. eigenvalues --    0.30407   0.32105   0.34211   0.35102   0.43824
 Alpha virt. eigenvalues --    0.48817

 Mulliken charges:
               1
     1  C   -0.129645
     2  C   -1.944218
     3  O    3.140331
     4  C   -1.899795
     5  C   -0.092566
     6  H    0.157580
     7  H    0.300745
     8  H    0.306082
     9  H    0.161485
 Sum of Mulliken charges =   0.00000

 Dipole moment (field-independent basis, Debye):
    X=              0.4662    Y=            -10.2287    Z=             -0.0876  Tot=             10.2397
 N-N= 1.044151669290D+02 E-N=-1.699596864770D+02  KE=-1.570094285606D+01
 Orbital energies and kinetic energies (alpha):
                                 1                 2
   1         O                -1.947638         -1.412626
   2         O                -1.216910         -1.075332
   3         O                -1.003477         -0.921686
   4         O                -0.825761         -0.655065
   5         O                -0.807000         -0.681477
   6         O                -0.692224         -0.569898
   7         O                -0.678013         -0.577976

 Normal termination of Gaussian 09 at Tue Dec 15 17:09:59 2015.
