 Gaussian 09, Revision D.01,
 Gaussian 09:  ES64L-G09RevD.01 24-Apr-2013

 ------------------------------------------------------------
 #P AM1(Input,print) CIS(Singlets,NStates=15) pop(full) force
 ------------------------------------------------------------

 -----------------
 AM1-Reparam Input
 -----------------
 Symbolic Z-matrix:
 Charge =  0 Multiplicity = 1

                         Standard orientation:
 ---------------------------------------------------------------------
 Center     Atomic      Atomic             Coordinates (Angstroms)
 Number     Number       Type             X           Y           Z
 ---------------------------------------------------------------------
      1          6           0        0.788970    0.885096   -0.003663
      2          6           0        1.102359   -0.368707    0.027840
      3          8           0       -0.079589   -1.151040   -0.021614
      4          6           0       -1.150744   -0.252078    0.029135
      5          6           0       -0.671583    0.959252   -0.022512
      6          1           0       -1.227418    1.853659    0.035861
      7          1           0       -2.037413   -0.689635   -0.014642
      8          1           0        2.007510   -1.003691   -0.013128
      9          1           0        1.480020    1.706611   -0.019980
 ---------------------------------------------------------------------

 SCF Done:  E(RAM1) =   1.87856895848     A.U. after   14 cycles

 Excitation energies and oscillator strengths:

 Excited State   1:      Singlet-A      5.1183 eV  242.24 nm  f=0.3552  <S**2>=0.000
      13 -> 14         0.69397
 This state for optimization and/or second-order correction.
 Total Energy, E(CIS) =   2.06666408020
 Copying the excited state density for this state as the 1-particle RhoCI density.

 Excited State   2:      Singlet-A      6.2824 eV  197.35 nm  f=0.0007  <S**2>=0.000
      13 -> 15         0.66453
      13 -> 16        -0.10106
      13 -> 17        -0.15643
      13 -> 19        -0.10844

 Excited State   3:      Singlet-A      6.4719 eV  191.57 nm  f=0.0050  <S**2>=0.000
      13 -> 15         0.10872
      13 -> 16         0.67143
      13 -> 18        -0.13171

 Excited State   4:      Singlet-A      7.2612 eV  170.75 nm  f=0.0001  <S**2>=0.000
      12 -> 14         0.70101

 Excited State   5:      Singlet-A      7.6537 eV  161.99 nm  f=0.0004  <S**2>=0.000
      13 -> 15         0.12033
      13 -> 17         0.51037
      13 -> 18        -0.42083
      13 -> 22         0.18087

 Excited State   6:      Singlet-A      8.1930 eV  151.33 nm  f=0.0079  <S**2>=0.000
      11 -> 14         0.68801
      13 -> 18         0.11255

 Excited State   7:      Singlet-A      8.6090 eV  144.02 nm  f=0.0086  <S**2>=0.000
      11 -> 14        -0.14508
      13 -> 17         0.42449
      13 -> 18         0.51238

 Excited State   8:      Singlet-A      9.2016 eV  134.74 nm  f=0.0519  <S**2>=0.000
      10 -> 14         0.63137
      12 -> 15         0.14071
      13 -> 20         0.17872

 Excited State   9:      Singlet-A      9.2384 eV  134.21 nm  f=0.0006  <S**2>=0.000
      13 -> 19         0.67719

 Excited State  10:      Singlet-A      9.5577 eV  129.72 nm  f=0.0179  <S**2>=0.000
      10 -> 14        -0.10594
      11 -> 16        -0.12695
      11 -> 17         0.15353
      11 -> 18         0.14475
      12 -> 15         0.39205
      12 -> 16        -0.23911
      12 -> 17        -0.29985
      12 -> 18         0.24636

 Excited State  11:      Singlet-A     10.0945 eV  122.82 nm  f=0.2275  <S**2>=0.000
      11 -> 15         0.31952
      11 -> 16         0.19655
      11 -> 17        -0.14815
      11 -> 18        -0.10271
      12 -> 15         0.44491
      12 -> 17         0.15635
      12 -> 18        -0.19515
      13 -> 20        -0.10234

 Excited State  12:      Singlet-A     10.1893 eV  121.68 nm  f=0.0668  <S**2>=0.000
      12 -> 16         0.18641
      13 -> 20         0.36842
      13 -> 21         0.43538
      13 -> 22        -0.28699

 Excited State  13:      Singlet-A     10.2087 eV  121.45 nm  f=0.0405  <S**2>=0.000
      11 -> 15         0.13668
      11 -> 16        -0.23262
      12 -> 15         0.13055
      12 -> 16         0.48693
      12 -> 17        -0.10583
      13 -> 22         0.33431

 Excited State  14:      Singlet-A     10.2280 eV  121.22 nm  f=0.0553  <S**2>=0.000
      11 -> 16         0.15724
      12 -> 16        -0.21629
      13 -> 18         0.10676
      13 -> 20         0.28295
      13 -> 21         0.22562
      13 -> 22         0.49823

 Excited State  15:      Singlet-A     10.3762 eV  119.49 nm  f=0.0775  <S**2>=0.000
      10 -> 14        -0.15530
      13 -> 20         0.47159
      13 -> 21        -0.46930

 The electronic state is 1-A.
 Alpha  occ. eigenvalues --   -1.98956  -1.27821  -1.02909  -0.89788  -0.85916
 Alpha  occ. eigenvalues --   -0.77296  -0.74252  -0.64116  -0.62082  -0.52935
 Alpha  occ. eigenvalues --   -0.51343  -0.48430  -0.34614
 Alpha virt. eigenvalues --    0.04694   0.11301   0.12844   0.20438   0.20787
 Alpha virt. eigenvalues --    0.23799   0.25726   0.26767   0.28047   0.34426
 Alpha virt. eigenvalues --    0.38875

 Mulliken charges:
               1
     1  C   -0.139445
     2  C   -1.839988
     3  O    3.176862
     4  C   -1.835734
     5  C   -0.189745
     6  H    0.156214
     7  H    0.251685
     8  H    0.267706
     9  H    0.152446
 Sum of Mulliken charges =   0.00000

 Dipole moment (field-independent basis, Debye):
    X=             -0.4076    Y=            -11.5708    Z=             -0.7687  Tot=             11.6035
 N-N= 1.057188629616D+02 E-N=-1.705896359035D+02  KE=-1.568182647359D+01
 Orbital energies and kinetic energies (alpha):
                                 1                 2
   1         O                -1.989561         -1.349062
   2         O                -1.278209         -1.049595
   3         O                -1.029088         -0.908290
   4         O                -0.897878         -0.597627
   5         O                -0.859156         -0.705916
   6         O                -0.772958         -0.595906
   7         O                -0.742518         -0.549034

 Normal termination of Gaussian 09 at Tue Dec 15 17:08:58 2015.
