 Gaussian 09, Revision D.01,
 Gaussian 09:  ES64L-G09RevD.01 24-Apr-2013

 -------------------------------------------------------
 #P B3LYP/3-21G CIS(Singlets,NStates=15) pop(full) force
 -------------------------------------------------------

 --------
 FuranDFT
 --------
 Symbolic Z-matrix:
 Charge =  0 Multiplicity = 1

                         Standard orientation:
 ---------------------------------------------------------------------
 Center     Atomic      Atomic             Coordinates (Angstroms)
 Number     Number       Type             X           Y           Z
 ---------------------------------------------------------------------
      1          6           0        0.476524    1.086467    0.033147
      2          6           0        1.157561   -0.080477   -0.016795
      3          8           0        0.259620   -1.161541   -0.013717
      4          6           0       -0.983331   -0.547575    0.051192
      5          6           0       -0.933816    0.784504   -0.032855
      6          1           0       -1.724804    1.440999   -0.075685
      7          1           0       -1.811747   -1.292232   -0.027602
      8          1           0        2.184792   -0.385207   -0.014027
      9          1           0        0.973178    2.071253    0.018917
 ---------------------------------------------------------------------

 SCF Done:  E(RB3LYP) =  -228.744544318     A.U. after   15 cycles

 Excitation energies and oscillator strengths:

 Excited State   1:      Singlet-A      7.1681 eV  172.97 nm  f=0.1665  <S**2>=0.000
      17 -> 19        -0.20431
      18 -> 19         0.62172
      18 -> 20        -0.20845
 This state for optimization and/or second-order correction.
 Total Energy, E(CIS) =  -228.481122687
 Copying the excited state density for this state as the 1-particle RhoCI density.

 Excited State   2:      Singlet-A      7.2444 eV  171.14 nm  f=0.0407  <S**2>=0.000
      17 -> 19         0.47700
      18 -> 19         0.28360
      18 -> 20         0.41986

 Excited State   3:      Singlet-A      8.5392 eV  145.19 nm  f=0.0015  <S**2>=0.000
      18 -> 21         0.68785
      18 -> 22        -0.11544

 Excited State   4:      Singlet-A      8.8662 eV  139.84 nm  f=0.0050  <S**2>=0.000
      16 -> 19         0.69818

 Excited State   5:      Singlet-A      9.2487 eV  134.06 nm  f=0.0471  <S**2>=0.000
      17 -> 19        -0.14627
      18 -> 20         0.17609
      18 -> 21         0.12374
      18 -> 22         0.60361
      18 -> 23        -0.18433

 Excited State   6:      Singlet-A      9.3897 eV  132.04 nm  f=0.1151  <S**2>=0.000
      17 -> 20         0.66516

 Excited State   7:      Singlet-A      9.5342 eV  130.04 nm  f=0.0717  <S**2>=0.000
      15 -> 19        -0.12745
      17 -> 19        -0.16556
      17 -> 21        -0.22053
      18 -> 20         0.19217
      18 -> 23         0.57010

 Excited State   8:      Singlet-A      9.7663 eV  126.95 nm  f=0.3509  <S**2>=0.000
      17 -> 19        -0.34377
      18 -> 20         0.38765
      18 -> 22        -0.29816
      18 -> 23        -0.24673

 Excited State   9:      Singlet-A      9.7961 eV  126.57 nm  f=0.0249  <S**2>=0.000
      15 -> 19        -0.38900
      17 -> 21         0.55392

 Excited State  10:      Singlet-A      9.8946 eV  125.31 nm  f=0.0105  <S**2>=0.000
      15 -> 19         0.55693
      17 -> 20         0.10561
      17 -> 21         0.33093
      18 -> 23         0.21929

 Excited State  11:      Singlet-A     10.4255 eV  118.92 nm  f=0.0038  <S**2>=0.000
      14 -> 19         0.40756
      16 -> 20         0.26823
      17 -> 22         0.29656
      18 -> 24         0.36734
      18 -> 25        -0.12582

 Excited State  12:      Singlet-A     10.4918 eV  118.17 nm  f=0.0003  <S**2>=0.000
      14 -> 19        -0.35266
      16 -> 20        -0.27796
      17 -> 22         0.14561
      18 -> 24         0.49352

 Excited State  13:      Singlet-A     10.5048 eV  118.03 nm  f=0.0184  <S**2>=0.000
      14 -> 19        -0.14897
      17 -> 22         0.57837
      18 -> 24        -0.29752

 Excited State  14:      Singlet-A     10.6586 eV  116.32 nm  f=0.0092  <S**2>=0.000
      12 -> 19        -0.14450
      13 -> 19         0.41620
      14 -> 19        -0.33824
      16 -> 20         0.41208

 Excited State  15:      Singlet-A     10.7723 eV  115.10 nm  f=0.0099  <S**2>=0.000
      17 -> 23        -0.27815
      18 -> 25         0.62048

 The electronic state is 1-A.
 Alpha  occ. eigenvalues --  -19.10824 -10.17794 -10.17459 -10.13122 -10.12420
 Alpha  occ. eigenvalues --   -1.10664  -0.81115  -0.74304  -0.60055  -0.56784
 Alpha  occ. eigenvalues --   -0.54210  -0.43843  -0.43153  -0.42700  -0.39914
 Alpha  occ. eigenvalues --   -0.36693  -0.27928  -0.23543
 Alpha virt. eigenvalues --    0.01712   0.07769   0.12662   0.15082   0.16467
 Alpha virt. eigenvalues --    0.18965   0.20422   0.22545   0.35076   0.41839
 Alpha virt. eigenvalues --    0.46224   0.67760   0.69739   0.70059   0.75280

 Mulliken charges:
               1
     1  C   -0.247179
     2  C    0.065711
     3  O   -0.466246
     4  C    0.090731
     5  C   -0.253048
     6  H    0.195097
     7  H    0.208431
     8  H    0.218243
     9  H    0.188261
 Sum of Mulliken charges =   0.00000

 Dipole moment (field-independent basis, Debye):
    X=             -0.1550    Y=              0.8494    Z=             -0.0859  Tot=              0.8677
 Quadrupole moment (field-independent basis, Debye-Ang):
   XX=            -23.7204   YY=            -28.0408   ZZ=            -31.8204
   XY=              0.8023   XZ=              0.2102   YZ=             -0.0511

 Normal termination of Gaussian 09 at Tue Dec 15 16:30:29 2015.
