 Gaussian 09, Revision D.01,
 Gaussian 09:  ES64L-G09RevD.01 24-Apr-2013

 ------------------------------------------------------------
 #P AM1(Input,print) CIS(Singlets,NStates=15) pop(full) force
 ------------------------------------------------------------

 -----------------
 AM1-Reparam Input
 -----------------
 Symbolic Z-matrix:
 Charge =  0 Multiplicity = 1

                         Standard orientation:
 ---------------------------------------------------------------------
 Center     Atomic      Atomic             Coordinates (Angstroms)
 Number     Number       Type             X           Y           Z
 ---------------------------------------------------------------------
      1          6           0        0.906798    0.776835   -0.013504
      2          6           0        1.034385   -0.574751    0.020855
      3          8           0       -0.305036   -1.109669   -0.002194
      4          6           0       -1.147473   -0.105361   -0.002074
      5          6           0       -0.458687    1.060529   -0.015200
      6          1           0       -0.909003    2.133576    0.071905
      7          1           0       -2.221451   -0.316488    0.014679
      8          1           0        1.834847   -1.276483   -0.028184
      9          1           0        1.725766    1.393239    0.018693
 ---------------------------------------------------------------------

 SCF Done:  E(RAM1) =  -9.24465556132     A.U. after   14 cycles

 Excitation energies and oscillator strengths:

 Excited State   1:      Singlet-A      5.8795 eV  210.87 nm  f=0.0094  <S**2>=0.000
      10 -> 14         0.21068
      11 -> 14        -0.14626
      12 -> 14         0.55044
      13 -> 14        -0.35944
 This state for optimization and/or second-order correction.
 Total Energy, E(CIS) =  -9.02858612357
 Copying the excited state density for this state as the 1-particle RhoCI density.

 Excited State   2:      Singlet-A      6.3553 eV  195.09 nm  f=0.0034  <S**2>=0.000
      10 -> 14         0.13564
      11 -> 14         0.67726
      12 -> 14         0.13965

 Excited State   3:      Singlet-A      6.9651 eV  178.01 nm  f=0.3094  <S**2>=0.000
      12 -> 14         0.33963
      13 -> 14         0.59076

 Excited State   4:      Singlet-A      8.3242 eV  148.94 nm  f=0.0038  <S**2>=0.000
      10 -> 14         0.65154
      12 -> 14        -0.24010

 Excited State   5:      Singlet-A     10.2692 eV  120.73 nm  f=0.0226  <S**2>=0.000
       8 -> 14         0.11647
       9 -> 14         0.11696
      13 -> 15         0.62182
      13 -> 16        -0.26856

 Excited State   6:      Singlet-A     10.3842 eV  119.40 nm  f=0.0292  <S**2>=0.000
       8 -> 14         0.11297
      12 -> 16         0.12751
      13 -> 15         0.26133
      13 -> 16         0.61863

 Excited State   7:      Singlet-A     10.7369 eV  115.48 nm  f=0.0033  <S**2>=0.000
       9 -> 14         0.64103
      12 -> 15        -0.23814
      13 -> 16         0.10236

 Excited State   8:      Singlet-A     11.0308 eV  112.40 nm  f=0.0150  <S**2>=0.000
       8 -> 14         0.13036
       9 -> 14         0.19084
      12 -> 15         0.56078
      12 -> 16        -0.24725
      13 -> 17         0.16538

 Excited State   9:      Singlet-A     11.1486 eV  111.21 nm  f=0.0261  <S**2>=0.000
       9 -> 14         0.15368
      12 -> 15         0.30618
      12 -> 16         0.46541
      13 -> 17        -0.30983

 Excited State  10:      Singlet-A     11.1657 eV  111.04 nm  f=0.0374  <S**2>=0.000
       8 -> 14        -0.13463
      11 -> 16        -0.10573
      12 -> 16         0.32697
      13 -> 17         0.53314
      13 -> 18        -0.16144
      13 -> 19        -0.10795

 Excited State  11:      Singlet-A     11.4458 eV  108.32 nm  f=0.0642  <S**2>=0.000
       8 -> 14        -0.23750
      10 -> 17         0.16179
      11 -> 16         0.45323
      11 -> 19        -0.10989
      11 -> 21        -0.17411
      12 -> 17         0.15690
      12 -> 18        -0.14685
      12 -> 20         0.20618

 Excited State  12:      Singlet-A     11.6570 eV  106.36 nm  f=0.0108  <S**2>=0.000
       8 -> 14         0.45776
      10 -> 16         0.12583
      11 -> 16        -0.10168
      12 -> 17         0.37612
      12 -> 18        -0.16946
      12 -> 19        -0.10475
      12 -> 20         0.12670
      13 -> 15        -0.10210

 Excited State  13:      Singlet-A     12.0364 eV  103.01 nm  f=0.0019  <S**2>=0.000
       9 -> 15         0.10017
      11 -> 15         0.69310

 Excited State  14:      Singlet-A     12.1175 eV  102.32 nm  f=0.1314  <S**2>=0.000
       8 -> 14        -0.27907
      11 -> 16        -0.21555
      11 -> 17         0.35328
      11 -> 18        -0.16028
      12 -> 17         0.38320

 Excited State  15:      Singlet-A     12.4487 eV   99.60 nm  f=0.0025  <S**2>=0.000
       9 -> 17         0.10568
      10 -> 16         0.25271
      11 -> 17         0.35418
      11 -> 19        -0.10651
      11 -> 20        -0.16340
      11 -> 22        -0.11118
      12 -> 16         0.13308
      12 -> 17        -0.23489
      12 -> 18        -0.14710
      12 -> 19         0.14335
      12 -> 20         0.14733
      13 -> 18         0.18725
      13 -> 20        -0.11063

 The electronic state is 1-A.
 Alpha  occ. eigenvalues --   -3.82963  -1.35393  -1.08497  -1.04732  -1.02933
 Alpha  occ. eigenvalues --   -0.87045  -0.86455  -0.69613  -0.68217  -0.58864
 Alpha  occ. eigenvalues --   -0.54713  -0.52254  -0.50039
 Alpha virt. eigenvalues --   -0.02432   0.11329   0.13172   0.16323   0.21001
 Alpha virt. eigenvalues --    0.23108   0.25684   0.29568   0.32724   0.38759
 Alpha virt. eigenvalues --    0.43116

 Mulliken charges:
               1
     1  C   -0.460301
     2  C   -1.909823
     3  O    3.138642
     4  C   -1.972870
     5  C   -0.545898
     6  H    0.432777
     7  H    0.468650
     8  H    0.439392
     9  H    0.409430
 Sum of Mulliken charges =   0.00000

 Dipole moment (field-independent basis, Debye):
    X=             -3.4733    Y=            -10.0323    Z=              0.0088  Tot=             10.6166
 N-N= 1.044845745442D+02 E-N=-1.732650339553D+02  KE=-2.695906110536D+01
 Orbital energies and kinetic energies (alpha):
                                 1                 2
   1         O                -3.829627         -3.166857
   2         O                -1.353935         -1.353866
   3         O                -1.084971         -1.104731
   4         O                -1.047324         -1.009206
   5         O                -1.029326         -1.076654
   6         O                -0.870452         -0.902882
   7         O                -0.864546         -0.914732

 Normal termination of Gaussian 09 at Fri Dec 11 13:41:16 2015.
