 Gaussian 09, Revision D.01,
 Gaussian 09:  ES64L-G09RevD.01 24-Apr-2013

 ------------------------------------------------------------
 #P AM1(Input,print) CIS(Singlets,NStates=15) pop(full) force
 ------------------------------------------------------------

 -----------------
 AM1-Reparam Input
 -----------------
 Symbolic Z-matrix:
 Charge =  0 Multiplicity = 1

                         Standard orientation:
 ---------------------------------------------------------------------
 Center     Atomic      Atomic             Coordinates (Angstroms)
 Number     Number       Type             X           Y           Z
 ---------------------------------------------------------------------
      1          6           0       -0.771177    0.857452   -0.007565
      2          6           0       -1.028867   -0.432706    0.000097
      3          8           0        0.101544   -1.122845   -0.009403
      4          6           0        1.127116   -0.225692    0.001740
      5          6           0        0.584698    0.984843    0.015259
      6          1           0        1.141704    1.894237   -0.041266
      7          1           0        2.137814   -0.626432    0.017541
      8          1           0       -1.978290   -1.078726    0.041361
      9          1           0       -1.584198    1.690297    0.000396
 ---------------------------------------------------------------------

 SCF Done:  E(RAM1) =   1.74660276560     A.U. after   13 cycles

 Excitation energies and oscillator strengths:

 Excited State   1:      Singlet-A      5.5737 eV  222.44 nm  f=0.3064  <S**2>=0.000
      11 -> 17        -0.11050
      13 -> 14         0.68884
 This state for optimization and/or second-order correction.
 Total Energy, E(CIS) =   1.95143398927
 Copying the excited state density for this state as the 1-particle RhoCI density.

 Excited State   2:      Singlet-A      6.0582 eV  204.65 nm  f=0.0025  <S**2>=0.000
      10 -> 15         0.12536
      13 -> 15         0.66580
      13 -> 17        -0.14089

 Excited State   3:      Singlet-A      6.6158 eV  187.41 nm  f=0.0028  <S**2>=0.000
      10 -> 16        -0.11936
      13 -> 16         0.64134
      13 -> 17        -0.18803
      13 -> 19         0.12382

 Excited State   4:      Singlet-A      7.2858 eV  170.17 nm  f=0.0002  <S**2>=0.000
      12 -> 14         0.65317
      13 -> 21         0.21706

 Excited State   5:      Singlet-A      7.5133 eV  165.02 nm  f=0.0176  <S**2>=0.000
      11 -> 14         0.12138
      12 -> 14        -0.13721
      13 -> 15         0.13221
      13 -> 16         0.15379
      13 -> 17         0.61028
      13 -> 18        -0.10735
      13 -> 21         0.15280

 Excited State   6:      Singlet-A      7.7747 eV  159.47 nm  f=0.0010  <S**2>=0.000
      12 -> 14        -0.19500
      13 -> 17        -0.17416
      13 -> 19        -0.18156
      13 -> 20         0.15599
      13 -> 21         0.59114

 Excited State   7:      Singlet-A      8.0052 eV  154.88 nm  f=0.0012  <S**2>=0.000
      10 -> 14        -0.23849
      11 -> 14         0.64274
      13 -> 17        -0.11008

 Excited State   8:      Singlet-A      8.4013 eV  147.58 nm  f=0.0060  <S**2>=0.000
      13 -> 17         0.11317
      13 -> 18         0.57616
      13 -> 19        -0.35186

 Excited State   9:      Singlet-A      8.5561 eV  144.91 nm  f=0.0101  <S**2>=0.000
      13 -> 18         0.36340
      13 -> 19         0.54293
      13 -> 20        -0.10217
      13 -> 21         0.19677

 Excited State  10:      Singlet-A      8.8668 eV  139.83 nm  f=0.0364  <S**2>=0.000
       8 -> 15        -0.10110
      10 -> 14         0.58489
      11 -> 14         0.21488
      12 -> 15         0.24093

 Excited State  11:      Singlet-A      9.1249 eV  135.87 nm  f=0.0758  <S**2>=0.000
      11 -> 17        -0.10708
      12 -> 15        -0.16998
      13 -> 19         0.12812
      13 -> 20         0.60240
      13 -> 21        -0.11104

 Excited State  12:      Singlet-A      9.1820 eV  135.03 nm  f=0.0650  <S**2>=0.000
       8 -> 15        -0.14605
      10 -> 14        -0.15993
      11 -> 17         0.23911
      12 -> 15         0.38387
      12 -> 16        -0.17140
      12 -> 18         0.16391
      12 -> 21        -0.17073
      13 -> 20         0.28155

 Excited State  13:      Singlet-A      9.4684 eV  130.95 nm  f=0.0378  <S**2>=0.000
       7 -> 15        -0.11416
      10 -> 15         0.47677
      11 -> 15         0.36819
      11 -> 17        -0.16772
      12 -> 15         0.12349
      13 -> 15        -0.13916

 Excited State  14:      Singlet-A      9.5288 eV  130.11 nm  f=0.1405  <S**2>=0.000
       9 -> 15        -0.11096
      10 -> 14         0.13733
      10 -> 15         0.39249
      10 -> 17        -0.12281
      11 -> 15        -0.23964
      11 -> 17         0.19328
      12 -> 15        -0.35228

 Excited State  15:      Singlet-A      9.8698 eV  125.62 nm  f=0.2515  <S**2>=0.000
       8 -> 16         0.11031
      10 -> 14        -0.10523
      11 -> 16        -0.27164
      11 -> 17         0.13182
      11 -> 18         0.10469
      12 -> 16         0.54766
      12 -> 19         0.12404

 The electronic state is 1-A.
 Alpha  occ. eigenvalues --   -1.93244  -1.25052  -1.00124  -0.82160  -0.80456
 Alpha  occ. eigenvalues --   -0.68172  -0.65242  -0.54319  -0.51803  -0.42567
 Alpha  occ. eigenvalues --   -0.42153  -0.40486  -0.28272
 Alpha virt. eigenvalues --    0.13813   0.16046   0.19086   0.24026   0.26780
 Alpha virt. eigenvalues --    0.28678   0.29275   0.30084   0.37821   0.46663
 Alpha virt. eigenvalues --    0.51511

 Mulliken charges:
               1
     1  C   -0.142635
     2  C   -1.938105
     3  O    3.183441
     4  C   -1.940118
     5  C   -0.122909
     6  H    0.176347
     7  H    0.302487
     8  H    0.304842
     9  H    0.176649
 Sum of Mulliken charges =   0.00000

 Dipole moment (field-independent basis, Debye):
    X=              0.4792    Y=            -10.1914    Z=             -0.0618  Tot=             10.2029
 N-N= 1.048484403998D+02 E-N=-1.709209780112D+02  KE=-1.580171923450D+01
 Orbital energies and kinetic energies (alpha):
                                 1                 2
   1         O                -1.932444         -1.417111
   2         O                -1.250515         -1.112911
   3         O                -1.001240         -0.918796
   4         O                -0.821603         -0.621338
   5         O                -0.804562         -0.698511
   6         O                -0.681717         -0.585693
   7         O                -0.652417         -0.531188

 Normal termination of Gaussian 09 at Tue Dec 15 17:06:55 2015.
