 Gaussian 09, Revision D.01,
 Gaussian 09:  ES64L-G09RevD.01 24-Apr-2013

 -------------------------------------------------------
 #P B3LYP/3-21G CIS(Singlets,NStates=15) pop(full) force
 -------------------------------------------------------

 --------
 FuranDFT
 --------
 Symbolic Z-matrix:
 Charge =  0 Multiplicity = 1

                         Standard orientation:
 ---------------------------------------------------------------------
 Center     Atomic      Atomic             Coordinates (Angstroms)
 Number     Number       Type             X           Y           Z
 ---------------------------------------------------------------------
      1          6           0        0.620232    1.021634   -0.011508
      2          6           0       -0.753987    0.813278   -0.000132
      3          8           0       -1.092145   -0.443872    0.008531
      4          6           0        0.103143   -1.113403   -0.010312
      5          6           0        1.170354   -0.257542    0.001872
      6          1           0        2.244777   -0.537404    0.008794
      7          1           0        0.078390   -2.216367    0.013477
      8          1           0       -1.523544    1.522542   -0.021462
      9          1           0        1.099085    1.998400    0.051417
 ---------------------------------------------------------------------

 SCF Done:  E(RB3LYP) =  -228.737616408     A.U. after   14 cycles

 Excitation energies and oscillator strengths:

 Excited State   1:      Singlet-A      7.0607 eV  175.60 nm  f=0.1942  <S**2>=0.000
      17 -> 19         0.18009
      18 -> 19         0.63353
      18 -> 20        -0.19833
 This state for optimization and/or second-order correction.
 Total Energy, E(CIS) =  -228.478139887
 Copying the excited state density for this state as the 1-particle RhoCI density.

 Excited State   2:      Singlet-A      7.2980 eV  169.89 nm  f=0.0379  <S**2>=0.000
      17 -> 19        -0.44818
      18 -> 19         0.26178
      18 -> 20         0.46869

 Excited State   3:      Singlet-A      8.2859 eV  149.63 nm  f=0.0011  <S**2>=0.000
      18 -> 21         0.69867

 Excited State   4:      Singlet-A      9.0068 eV  137.66 nm  f=0.0047  <S**2>=0.000
      16 -> 19         0.68938
      18 -> 22        -0.12356

 Excited State   5:      Singlet-A      9.1680 eV  135.24 nm  f=0.0035  <S**2>=0.000
      16 -> 19         0.11695
      18 -> 22         0.68315

 Excited State   6:      Singlet-A      9.6931 eV  127.91 nm  f=0.3536  <S**2>=0.000
      17 -> 19         0.36188
      17 -> 20         0.18657
      17 -> 21        -0.23900
      18 -> 20         0.35583
      18 -> 23        -0.29691
      18 -> 24        -0.13205

 Excited State   7:      Singlet-A      9.7970 eV  126.55 nm  f=0.1965  <S**2>=0.000
      17 -> 19         0.26036
      17 -> 21         0.25208
      18 -> 20         0.25346
      18 -> 23         0.40954
      18 -> 24         0.30291

 Excited State   8:      Singlet-A      9.9421 eV  124.71 nm  f=0.1363  <S**2>=0.000
      15 -> 19         0.13385
      17 -> 19        -0.13971
      17 -> 20         0.50188
      17 -> 21        -0.33914
      18 -> 20        -0.11066
      18 -> 23         0.21175
      18 -> 24         0.10621

 Excited State   9:      Singlet-A     10.0041 eV  123.93 nm  f=0.0243  <S**2>=0.000
      15 -> 19         0.60240
      16 -> 20         0.14045
      17 -> 20        -0.23817
      17 -> 21        -0.13269
      18 -> 23        -0.10444
      18 -> 24         0.13565

 Excited State  10:      Singlet-A     10.0431 eV  123.45 nm  f=0.0458  <S**2>=0.000
      15 -> 19         0.25766
      17 -> 20         0.30281
      17 -> 21         0.45429
      18 -> 24        -0.30101

 Excited State  11:      Singlet-A     10.1026 eV  122.73 nm  f=0.0276  <S**2>=0.000
      14 -> 19         0.13308
      17 -> 20         0.15997
      17 -> 21         0.16581
      18 -> 23        -0.41517
      18 -> 24         0.48212

 Excited State  12:      Singlet-A     10.2837 eV  120.56 nm  f=0.0048  <S**2>=0.000
      14 -> 19         0.67692
      18 -> 24        -0.14132

 Excited State  13:      Singlet-A     10.7891 eV  114.92 nm  f=0.0031  <S**2>=0.000
      16 -> 20         0.18153
      17 -> 22         0.66581

 Excited State  14:      Singlet-A     10.8005 eV  114.79 nm  f=0.0002  <S**2>=0.000
      15 -> 19        -0.15837
      16 -> 20         0.63959
      17 -> 22        -0.19075

 Excited State  15:      Singlet-A     10.9323 eV  113.41 nm  f=0.0049  <S**2>=0.000
      18 -> 25         0.68634

 The electronic state is 1-A.
 Alpha  occ. eigenvalues --  -19.12822 -10.17541 -10.17212 -10.12893 -10.12267
 Alpha  occ. eigenvalues --   -1.15656  -0.81548  -0.74741  -0.60489  -0.57091
 Alpha  occ. eigenvalues --   -0.54638  -0.46403  -0.44710  -0.41207  -0.40490
 Alpha  occ. eigenvalues --   -0.36912  -0.28673  -0.22423
 Alpha virt. eigenvalues --    0.02025   0.08240   0.12631   0.15254   0.18364
 Alpha virt. eigenvalues --    0.18609   0.22564   0.24737   0.33709   0.42427
 Alpha virt. eigenvalues --    0.47339   0.69275   0.70010   0.72298   0.74538

 Mulliken charges:
               1
     1  C   -0.249676
     2  C    0.108856
     3  O   -0.481967
     4  C    0.061926
     5  C   -0.239826
     6  H    0.190819
     7  H    0.208733
     8  H    0.215269
     9  H    0.185866
 Sum of Mulliken charges =   0.00000

 Dipole moment (field-independent basis, Debye):
    X=              0.6486    Y=              0.2681    Z=              0.0551  Tot=              0.7040
 Quadrupole moment (field-independent basis, Debye-Ang):
   XX=            -27.3645   YY=            -24.7572   ZZ=            -31.8019
   XY=             -1.5566   XZ=              0.1446   YZ=              0.0381

 Normal termination of Gaussian 09 at Tue Dec 15 16:23:54 2015.
