 Gaussian 09, Revision D.01,
 Gaussian 09:  ES64L-G09RevD.01 24-Apr-2013

 ------------------------------------------------------------
 #P AM1(Input,print) CIS(Singlets,NStates=15) pop(full) force
 ------------------------------------------------------------

 -----------------
 AM1-Reparam Input
 -----------------
 Symbolic Z-matrix:
 Charge =  0 Multiplicity = 1

                         Standard orientation:
 ---------------------------------------------------------------------
 Center     Atomic      Atomic             Coordinates (Angstroms)
 Number     Number       Type             X           Y           Z
 ---------------------------------------------------------------------
      1          6           0        0.699464    0.957538   -0.011056
      2          6           0        1.134713   -0.301575   -0.003416
      3          8           0        0.025016   -1.146156   -0.012566
      4          6           0       -1.088091   -0.362235    0.026599
      5          6           0       -0.773046    0.941971    0.004832
      6          1           0       -1.398015    1.705741   -0.031000
      7          1           0       -2.025956   -0.964620   -0.042853
      8          1           0        2.075277   -0.823505    0.056105
      9          1           0        1.310319    1.837434    0.016522
 ---------------------------------------------------------------------

 SCF Done:  E(RAM1) =   2.14202357827     A.U. after   13 cycles

 Excitation energies and oscillator strengths:

 Excited State   1:      Singlet-A      5.2486 eV  236.22 nm  f=0.3628  <S**2>=0.000
      13 -> 14         0.69611
 This state for optimization and/or second-order correction.
 Total Energy, E(CIS) =   2.33490673182
 Copying the excited state density for this state as the 1-particle RhoCI density.

 Excited State   2:      Singlet-A      6.0407 eV  205.25 nm  f=0.0010  <S**2>=0.000
      11 -> 15         0.11121
      13 -> 15         0.67704
      13 -> 17        -0.11847

 Excited State   3:      Singlet-A      6.4997 eV  190.75 nm  f=0.0017  <S**2>=0.000
      11 -> 16        -0.11068
      13 -> 16         0.67001
      13 -> 18        -0.14188

 Excited State   4:      Singlet-A      7.0402 eV  176.11 nm  f=0.0003  <S**2>=0.000
      12 -> 14         0.70054

 Excited State   5:      Singlet-A      7.7787 eV  159.39 nm  f=0.0019  <S**2>=0.000
      13 -> 15        -0.10442
      13 -> 17        -0.39702
      13 -> 18         0.48759
      13 -> 21        -0.15316
      13 -> 22         0.21695

 Excited State   6:      Singlet-A      8.1811 eV  151.55 nm  f=0.0162  <S**2>=0.000
      10 -> 14         0.53474
      13 -> 17        -0.33211
      13 -> 18        -0.27195

 Excited State   7:      Singlet-A      8.3377 eV  148.70 nm  f=0.0048  <S**2>=0.000
      10 -> 14         0.44917
      13 -> 17         0.44011
      13 -> 18         0.27161

 Excited State   8:      Singlet-A      8.9515 eV  138.51 nm  f=0.0477  <S**2>=0.000
      11 -> 14         0.62440
      12 -> 15        -0.10353
      13 -> 20        -0.23608

 Excited State   9:      Singlet-A      8.9544 eV  138.46 nm  f=0.0037  <S**2>=0.000
      13 -> 19         0.66864
      13 -> 21         0.12363

 Excited State  10:      Singlet-A      9.5074 eV  130.41 nm  f=0.1195  <S**2>=0.000
       8 -> 15         0.12398
       8 -> 16         0.10284
      10 -> 17         0.10512
      12 -> 15         0.53062
      12 -> 16        -0.26948
      12 -> 17        -0.12933
      12 -> 18         0.19326

 Excited State  11:      Singlet-A      9.5624 eV  129.66 nm  f=0.0087  <S**2>=0.000
      13 -> 18        -0.28346
      13 -> 21        -0.44297
      13 -> 22         0.44722

 Excited State  12:      Singlet-A      9.8383 eV  126.02 nm  f=0.0736  <S**2>=0.000
      13 -> 20         0.30983
      13 -> 21         0.41150
      13 -> 22         0.43362

 Excited State  13:      Singlet-A      9.9155 eV  125.04 nm  f=0.0645  <S**2>=0.000
      10 -> 15        -0.11761
      11 -> 14         0.16074
      13 -> 20         0.55861
      13 -> 21        -0.25409
      13 -> 22        -0.21357

 Excited State  14:      Singlet-A     10.0311 eV  123.60 nm  f=0.1247  <S**2>=0.000
      10 -> 15         0.16065
      11 -> 14         0.19941
      12 -> 15         0.27473
      12 -> 16         0.53775
      12 -> 18        -0.13720
      13 -> 20         0.11200

 Excited State  15:      Singlet-A     10.1693 eV  121.92 nm  f=0.0076  <S**2>=0.000
       7 -> 15        -0.13808
      11 -> 15         0.63839
      11 -> 16         0.10701
      13 -> 15        -0.13283

 The electronic state is 1-A.
 Alpha  occ. eigenvalues --   -1.93760  -1.18821  -0.93891  -0.81467  -0.78372
 Alpha  occ. eigenvalues --   -0.69562  -0.65766  -0.55565  -0.54084  -0.45341
 Alpha  occ. eigenvalues --   -0.45007  -0.41254  -0.28085
 Alpha virt. eigenvalues --    0.11336   0.16477   0.18480   0.26362   0.28330
 Alpha virt. eigenvalues --    0.29862   0.30710   0.31823   0.32543   0.39071
 Alpha virt. eigenvalues --    0.43234

 Mulliken charges:
               1
     1  C   -0.144886
     2  C   -1.850412
     3  O    3.209283
     4  C   -1.861969
     5  C   -0.181072
     6  H    0.157699
     7  H    0.258874
     8  H    0.254371
     9  H    0.158111
 Sum of Mulliken charges =   0.00000

 Dipole moment (field-independent basis, Debye):
    X=              0.1098    Y=            -11.2590    Z=             -0.3469  Tot=             11.2649
 N-N= 1.040454568329D+02 E-N=-1.690573484557D+02  KE=-1.533001604589D+01
 Orbital energies and kinetic energies (alpha):
                                 1                 2
   1         O                -1.937595         -1.351066
   2         O                -1.188212         -1.047248
   3         O                -0.938912         -0.887799
   4         O                -0.814671         -0.575799
   5         O                -0.783717         -0.681409
   6         O                -0.695621         -0.593842
   7         O                -0.657659         -0.525328

 Normal termination of Gaussian 09 at Tue Dec 15 17:08:46 2015.
