 Gaussian 09, Revision D.01,
 Gaussian 09:  ES64L-G09RevD.01 24-Apr-2013

 ------------------------------------------------------------
 #P AM1(Input,print) CIS(Singlets,NStates=15) pop(full) force
 ------------------------------------------------------------

 -----------------
 AM1-Reparam Input
 -----------------
 Symbolic Z-matrix:
 Charge =  0 Multiplicity = 1

                         Standard orientation:
 ---------------------------------------------------------------------
 Center     Atomic      Atomic             Coordinates (Angstroms)
 Number     Number       Type             X           Y           Z
 ---------------------------------------------------------------------
      1          6           0       -0.641123    1.005779   -0.031384
      2          6           0       -1.129898   -0.283423    0.038843
      3          8           0       -0.049575   -1.188788   -0.025569
      4          6           0        1.067270   -0.347998    0.002481
      5          6           0        0.740796    0.891495    0.010900
      6          1           0        1.483228    1.728144    0.013694
      7          1           0        2.054875   -0.910209    0.044960
      8          1           0       -2.029750   -0.737221    0.024056
      9          1           0       -1.334025    1.834473   -0.003191
 ---------------------------------------------------------------------

 SCF Done:  E(RAM1) =   1.44537200100     A.U. after   13 cycles

 Excitation energies and oscillator strengths:

 Excited State   1:      Singlet-A      5.9163 eV  209.57 nm  f=0.0031  <S**2>=0.000
      12 -> 15         0.12926
      13 -> 14        -0.10700
      13 -> 15         0.66960
 This state for optimization and/or second-order correction.
 Total Energy, E(CIS) =   1.66279043488
 Copying the excited state density for this state as the 1-particle RhoCI density.

 Excited State   2:      Singlet-A      6.0553 eV  204.75 nm  f=0.2746  <S**2>=0.000
      13 -> 14         0.68220
      13 -> 15         0.10658

 Excited State   3:      Singlet-A      6.6369 eV  186.81 nm  f=0.0003  <S**2>=0.000
      12 -> 16        -0.13187
      13 -> 16         0.63622
      13 -> 18        -0.21350
      13 -> 20         0.12049

 Excited State   4:      Singlet-A      7.5275 eV  164.71 nm  f=0.0094  <S**2>=0.000
      11 -> 14         0.10461
      12 -> 16        -0.11170
      13 -> 16         0.19039
      13 -> 18         0.64414

 Excited State   5:      Singlet-A      7.7292 eV  160.41 nm  f=0.0010  <S**2>=0.000
      11 -> 14         0.65644
      12 -> 14         0.15070
      13 -> 22        -0.13256

 Excited State   6:      Singlet-A      7.9964 eV  155.05 nm  f=0.0236  <S**2>=0.000
      12 -> 14         0.32060
      13 -> 17         0.60849

 Excited State   7:      Singlet-A      8.1192 eV  152.70 nm  f=0.0023  <S**2>=0.000
      12 -> 15         0.11517
      13 -> 19         0.51934
      13 -> 22        -0.43840

 Excited State   8:      Singlet-A      8.3009 eV  149.36 nm  f=0.0024  <S**2>=0.000
      10 -> 14         0.68504

 Excited State   9:      Singlet-A      8.6146 eV  143.92 nm  f=0.0001  <S**2>=0.000
      12 -> 15        -0.21076
      12 -> 16        -0.14225
      13 -> 19         0.35166
      13 -> 20        -0.24312
      13 -> 21         0.37341
      13 -> 22         0.29651

 Excited State  10:      Singlet-A      8.8714 eV  139.76 nm  f=0.0092  <S**2>=0.000
      12 -> 14         0.14554
      12 -> 15        -0.20279
      13 -> 19         0.25125
      13 -> 20         0.44771
      13 -> 21        -0.26471
      13 -> 22         0.23764

 Excited State  11:      Singlet-A      8.9625 eV  138.34 nm  f=0.0354  <S**2>=0.000
      11 -> 15        -0.12649
      12 -> 14        -0.21811
      12 -> 15         0.36567
      13 -> 17         0.11071
      13 -> 19         0.16408
      13 -> 20        -0.11663
      13 -> 21        -0.30290
      13 -> 22         0.32146
      13 -> 23        -0.11212

 Excited State  12:      Singlet-A      9.0424 eV  137.11 nm  f=0.1031  <S**2>=0.000
      11 -> 15         0.19930
      11 -> 18         0.12284
      12 -> 14         0.45315
      12 -> 15         0.26966
      13 -> 17        -0.28651
      13 -> 20        -0.14646

 Excited State  13:      Singlet-A      9.1485 eV  135.52 nm  f=0.0172  <S**2>=0.000
      12 -> 15         0.34211
      12 -> 16         0.25273
      13 -> 15        -0.11427
      13 -> 20         0.32117
      13 -> 21         0.37441
      13 -> 23         0.12594

 Excited State  14:      Singlet-A      9.3770 eV  132.22 nm  f=0.2607  <S**2>=0.000
       8 -> 15        -0.17640
       9 -> 15         0.11776
      11 -> 15         0.52304
      11 -> 16        -0.12430
      12 -> 14        -0.28934

 Excited State  15:      Singlet-A      9.6377 eV  128.64 nm  f=0.0061  <S**2>=0.000
      12 -> 15        -0.11989
      12 -> 16         0.55820
      12 -> 20         0.10537
      13 -> 16         0.17384
      13 -> 20        -0.24939
      13 -> 21        -0.14857
      13 -> 22         0.10185

 The electronic state is 1-A.
 Alpha  occ. eigenvalues --   -1.87580  -1.20615  -0.95496  -0.78004  -0.77665
 Alpha  occ. eigenvalues --   -0.67204  -0.61437  -0.48524  -0.47741  -0.38593
 Alpha  occ. eigenvalues --   -0.37091  -0.36114  -0.23808
 Alpha virt. eigenvalues --    0.19223   0.20634   0.24406   0.28067   0.28715
 Alpha virt. eigenvalues --    0.31479   0.34457   0.35035   0.37091   0.39550
 Alpha virt. eigenvalues --    0.43505

 Mulliken charges:
               1
     1  C   -0.085127
     2  C   -1.523118
     3  O    2.746448
     4  C   -1.491500
     5  C   -0.034892
     6  H    0.050807
     7  H    0.138724
     8  H    0.136231
     9  H    0.062428
 Sum of Mulliken charges =   0.00000

 Dipole moment (field-independent basis, Debye):
    X=              0.1168    Y=            -10.3698    Z=             -0.4862  Tot=             10.3819
 N-N= 1.035227905902D+02 E-N=-1.699105664480D+02  KE=-1.584684483317D+01
 Orbital energies and kinetic energies (alpha):
                                 1                 2
   1         O                -1.875798         -1.355289
   2         O                -1.206150         -1.092951
   3         O                -0.954956         -0.899494
   4         O                -0.780036         -0.668339
   5         O                -0.776650         -0.652114
   6         O                -0.672038         -0.625407
   7         O                -0.614374         -0.550588

 Normal termination of Gaussian 09 at Tue Dec 15 17:08:08 2015.
