 Gaussian 09, Revision D.01,
 Gaussian 09:  ES64L-G09RevD.01 24-Apr-2013

 ------------------------------------------------------------
 #P AM1(Input,print) CIS(Singlets,NStates=15) pop(full) force
 ------------------------------------------------------------

 -----------------
 AM1-Reparam Input
 -----------------
 Symbolic Z-matrix:
 Charge =  0 Multiplicity = 1

                         Standard orientation:
 ---------------------------------------------------------------------
 Center     Atomic      Atomic             Coordinates (Angstroms)
 Number     Number       Type             X           Y           Z
 ---------------------------------------------------------------------
      1          6           0        0.210344    1.215219    0.000537
      2          6           0        1.154654    0.153317    0.005513
      3          8           0        0.507579   -1.068729   -0.020091
      4          6           0       -0.798119   -0.745271    0.028571
      5          6           0       -1.090367    0.497913   -0.007144
      6          1           0       -2.018436    1.049665   -0.014923
      7          1           0       -1.467395   -1.591341   -0.012691
      8          1           0        2.158500    0.144025    0.042539
      9          1           0        0.407627    2.220422   -0.019058
 ---------------------------------------------------------------------

 SCF Done:  E(RAM1) =   1.74832114881     A.U. after   14 cycles

 Excitation energies and oscillator strengths:

 Excited State   1:      Singlet-A      5.1611 eV  240.23 nm  f=0.3517  <S**2>=0.000
      13 -> 14         0.69658
 This state for optimization and/or second-order correction.
 Total Energy, E(CIS) =   1.93798788650
 Copying the excited state density for this state as the 1-particle RhoCI density.

 Excited State   2:      Singlet-A      5.7697 eV  214.89 nm  f=0.0010  <S**2>=0.000
      11 -> 15         0.10361
      13 -> 15         0.67814
      13 -> 18         0.11971

 Excited State   3:      Singlet-A      6.5090 eV  190.48 nm  f=0.0041  <S**2>=0.000
      13 -> 16         0.60914
      13 -> 17        -0.22471
      13 -> 19         0.22783

 Excited State   4:      Singlet-A      6.7267 eV  184.32 nm  f=0.0005  <S**2>=0.000
      12 -> 14         0.69044

 Excited State   5:      Singlet-A      7.2598 eV  170.78 nm  f=0.0040  <S**2>=0.000
      12 -> 14         0.11167
      13 -> 16        -0.17606
      13 -> 17         0.10796
      13 -> 18        -0.20697
      13 -> 19         0.53468
      13 -> 20        -0.17825
      13 -> 21         0.25636

 Excited State   6:      Singlet-A      7.7986 eV  158.98 nm  f=0.0159  <S**2>=0.000
      10 -> 14        -0.10587
      11 -> 16        -0.10455
      13 -> 16         0.17388
      13 -> 17         0.58816
      13 -> 18        -0.18952
      13 -> 20         0.21916

 Excited State   7:      Singlet-A      8.2189 eV  150.85 nm  f=0.0039  <S**2>=0.000
      10 -> 14        -0.11690
      13 -> 16         0.12024
      13 -> 17         0.21954
      13 -> 18         0.58917
      13 -> 19         0.12052
      13 -> 20        -0.17754
      13 -> 21         0.12453

 Excited State   8:      Singlet-A      8.2935 eV  149.50 nm  f=0.0010  <S**2>=0.000
      10 -> 14         0.66427
      13 -> 17         0.14831
      13 -> 20        -0.11740

 Excited State   9:      Singlet-A      8.4646 eV  146.47 nm  f=0.0149  <S**2>=0.000
      13 -> 16        -0.11937
      13 -> 18         0.20351
      13 -> 19         0.33122
      13 -> 20         0.45957
      13 -> 21        -0.31102

 Excited State  10:      Singlet-A      8.5070 eV  145.74 nm  f=0.0777  <S**2>=0.000
      11 -> 14         0.62491
      12 -> 15        -0.23140

 Excited State  11:      Singlet-A      8.8951 eV  139.39 nm  f=0.0717  <S**2>=0.000
      10 -> 14         0.11971
      13 -> 19        -0.11392
      13 -> 20         0.38373
      13 -> 21         0.54954

 Excited State  12:      Singlet-A      9.0442 eV  137.09 nm  f=0.2457  <S**2>=0.000
       8 -> 15        -0.14082
      10 -> 17         0.10139
      11 -> 14         0.27076
      12 -> 15         0.52716
      12 -> 16        -0.16233
      12 -> 18         0.13809
      12 -> 19        -0.12311

 Excited State  13:      Singlet-A      9.5663 eV  129.60 nm  f=0.0016  <S**2>=0.000
       7 -> 15        -0.14748
      11 -> 15         0.64347
      11 -> 16         0.14560
      13 -> 15        -0.11827

 Excited State  14:      Singlet-A      9.6423 eV  128.58 nm  f=0.0028  <S**2>=0.000
      10 -> 15         0.11467
      10 -> 17        -0.16966
      12 -> 15         0.29726
      12 -> 16         0.32090
      12 -> 17        -0.13071
      12 -> 18        -0.16917
      12 -> 19         0.30452
      12 -> 21         0.23680

 Excited State  15:      Singlet-A     10.0603 eV  123.24 nm  f=0.0019  <S**2>=0.000
      11 -> 15        -0.15274
      11 -> 16         0.57073
      11 -> 20         0.10635
      12 -> 16        -0.12005
      12 -> 19         0.15998
      13 -> 16         0.13019

 The electronic state is 1-A.
 Alpha  occ. eigenvalues --   -1.91075  -1.21616  -0.99789  -0.82094  -0.80902
 Alpha  occ. eigenvalues --   -0.69373  -0.63108  -0.53172  -0.51726  -0.44450
 Alpha  occ. eigenvalues --   -0.41825  -0.39467  -0.26488
 Alpha virt. eigenvalues --    0.12557   0.16929   0.21190   0.26442   0.27802
 Alpha virt. eigenvalues --    0.28817   0.29196   0.30704   0.36291   0.45753
 Alpha virt. eigenvalues --    0.49504

 Mulliken charges:
               1
     1  C   -0.149351
     2  C   -1.944316
     3  O    3.167283
     4  C   -1.886563
     5  C   -0.121761
     6  H    0.171506
     7  H    0.296156
     8  H    0.290162
     9  H    0.176883
 Sum of Mulliken charges =   0.00000

 Dipole moment (field-independent basis, Debye):
    X=              3.7235    Y=            -10.1554    Z=             -0.5154  Tot=             10.8288
 N-N= 1.039755254868D+02 E-N=-1.693994051005D+02  KE=-1.575328122373D+01
 Orbital energies and kinetic energies (alpha):
                                 1                 2
   1         O                -1.910747         -1.373833
   2         O                -1.216159         -1.104367
   3         O                -0.997887         -0.923035
   4         O                -0.820943         -0.629657
   5         O                -0.809019         -0.710711
   6         O                -0.693729         -0.584032
   7         O                -0.631084         -0.509066

 Normal termination of Gaussian 09 at Tue Dec 15 17:06:56 2015.
