 Gaussian 09, Revision D.01,
 Gaussian 09:  ES64L-G09RevD.01 24-Apr-2013

 ------------------------------------------------------------
 #P AM1(Input,print) CIS(Singlets,NStates=15) pop(full) force
 ------------------------------------------------------------

 -----------------
 AM1-Reparam Input
 -----------------
 Symbolic Z-matrix:
 Charge =  0 Multiplicity = 1

                         Standard orientation:
 ---------------------------------------------------------------------
 Center     Atomic      Atomic             Coordinates (Angstroms)
 Number     Number       Type             X           Y           Z
 ---------------------------------------------------------------------
      1          6           0        1.010083    0.697276   -0.032860
      2          6           0        0.930391   -0.687172    0.030939
      3          8           0       -0.399434   -1.105088   -0.013396
      4          6           0       -1.135891   -0.028866    0.008723
      5          6           0       -0.380748    1.193153    0.008364
      6          1           0       -0.733018    2.149220   -0.013539
      7          1           0       -2.233786   -0.150229    0.002140
      8          1           0        1.729140   -1.456914   -0.030691
      9          1           0        1.890128    1.252281    0.058256
 ---------------------------------------------------------------------

 SCF Done:  E(RAM1) =   2.08013458721     A.U. after   13 cycles

 Excitation energies and oscillator strengths:

 Excited State   1:      Singlet-A      5.4712 eV  226.61 nm  f=0.3734  <S**2>=0.000
      13 -> 14         0.69651
 This state for optimization and/or second-order correction.
 Total Energy, E(CIS) =   2.28119620357
 Copying the excited state density for this state as the 1-particle RhoCI density.

 Excited State   2:      Singlet-A      6.4038 eV  193.61 nm  f=0.0026  <S**2>=0.000
      11 -> 15         0.11254
      13 -> 15         0.66664
      13 -> 17         0.17508

 Excited State   3:      Singlet-A      6.9227 eV  179.10 nm  f=0.0010  <S**2>=0.000
      11 -> 16        -0.12821
      13 -> 16         0.66101
      13 -> 18        -0.17003

 Excited State   4:      Singlet-A      7.2349 eV  171.37 nm  f=0.0006  <S**2>=0.000
      12 -> 14         0.69868

 Excited State   5:      Singlet-A      8.1806 eV  151.56 nm  f=0.0060  <S**2>=0.000
      10 -> 14         0.45685
      13 -> 17         0.29538
      13 -> 18         0.31595
      13 -> 20         0.16655
      13 -> 21        -0.21212

 Excited State   6:      Singlet-A      8.2321 eV  150.61 nm  f=0.0025  <S**2>=0.000
      10 -> 14         0.50426
      11 -> 14         0.10507
      13 -> 17        -0.13937
      13 -> 18        -0.36812
      13 -> 20        -0.10234
      13 -> 21         0.21586

 Excited State   7:      Singlet-A      8.5855 eV  144.41 nm  f=0.0150  <S**2>=0.000
      10 -> 14        -0.10220
      11 -> 16         0.12464
      13 -> 15        -0.10477
      13 -> 17         0.57244
      13 -> 18        -0.28723
      13 -> 21         0.13258

 Excited State   8:      Singlet-A      8.7317 eV  141.99 nm  f=0.1166  <S**2>=0.000
      10 -> 14        -0.14130
      11 -> 14         0.66918

 Excited State   9:      Singlet-A      9.2420 eV  134.15 nm  f=0.0003  <S**2>=0.000
      13 -> 19         0.65537
      13 -> 21         0.16400

 Excited State  10:      Singlet-A      9.6254 eV  128.81 nm  f=0.0037  <S**2>=0.000
      13 -> 18        -0.35419
      13 -> 19         0.12672
      13 -> 20         0.42054
      13 -> 21        -0.40469

 Excited State  11:      Singlet-A      9.7846 eV  126.71 nm  f=0.0064  <S**2>=0.000
       7 -> 15        -0.13229
      11 -> 15         0.63376
      13 -> 15        -0.14680
      13 -> 20         0.14025

 Excited State  12:      Singlet-A      9.8618 eV  125.72 nm  f=0.0670  <S**2>=0.000
       8 -> 15         0.12212
       9 -> 15         0.16084
      10 -> 15        -0.10574
      10 -> 16        -0.15667
      10 -> 17        -0.15357
      10 -> 18         0.10529
      12 -> 15         0.44713
      12 -> 16        -0.21240
      12 -> 17         0.14586
      12 -> 18         0.19363
      13 -> 20         0.12531

 Excited State  13:      Singlet-A     10.0571 eV  123.28 nm  f=0.0907  <S**2>=0.000
      11 -> 16        -0.14817
      12 -> 15        -0.16729
      13 -> 19        -0.16766
      13 -> 20         0.46031
      13 -> 21         0.41306

 Excited State  14:      Singlet-A     10.2897 eV  120.49 nm  f=0.0478  <S**2>=0.000
       8 -> 16        -0.10938
      10 -> 15         0.29984
      10 -> 17         0.15608
      12 -> 15         0.39050
      12 -> 16         0.38939
      12 -> 18        -0.11454

 Excited State  15:      Singlet-A     10.4315 eV  118.86 nm  f=0.1299  <S**2>=0.000
       9 -> 15         0.11134
      10 -> 15        -0.32823
      10 -> 16        -0.13156
      10 -> 17        -0.15794
      11 -> 16        -0.30273
      12 -> 16         0.38895
      12 -> 19        -0.10160

 The electronic state is 1-A.
 Alpha  occ. eigenvalues --   -1.93165  -1.16368  -0.91191  -0.80924  -0.77132
 Alpha  occ. eigenvalues --   -0.69364  -0.64737  -0.55111  -0.53190  -0.46143
 Alpha  occ. eigenvalues --   -0.44011  -0.42748  -0.29643
 Alpha virt. eigenvalues --    0.10613   0.16399   0.18771   0.25743   0.27945
 Alpha virt. eigenvalues --    0.29125   0.30898   0.31482   0.33226   0.41326
 Alpha virt. eigenvalues --    0.45718

 Mulliken charges:
               1
     1  C   -0.074765
     2  C   -1.888385
     3  O    3.207661
     4  C   -1.925684
     5  C   -0.179476
     6  H    0.157956
     7  H    0.282850
     8  H    0.268572
     9  H    0.151271
 Sum of Mulliken charges =   0.00000

 Dipole moment (field-independent basis, Debye):
    X=             -3.6909    Y=             -9.9124    Z=             -0.5441  Tot=             10.5912
 N-N= 1.033907188124D+02 E-N=-1.680883279739D+02  KE=-1.525831499047D+01
 Orbital energies and kinetic energies (alpha):
                                 1                 2
   1         O                -1.931649         -1.357871
   2         O                -1.163678         -1.038279
   3         O                -0.911913         -0.867401
   4         O                -0.809237         -0.570117
   5         O                -0.771317         -0.673317
   6         O                -0.693643         -0.595228
   7         O                -0.647369         -0.512097

 Normal termination of Gaussian 09 at Tue Dec 15 17:09:15 2015.
