 Gaussian 09, Revision D.01,
 Gaussian 09:  ES64L-G09RevD.01 24-Apr-2013

 ------------------------------------------------------------
 #P AM1(Input,print) CIS(Singlets,NStates=15) pop(full) force
 ------------------------------------------------------------

 -----------------
 AM1-Reparam Input
 -----------------
 Symbolic Z-matrix:
 Charge =  0 Multiplicity = 1

                         Standard orientation:
 ---------------------------------------------------------------------
 Center     Atomic      Atomic             Coordinates (Angstroms)
 Number     Number       Type             X           Y           Z
 ---------------------------------------------------------------------
      1          6           0        0.620232    1.021634   -0.011508
      2          6           0       -0.753987    0.813278   -0.000132
      3          8           0       -1.092145   -0.443872    0.008531
      4          6           0        0.103143   -1.113403   -0.010312
      5          6           0        1.170354   -0.257542    0.001872
      6          1           0        2.244777   -0.537404    0.008794
      7          1           0        0.078390   -2.216367    0.013477
      8          1           0       -1.523544    1.522542   -0.021462
      9          1           0        1.099085    1.998400    0.051417
 ---------------------------------------------------------------------

 SCF Done:  E(RAM1) =   1.07603372081     A.U. after   14 cycles

 Excitation energies and oscillator strengths:

 Excited State   1:      Singlet-A      5.8198 eV  213.04 nm  f=0.1952  <S**2>=0.000
      12 -> 16        -0.14583
      13 -> 14         0.67693
 This state for optimization and/or second-order correction.
 Total Energy, E(CIS) =   1.28990871995
 Copying the excited state density for this state as the 1-particle RhoCI density.

 Excited State   2:      Singlet-A      6.7114 eV  184.74 nm  f=0.0037  <S**2>=0.000
      13 -> 15         0.67744
      13 -> 19        -0.11460

 Excited State   3:      Singlet-A      7.2217 eV  171.68 nm  f=0.0005  <S**2>=0.000
      12 -> 14        -0.10477
      12 -> 15         0.10309
      13 -> 16        -0.14684
      13 -> 17         0.63207
      13 -> 18         0.10733
      13 -> 21        -0.14788

 Excited State   4:      Singlet-A      7.2555 eV  170.88 nm  f=0.0018  <S**2>=0.000
      12 -> 14         0.52710
      13 -> 16         0.42138
      13 -> 17         0.17016

 Excited State   5:      Singlet-A      7.6782 eV  161.48 nm  f=0.0003  <S**2>=0.000
       9 -> 14         0.18547
      11 -> 14         0.67685

 Excited State   6:      Singlet-A      7.8621 eV  157.70 nm  f=0.0032  <S**2>=0.000
      10 -> 14         0.69361

 Excited State   7:      Singlet-A      8.2564 eV  150.17 nm  f=0.2674  <S**2>=0.000
      12 -> 14        -0.43997
      13 -> 16         0.50661

 Excited State   8:      Singlet-A      8.3487 eV  148.51 nm  f=0.0017  <S**2>=0.000
      12 -> 15         0.60647
      12 -> 17         0.11264
      13 -> 18        -0.26244

 Excited State   9:      Singlet-A      8.5968 eV  144.22 nm  f=0.0007  <S**2>=0.000
      12 -> 15         0.28963
      12 -> 17        -0.16249
      13 -> 17        -0.13278
      13 -> 18         0.50225
      13 -> 19        -0.26533
      13 -> 23         0.18138

 Excited State  10:      Singlet-A      8.9002 eV  139.31 nm  f=0.1621  <S**2>=0.000
       8 -> 15         0.12003
       9 -> 15        -0.13447
       9 -> 17         0.11265
      10 -> 15        -0.10890
      12 -> 16         0.58667
      12 -> 17        -0.17278
      13 -> 14         0.13314
      13 -> 18        -0.10528

 Excited State  11:      Singlet-A      8.9375 eV  138.72 nm  f=0.0254  <S**2>=0.000
      12 -> 16         0.17691
      12 -> 17         0.57649
      13 -> 18         0.23859
      13 -> 19         0.15239
      13 -> 21         0.10135

 Excited State  12:      Singlet-A      9.2158 eV  134.53 nm  f=0.0070  <S**2>=0.000
       9 -> 16        -0.22468
      11 -> 16         0.34996
      13 -> 19         0.18673
      13 -> 20         0.43982
      13 -> 21        -0.21197
      13 -> 22         0.13545

 Excited State  13:      Singlet-A      9.2244 eV  134.41 nm  f=0.0122  <S**2>=0.000
       9 -> 16        -0.29429
      11 -> 16         0.43874
      13 -> 20        -0.37594
      13 -> 21         0.16998

 Excited State  14:      Singlet-A      9.3468 eV  132.65 nm  f=0.0068  <S**2>=0.000
       9 -> 15         0.20553
       9 -> 17        -0.10221
      10 -> 15         0.47989
      10 -> 19        -0.18673
      11 -> 15        -0.18371
      11 -> 18        -0.13510
      11 -> 19         0.11265
      12 -> 16         0.23390

 Excited State  15:      Singlet-A      9.5814 eV  129.40 nm  f=0.0001  <S**2>=0.000
       9 -> 14         0.63652
      11 -> 14        -0.17566
      13 -> 21        -0.15527

 The electronic state is 1-A.
 Alpha  occ. eigenvalues --   -1.84287  -1.20168  -0.98207  -0.87345  -0.80643
 Alpha  occ. eigenvalues --   -0.73848  -0.72214  -0.59559  -0.55266  -0.51404
 Alpha  occ. eigenvalues --   -0.50740  -0.46653  -0.39123
 Alpha virt. eigenvalues --    0.04185   0.09929   0.10956   0.11605   0.18522
 Alpha virt. eigenvalues --    0.19127   0.21156   0.21731   0.26979   0.27745
 Alpha virt. eigenvalues --    0.28337

 Mulliken charges:
               1
     1  C   -0.144731
     2  C   -1.272925
     3  O    2.147733
     4  C   -1.289146
     5  C   -0.072866
     6  H    0.110095
     7  H    0.206551
     8  H    0.204372
     9  H    0.110917
 Sum of Mulliken charges =   0.00000

 Dipole moment (field-independent basis, Debye):
    X=             -6.5621    Y=             -2.6082    Z=              0.1687  Tot=              7.0634
 N-N= 1.045982589913D+02 E-N=-1.716303910636D+02  KE=-1.502492294003D+01
 Orbital energies and kinetic energies (alpha):
                                 1                 2
   1         O                -1.842873         -1.261867
   2         O                -1.201682         -0.984098
   3         O                -0.982069         -0.802682
   4         O                -0.873446         -0.635854
   5         O                -0.806427         -0.666148
   6         O                -0.738483         -0.592838
   7         O                -0.722140         -0.517566

 Normal termination of Gaussian 09 at Tue Dec 15 17:05:40 2015.
