 Gaussian 09, Revision D.01,
 Gaussian 09:  ES64L-G09RevD.01 24-Apr-2013

 ------------------------------------------------------------
 #P AM1(Input,print) CIS(Singlets,NStates=15) pop(full) force
 ------------------------------------------------------------

 -----------------
 AM1-Reparam Input
 -----------------
 Symbolic Z-matrix:
 Charge =  0 Multiplicity = 1

                         Standard orientation:
 ---------------------------------------------------------------------
 Center     Atomic      Atomic             Coordinates (Angstroms)
 Number     Number       Type             X           Y           Z
 ---------------------------------------------------------------------
      1          6           0        0.863239    0.784245   -0.020767
      2          6           0        1.033205   -0.481976    0.015390
      3          8           0       -0.225510   -1.153029    0.003608
      4          6           0       -1.105698   -0.133167   -0.010492
      5          6           0       -0.522442    1.046167   -0.000348
      6          1           0       -1.117619    1.976527    0.081247
      7          1           0       -2.183631   -0.462451   -0.015577
      8          1           0        1.851522   -1.191054    0.001046
      9          1           0        1.643985    1.609587    0.001716
 ---------------------------------------------------------------------

 SCF Done:  E(RAM1) =   1.80343219708     A.U. after   14 cycles

 Excitation energies and oscillator strengths:

 Excited State   1:      Singlet-A      5.3680 eV  230.97 nm  f=0.3391  <S**2>=0.000
      13 -> 14         0.69295
 This state for optimization and/or second-order correction.
 Total Energy, E(CIS) =   2.00070356194
 Copying the excited state density for this state as the 1-particle RhoCI density.

 Excited State   2:      Singlet-A      6.3063 eV  196.60 nm  f=0.0005  <S**2>=0.000
      13 -> 15         0.68385
      13 -> 17        -0.10341

 Excited State   3:      Singlet-A      6.9793 eV  177.65 nm  f=0.0008  <S**2>=0.000
      10 -> 16        -0.10844
      12 -> 14        -0.10053
      13 -> 16         0.67307

 Excited State   4:      Singlet-A      7.0084 eV  176.91 nm  f=0.0006  <S**2>=0.000
      12 -> 14         0.69566

 Excited State   5:      Singlet-A      7.9206 eV  156.53 nm  f=0.0088  <S**2>=0.000
      11 -> 14         0.69390
      13 -> 17        -0.10254

 Excited State   6:      Singlet-A      8.4827 eV  146.16 nm  f=0.0028  <S**2>=0.000
      13 -> 15         0.10447
      13 -> 17         0.59178
      13 -> 18        -0.24184
      13 -> 19        -0.20030
      13 -> 22         0.15109

 Excited State   7:      Singlet-A      8.7535 eV  141.64 nm  f=0.0063  <S**2>=0.000
      13 -> 17         0.30910
      13 -> 18         0.58009
      13 -> 19         0.13221
      13 -> 22        -0.16708

 Excited State   8:      Singlet-A      9.3823 eV  132.15 nm  f=0.0061  <S**2>=0.000
      10 -> 14        -0.11700
      12 -> 15        -0.19858
      12 -> 16         0.12569
      13 -> 17         0.12370
      13 -> 18        -0.22667
      13 -> 19         0.55672

 Excited State   9:      Singlet-A      9.4100 eV  131.76 nm  f=0.0268  <S**2>=0.000
       8 -> 16        -0.10625
      10 -> 14         0.22386
      11 -> 17         0.12883
      12 -> 15         0.39141
      12 -> 16        -0.25415
      12 -> 17        -0.15901
      12 -> 18         0.14888
      13 -> 18        -0.10703
      13 -> 19         0.28705

 Excited State  10:      Singlet-A      9.4964 eV  130.56 nm  f=0.0241  <S**2>=0.000
       9 -> 15        -0.11971
      10 -> 14         0.48233
      11 -> 15        -0.15647
      12 -> 15        -0.36007
      13 -> 20        -0.22514

 Excited State  11:      Singlet-A      9.9502 eV  124.60 nm  f=0.0940  <S**2>=0.000
       9 -> 15        -0.11488
      10 -> 14         0.15158
      11 -> 15         0.51314
      11 -> 17        -0.19674
      12 -> 15         0.12857
      12 -> 18        -0.16797
      13 -> 20        -0.24852

 Excited State  12:      Singlet-A     10.1142 eV  122.58 nm  f=0.1525  <S**2>=0.000
       9 -> 16        -0.10350
      10 -> 14         0.12763
      11 -> 16        -0.16973
      11 -> 17         0.11878
      12 -> 16         0.58508
      12 -> 17        -0.14643
      12 -> 18         0.11668

 Excited State  13:      Singlet-A     10.3401 eV  119.91 nm  f=0.0728  <S**2>=0.000
      10 -> 14         0.24472
      11 -> 15         0.14442
      11 -> 18        -0.10505
      12 -> 17        -0.14814
      13 -> 20         0.59149

 Excited State  14:      Singlet-A     10.4465 eV  118.68 nm  f=0.0889  <S**2>=0.000
      13 -> 19        -0.12143
      13 -> 21         0.63383
      13 -> 22        -0.20785

 Excited State  15:      Singlet-A     10.4995 eV  118.09 nm  f=0.1713  <S**2>=0.000
       9 -> 15         0.17003
      10 -> 14         0.27424
      11 -> 15        -0.25991
      11 -> 16         0.14827
      11 -> 19        -0.18825
      12 -> 15         0.22338
      12 -> 17         0.28168
      12 -> 18        -0.26869

 The electronic state is 1-A.
 Alpha  occ. eigenvalues --   -1.90797  -1.19174  -0.92567  -0.81014  -0.78169
 Alpha  occ. eigenvalues --   -0.69343  -0.67950  -0.54976  -0.53813  -0.46395
 Alpha  occ. eigenvalues --   -0.42148  -0.39401  -0.27878
 Alpha virt. eigenvalues --    0.13137   0.17429   0.20248   0.27911   0.29703
 Alpha virt. eigenvalues --    0.31986   0.32403   0.34746   0.38156   0.41865
 Alpha virt. eigenvalues --    0.44232

 Mulliken charges:
               1
     1  C   -0.115207
     2  C   -1.953411
     3  O    3.279669
     4  C   -1.993658
     5  C   -0.259126
     6  H    0.208586
     7  H    0.330760
     8  H    0.306935
     9  H    0.195453
 Sum of Mulliken charges =   0.00000

 Dipole moment (field-independent basis, Debye):
    X=             -2.5943    Y=            -11.6482    Z=              0.0637  Tot=             11.9338
 N-N= 1.041006866505D+02 E-N=-1.698109249129D+02  KE=-1.551108151253D+01
 Orbital energies and kinetic energies (alpha):
                                 1                 2
   1         O                -1.907974         -1.360441
   2         O                -1.191738         -1.071096
   3         O                -0.925670         -0.904042
   4         O                -0.810143         -0.558749
   5         O                -0.781686         -0.685636
   6         O                -0.693431         -0.577317
   7         O                -0.679496         -0.550273

 Normal termination of Gaussian 09 at Tue Dec 15 17:09:43 2015.
