 Gaussian 09, Revision D.01,
 Gaussian 09:  ES64L-G09RevD.01 24-Apr-2013

 ------------------------------------------------------------
 #P AM1(Input,print) CIS(Singlets,NStates=15) pop(full) force
 ------------------------------------------------------------

 -----------------
 AM1-Reparam Input
 -----------------
 Symbolic Z-matrix:
 Charge =  0 Multiplicity = 1

                         Standard orientation:
 ---------------------------------------------------------------------
 Center     Atomic      Atomic             Coordinates (Angstroms)
 Number     Number       Type             X           Y           Z
 ---------------------------------------------------------------------
      1          6           0       -0.743460    0.905586    0.007329
      2          6           0       -1.067291   -0.314285    0.004573
      3          8           0        0.009564   -1.178529    0.003626
      4          6           0        1.093313   -0.336497   -0.019341
      5          6           0        0.704809    0.997165   -0.017738
      6          1           0        1.398201    1.779010    0.077998
      7          1           0        2.038640   -0.796708    0.062001
      8          1           0       -2.043865   -0.840370   -0.004796
      9          1           0       -1.393711    1.774489   -0.013147
 ---------------------------------------------------------------------

 SCF Done:  E(RAM1) =   1.84580116075     A.U. after   14 cycles

 Excitation energies and oscillator strengths:

 Excited State   1:      Singlet-A      5.3134 eV  233.34 nm  f=0.3476  <S**2>=0.000
      13 -> 14         0.69251
 This state for optimization and/or second-order correction.
 Total Energy, E(CIS) =   2.04106610022
 Copying the excited state density for this state as the 1-particle RhoCI density.

 Excited State   2:      Singlet-A      6.3150 eV  196.33 nm  f=0.0025  <S**2>=0.000
      13 -> 15         0.68194
      13 -> 18         0.11090

 Excited State   3:      Singlet-A      6.5393 eV  189.60 nm  f=0.0058  <S**2>=0.000
      13 -> 16         0.67125
      13 -> 17        -0.16599

 Excited State   4:      Singlet-A      7.3921 eV  167.73 nm  f=0.0008  <S**2>=0.000
      12 -> 14         0.70205

 Excited State   5:      Singlet-A      8.0206 eV  154.58 nm  f=0.0004  <S**2>=0.000
      13 -> 16         0.10403
      13 -> 17         0.36926
      13 -> 18         0.53800
      13 -> 22         0.22022

 Excited State   6:      Singlet-A      8.4150 eV  147.34 nm  f=0.0092  <S**2>=0.000
      10 -> 14         0.32595
      11 -> 14         0.59953
      13 -> 18         0.11726

 Excited State   7:      Singlet-A      8.7438 eV  141.80 nm  f=0.0110  <S**2>=0.000
      11 -> 14         0.14171
      13 -> 17         0.54321
      13 -> 18        -0.36229
      13 -> 19        -0.11018

 Excited State   8:      Singlet-A      9.1197 eV  135.95 nm  f=0.0476  <S**2>=0.000
       8 -> 15         0.10776
      10 -> 14         0.54711
      11 -> 14        -0.29568
      12 -> 15        -0.19771
      12 -> 17        -0.14536

 Excited State   9:      Singlet-A      9.2666 eV  133.80 nm  f=0.0006  <S**2>=0.000
      13 -> 19         0.67279

 Excited State  10:      Singlet-A      9.6415 eV  128.59 nm  f=0.1353  <S**2>=0.000
       8 -> 15        -0.10395
       8 -> 16        -0.10481
      10 -> 14         0.22919
      11 -> 14        -0.11181
      11 -> 18        -0.10950
      12 -> 15         0.45517
      12 -> 16        -0.26094
      12 -> 17         0.14739
      12 -> 18         0.19598

 Excited State  11:      Singlet-A      9.9098 eV  125.11 nm  f=0.1233  <S**2>=0.000
       9 -> 15         0.10995
      10 -> 15         0.11704
      11 -> 15         0.18089
      11 -> 16         0.11125
      11 -> 18         0.14401
      12 -> 15         0.45894
      12 -> 16         0.25203
      12 -> 17        -0.24005
      12 -> 18        -0.13115

 Excited State  12:      Singlet-A     10.2971 eV  120.41 nm  f=0.0004  <S**2>=0.000
      13 -> 17        -0.10601
      13 -> 18        -0.19600
      13 -> 20         0.14469
      13 -> 22         0.63927

 Excited State  13:      Singlet-A     10.4334 eV  118.83 nm  f=0.0828  <S**2>=0.000
      10 -> 16         0.15466
      11 -> 16        -0.30921
      12 -> 16         0.12325
      13 -> 20         0.57255

 Excited State  14:      Singlet-A     10.4937 eV  118.15 nm  f=0.0890  <S**2>=0.000
      10 -> 15        -0.24921
      11 -> 16         0.45454
      12 -> 16        -0.23829
      13 -> 20         0.29963
      13 -> 22        -0.12638

 Excited State  15:      Singlet-A     10.5621 eV  117.39 nm  f=0.0735  <S**2>=0.000
      10 -> 15         0.34778
      10 -> 16         0.41301
      11 -> 15        -0.18556
      12 -> 16        -0.29266
      12 -> 18        -0.12282

 The electronic state is 1-A.
 Alpha  occ. eigenvalues --   -1.99043  -1.27881  -1.00881  -0.89565  -0.84588
 Alpha  occ. eigenvalues --   -0.77122  -0.74418  -0.62076  -0.61186  -0.52019
 Alpha  occ. eigenvalues --   -0.51615  -0.48469  -0.35083
 Alpha virt. eigenvalues --    0.05285   0.10717   0.12472   0.20397   0.21786
 Alpha virt. eigenvalues --    0.23564   0.27065   0.28195   0.28305   0.36924
 Alpha virt. eigenvalues --    0.40991

 Mulliken charges:
               1
     1  C   -0.116186
     2  C   -1.845498
     3  O    3.159081
     4  C   -1.888972
     5  C   -0.151392
     6  H    0.143365
     7  H    0.270730
     8  H    0.281463
     9  H    0.147409
 Sum of Mulliken charges =   0.00000

 Dipole moment (field-independent basis, Debye):
    X=             -0.5049    Y=            -11.4935    Z=              0.3307  Tot=             11.5093
 N-N= 1.057177826266D+02 E-N=-1.707959539320D+02  KE=-1.566906717608D+01
 Orbital energies and kinetic energies (alpha):
                                 1                 2
   1         O                -1.990434         -1.365831
   2         O                -1.278809         -1.062101
   3         O                -1.008810         -0.901984
   4         O                -0.895651         -0.581727
   5         O                -0.845881         -0.695054
   6         O                -0.771221         -0.598204
   7         O                -0.744181         -0.548715

 Normal termination of Gaussian 09 at Tue Dec 15 17:08:52 2015.
