 Gaussian 09, Revision D.01,
 Gaussian 09:  ES64L-G09RevD.01 24-Apr-2013

 ------------------------------------------------------------
 #P AM1(Input,print) CIS(Singlets,NStates=15) pop(full) force
 ------------------------------------------------------------

 -----------------
 AM1-Reparam Input
 -----------------
 Symbolic Z-matrix:
 Charge =  0 Multiplicity = 1

                         Standard orientation:
 ---------------------------------------------------------------------
 Center     Atomic      Atomic             Coordinates (Angstroms)
 Number     Number       Type             X           Y           Z
 ---------------------------------------------------------------------
      1          6           0       -1.151780    0.428735   -0.051436
      2          6           0       -0.731541   -0.889562    0.041920
      3          8           0        0.676392   -0.968070   -0.012975
      4          6           0        1.099382    0.333947   -0.022468
      5          6           0        0.067705    1.137959    0.042047
      6          1           0        0.142793    2.267538    0.026043
      7          1           0        2.179964    0.367783    0.010261
      8          1           0       -1.272615   -1.756239    0.021526
      9          1           0       -2.163874    0.799003   -0.014409
 ---------------------------------------------------------------------

 SCF Done:  E(RAM1) =   1.12438107653     A.U. after   14 cycles

 Excitation energies and oscillator strengths:

 Excited State   1:      Singlet-A      5.5373 eV  223.91 nm  f=0.1826  <S**2>=0.000
      12 -> 15         0.15559
      13 -> 14         0.67473
 This state for optimization and/or second-order correction.
 Total Energy, E(CIS) =   1.32787353767
 Copying the excited state density for this state as the 1-particle RhoCI density.

 Excited State   2:      Singlet-A      6.5173 eV  190.24 nm  f=0.0058  <S**2>=0.000
      13 -> 15        -0.21707
      13 -> 16         0.55492
      13 -> 17         0.31637
      13 -> 19        -0.14760

 Excited State   3:      Singlet-A      6.6774 eV  185.68 nm  f=0.0225  <S**2>=0.000
      12 -> 14        -0.33728
      13 -> 15         0.55277
      13 -> 16         0.24232

 Excited State   4:      Singlet-A      6.8974 eV  179.76 nm  f=0.0008  <S**2>=0.000
      13 -> 16        -0.29010
      13 -> 17         0.59585
      13 -> 21         0.12983

 Excited State   5:      Singlet-A      7.1411 eV  173.62 nm  f=0.0090  <S**2>=0.000
       9 -> 14         0.10964
      11 -> 14         0.65741
      12 -> 14         0.18032
      13 -> 15         0.10815

 Excited State   6:      Singlet-A      7.9103 eV  156.74 nm  f=0.1838  <S**2>=0.000
      10 -> 14        -0.27520
      11 -> 14        -0.17984
      12 -> 14         0.51232
      13 -> 15         0.27806

 Excited State   7:      Singlet-A      8.0592 eV  153.84 nm  f=0.0502  <S**2>=0.000
      10 -> 14         0.50176
      10 -> 15         0.10406
      11 -> 14        -0.11144
      11 -> 15        -0.20477
      12 -> 14         0.24000
      13 -> 15         0.12872
      13 -> 18        -0.21862
      13 -> 20        -0.10750

 Excited State   8:      Singlet-A      8.1307 eV  152.49 nm  f=0.0007  <S**2>=0.000
      10 -> 14         0.24347
      12 -> 16        -0.13835
      13 -> 18         0.58009
      13 -> 19        -0.12674
      13 -> 24         0.14902

 Excited State   9:      Singlet-A      8.3817 eV  147.92 nm  f=0.0971  <S**2>=0.000
       9 -> 15        -0.16142
      10 -> 14         0.21562
      10 -> 15        -0.16625
      11 -> 15         0.37350
      12 -> 15         0.46334

 Excited State  10:      Singlet-A      8.4436 eV  146.84 nm  f=0.0015  <S**2>=0.000
      10 -> 14         0.11602
      12 -> 17         0.19691
      13 -> 19        -0.22961
      13 -> 20         0.57074
      13 -> 23         0.13178

 Excited State  11:      Singlet-A      8.5242 eV  145.45 nm  f=0.1439  <S**2>=0.000
       9 -> 15         0.12562
      10 -> 14        -0.16432
      10 -> 15         0.14302
      11 -> 15        -0.37913
      12 -> 15         0.44063
      13 -> 14        -0.11397
      13 -> 20         0.14283

 Excited State  12:      Singlet-A      8.6532 eV  143.28 nm  f=0.0205  <S**2>=0.000
      12 -> 15         0.12271
      12 -> 16         0.56213
      12 -> 17         0.24440
      13 -> 18         0.17362
      13 -> 22         0.10385

 Excited State  13:      Singlet-A      8.8928 eV  139.42 nm  f=0.0117  <S**2>=0.000
       7 -> 16         0.10372
      12 -> 16        -0.23185
      12 -> 17         0.48296
      13 -> 19        -0.33120
      13 -> 20        -0.24566

 Excited State  14:      Singlet-A      9.3101 eV  133.17 nm  f=0.0702  <S**2>=0.000
       9 -> 16        -0.13287
      10 -> 16         0.14481
      10 -> 20        -0.13149
      11 -> 16         0.27971
      11 -> 17         0.18908
      11 -> 18        -0.22368
      12 -> 17         0.20947
      13 -> 19         0.26431
      13 -> 21         0.26258

 Excited State  15:      Singlet-A      9.3399 eV  132.75 nm  f=0.0489  <S**2>=0.000
       9 -> 16        -0.14383
      11 -> 16         0.39955
      11 -> 18        -0.10839
      12 -> 16         0.14475
      12 -> 17        -0.16946
      13 -> 19        -0.25325
      13 -> 21        -0.30643

 The electronic state is 1-A.
 Alpha  occ. eigenvalues --   -1.80686  -1.19563  -0.98588  -0.86622  -0.81235
 Alpha  occ. eigenvalues --   -0.73640  -0.70889  -0.60025  -0.56245  -0.51965
 Alpha  occ. eigenvalues --   -0.48697  -0.46574  -0.37862
 Alpha virt. eigenvalues --    0.04099   0.08569   0.10554   0.11949   0.18089
 Alpha virt. eigenvalues --    0.19306   0.19892   0.22364   0.26036   0.27075
 Alpha virt. eigenvalues --    0.27828

 Mulliken charges:
               1
     1  C   -0.094698
     2  C   -1.244186
     3  O    2.109237
     4  C   -1.195032
     5  C   -0.172294
     6  H    0.123794
     7  H    0.183554
     8  H    0.184603
     9  H    0.105021
 Sum of Mulliken charges =   0.00000

 Dipole moment (field-independent basis, Debye):
    X=              4.4452    Y=             -5.9199    Z=             -0.1880  Tot=              7.4054
 N-N= 1.041707503140D+02 E-N=-1.708964876067D+02  KE=-1.494440446994D+01
 Orbital energies and kinetic energies (alpha):
                                 1                 2
   1         O                -1.806859         -1.222621
   2         O                -1.195632         -0.974424
   3         O                -0.985880         -0.826635
   4         O                -0.866222         -0.619827
   5         O                -0.812352         -0.677538
   6         O                -0.736400         -0.592905
   7         O                -0.708895         -0.513161

 Normal termination of Gaussian 09 at Tue Dec 15 17:05:32 2015.
