 Gaussian 09, Revision D.01,
 Gaussian 09:  ES64L-G09RevD.01 24-Apr-2013

 ------------------------------------------------------------
 #P AM1(Input,print) CIS(Singlets,NStates=15) pop(full) force
 ------------------------------------------------------------

 -----------------
 AM1-Reparam Input
 -----------------
 Symbolic Z-matrix:
 Charge =  0 Multiplicity = 1

                         Standard orientation:
 ---------------------------------------------------------------------
 Center     Atomic      Atomic             Coordinates (Angstroms)
 Number     Number       Type             X           Y           Z
 ---------------------------------------------------------------------
      1          6           0       -1.158379    0.268987    0.024399
      2          6           0       -0.594766   -0.916088    0.019218
      3          8           0        0.769663   -0.928633   -0.014536
      4          6           0        1.047387    0.466421   -0.002715
      5          6           0       -0.099143    1.174056   -0.022885
      6          1           0       -0.130116    2.278516    0.031869
      7          1           0        2.082167    0.677807    0.071047
      8          1           0       -1.035090   -1.957870   -0.020945
      9          1           0       -2.244857    0.470356   -0.073788
 ---------------------------------------------------------------------

 SCF Done:  E(RAM1) =   1.83400772372     A.U. after   14 cycles

 Excitation energies and oscillator strengths:

 Excited State   1:      Singlet-A      5.5472 eV  223.51 nm  f=0.3168  <S**2>=0.000
      13 -> 14         0.68786
 This state for optimization and/or second-order correction.
 Total Energy, E(CIS) =   2.03786397394
 Copying the excited state density for this state as the 1-particle RhoCI density.

 Excited State   2:      Singlet-A      6.2481 eV  198.43 nm  f=0.0044  <S**2>=0.000
      10 -> 15         0.10853
      13 -> 15         0.68051
      13 -> 17        -0.10634

 Excited State   3:      Singlet-A      6.9364 eV  178.74 nm  f=0.0055  <S**2>=0.000
      10 -> 16        -0.10743
      13 -> 16         0.67184
      13 -> 17        -0.10423
      13 -> 19        -0.10824

 Excited State   4:      Singlet-A      7.6898 eV  161.23 nm  f=0.0008  <S**2>=0.000
      12 -> 14         0.69890

 Excited State   5:      Singlet-A      8.2345 eV  150.57 nm  f=0.0098  <S**2>=0.000
      11 -> 14         0.64513
      13 -> 17         0.17389
      13 -> 18        -0.17669

 Excited State   6:      Singlet-A      8.3142 eV  149.12 nm  f=0.0005  <S**2>=0.000
      11 -> 14         0.24527
      13 -> 17        -0.17776
      13 -> 18         0.58008
      13 -> 22        -0.22225

 Excited State   7:      Singlet-A      8.7058 eV  142.42 nm  f=0.0106  <S**2>=0.000
      10 -> 16        -0.10874
      11 -> 14        -0.11021
      13 -> 17         0.62113
      13 -> 18         0.22480

 Excited State   8:      Singlet-A      9.1688 eV  135.22 nm  f=0.0610  <S**2>=0.000
      10 -> 14         0.65523
      12 -> 15        -0.10267
      13 -> 21        -0.11007

 Excited State   9:      Singlet-A      9.4396 eV  131.34 nm  f=0.0001  <S**2>=0.000
      10 -> 16        -0.12549
      13 -> 19         0.66549

 Excited State  10:      Singlet-A      9.5645 eV  129.63 nm  f=0.0099  <S**2>=0.000
       9 -> 15         0.20041
      11 -> 16         0.18639
      11 -> 17        -0.19822
      11 -> 18        -0.11455
      12 -> 15         0.47647
      12 -> 16        -0.12583
      12 -> 17        -0.11689
      12 -> 18         0.23753

 Excited State  11:      Singlet-A      9.9516 eV  124.59 nm  f=0.2070  <S**2>=0.000
      10 -> 15         0.19923
      11 -> 15         0.51553
      11 -> 16         0.13676
      11 -> 17        -0.19000
      12 -> 15        -0.24046
      12 -> 18         0.16818

 Excited State  12:      Singlet-A     10.1281 eV  122.42 nm  f=0.0450  <S**2>=0.000
       7 -> 15        -0.11839
      10 -> 15         0.61305
      12 -> 15         0.13940
      12 -> 18        -0.10158
      13 -> 15        -0.12375

 Excited State  13:      Singlet-A     10.3324 eV  120.00 nm  f=0.1400  <S**2>=0.000
      11 -> 15        -0.17686
      11 -> 16         0.24030
      11 -> 19        -0.13507
      12 -> 16         0.55144
      12 -> 17        -0.16899
      12 -> 19        -0.12635

 Excited State  14:      Singlet-A     10.4157 eV  119.04 nm  f=0.0220  <S**2>=0.000
      13 -> 18         0.22501
      13 -> 20        -0.27318
      13 -> 22         0.58124

 Excited State  15:      Singlet-A     10.5330 eV  117.71 nm  f=0.0680  <S**2>=0.000
       9 -> 15        -0.12834
      10 -> 16        -0.22091
      11 -> 15        -0.13494
      12 -> 15        -0.10443
      12 -> 16        -0.16831
      12 -> 18         0.11015
      13 -> 20         0.46776
      13 -> 21        -0.15360
      13 -> 22         0.26028

 The electronic state is 1-A.
 Alpha  occ. eigenvalues --   -1.98026  -1.28612  -0.99158  -0.88318  -0.84909
 Alpha  occ. eigenvalues --   -0.75894  -0.73956  -0.61808  -0.60005  -0.50651
 Alpha  occ. eigenvalues --   -0.49798  -0.48214  -0.35232
 Alpha virt. eigenvalues --    0.06731   0.10261   0.13721   0.20599   0.21920
 Alpha virt. eigenvalues --    0.24354   0.27211   0.27564   0.29361   0.36673
 Alpha virt. eigenvalues --    0.39950

 Mulliken charges:
               1
     1  C   -0.155280
     2  C   -1.870932
     3  O    3.153429
     4  C   -1.854406
     5  C   -0.104730
     6  H    0.145378
     7  H    0.253376
     8  H    0.283560
     9  H    0.149605
 Sum of Mulliken charges =   0.00000

 Dipole moment (field-independent basis, Debye):
    X=              7.0660    Y=             -9.5722    Z=             -0.2857  Tot=             11.9011
 N-N= 1.055118915105D+02 E-N=-1.706222904804D+02  KE=-1.564185964102D+01
 Orbital energies and kinetic energies (alpha):
                                 1                 2
   1         O                -1.980261         -1.351500
   2         O                -1.286123         -1.076565
   3         O                -0.991578         -0.896354
   4         O                -0.883183         -0.573677
   5         O                -0.849088         -0.687789
   6         O                -0.758940         -0.605677
   7         O                -0.739563         -0.552746

 Normal termination of Gaussian 09 at Tue Dec 15 17:09:02 2015.
