 Gaussian 09, Revision D.01,
 Gaussian 09:  ES64L-G09RevD.01 24-Apr-2013

 ------------------------------------------------------------
 #P AM1(Input,print) CIS(Singlets,NStates=15) pop(full) force
 ------------------------------------------------------------

 -----------------
 AM1-Reparam Input
 -----------------
 Symbolic Z-matrix:
 Charge =  0 Multiplicity = 1

                         Standard orientation:
 ---------------------------------------------------------------------
 Center     Atomic      Atomic             Coordinates (Angstroms)
 Number     Number       Type             X           Y           Z
 ---------------------------------------------------------------------
      1          6           0        0.840675    0.877418   -0.029393
      2          6           0        1.038816   -0.456998    0.034124
      3          8           0       -0.116515   -1.147392   -0.019207
      4          6           0       -1.156456   -0.208652   -0.009037
      5          6           0       -0.596202    1.016042    0.020733
      6          1           0       -1.148709    1.900270    0.001793
      7          1           0       -2.129475   -0.596731    0.043148
      8          1           0        1.885026   -1.071493    0.022402
      9          1           0        1.564279    1.580225   -0.012250
 ---------------------------------------------------------------------

 SCF Done:  E(RAM1) =  0.222623854608E-01 A.U. after   13 cycles

 Excitation energies and oscillator strengths:

 Excited State   1:      Singlet-A      4.5140 eV  274.67 nm  f=0.0840  <S**2>=0.000
      12 -> 15         0.20541
      13 -> 14         0.66767
 This state for optimization and/or second-order correction.
 Total Energy, E(CIS) =  0.188148351525
 Copying the excited state density for this state as the 1-particle RhoCI density.

 Excited State   2:      Singlet-A      5.0778 eV  244.17 nm  f=0.0039  <S**2>=0.000
      12 -> 14        -0.30945
      13 -> 15         0.43049
      13 -> 16         0.45170

 Excited State   3:      Singlet-A      5.1733 eV  239.66 nm  f=0.0023  <S**2>=0.000
      12 -> 14         0.30477
      13 -> 15        -0.34772
      13 -> 16         0.52130

 Excited State   4:      Singlet-A      5.9629 eV  207.92 nm  f=0.0036  <S**2>=0.000
       7 -> 16        -0.18653
      12 -> 15         0.10534
      12 -> 16         0.64615
      12 -> 21        -0.14266

 Excited State   5:      Singlet-A      6.0481 eV  205.00 nm  f=0.0024  <S**2>=0.000
      12 -> 18        -0.22982
      12 -> 22         0.10310
      13 -> 18         0.53161
      13 -> 21         0.15456
      13 -> 22        -0.21686
      13 -> 23         0.16946

 Excited State   6:      Singlet-A      6.1352 eV  202.09 nm  f=0.0007  <S**2>=0.000
      12 -> 19         0.24742
      12 -> 22        -0.11110
      12 -> 23        -0.12207
      13 -> 17        -0.27187
      13 -> 19         0.43936
      13 -> 21         0.16423
      13 -> 22        -0.15237
      13 -> 23        -0.21608

 Excited State   7:      Singlet-A      6.2469 eV  198.47 nm  f=0.3955  <S**2>=0.000
      10 -> 16        -0.12928
      12 -> 14         0.51483
      13 -> 15         0.41321

 Excited State   8:      Singlet-A      6.3935 eV  193.92 nm  f=0.1145  <S**2>=0.000
      12 -> 15         0.65267
      12 -> 16        -0.10589
      13 -> 14        -0.19041

 Excited State   9:      Singlet-A      6.5666 eV  188.81 nm  f=0.0079  <S**2>=0.000
      13 -> 17         0.57488
      13 -> 19         0.32198

 Excited State  10:      Singlet-A      7.0650 eV  175.49 nm  f=0.0010  <S**2>=0.000
      12 -> 17         0.53577
      12 -> 18        -0.21444
      12 -> 19         0.19689
      12 -> 20        -0.18207
      12 -> 22        -0.10178
      12 -> 23         0.11200
      13 -> 18        -0.14817
      13 -> 21         0.11761

 Excited State  11:      Singlet-A      7.1414 eV  173.61 nm  f=0.0027  <S**2>=0.000
       9 -> 15        -0.20574
      10 -> 14         0.53604
      11 -> 14         0.29374
      11 -> 15        -0.21203

 Excited State  12:      Singlet-A      7.4343 eV  166.77 nm  f=0.0005  <S**2>=0.000
       9 -> 14         0.35819
       9 -> 15         0.10391
      10 -> 14        -0.27523
      10 -> 15        -0.21245
      11 -> 14         0.36712
      11 -> 15        -0.26932
      13 -> 21        -0.10215

 Excited State  13:      Singlet-A      7.5319 eV  164.61 nm  f=0.0007  <S**2>=0.000
      11 -> 15         0.13429
      12 -> 17        -0.15505
      12 -> 18        -0.10884
      12 -> 19         0.34818
      12 -> 20         0.18664
      12 -> 21         0.12639
      12 -> 23        -0.12123
      12 -> 24         0.11007
      13 -> 19        -0.31757
      13 -> 20        -0.16857
      13 -> 22        -0.19640
      13 -> 24        -0.17901

 Excited State  14:      Singlet-A      7.7054 eV  160.91 nm  f=0.0002  <S**2>=0.000
      10 -> 14        -0.11545
      12 -> 17         0.11287
      12 -> 18         0.38382
      12 -> 20        -0.17004
      12 -> 21         0.17397
      13 -> 18         0.26423
      13 -> 20        -0.25334
      13 -> 24        -0.21236

 Excited State  15:      Singlet-A      7.7785 eV  159.39 nm  f=0.0007  <S**2>=0.000
      11 -> 14         0.13738
      12 -> 18         0.19358
      12 -> 19        -0.21144
      12 -> 20         0.12578
      13 -> 18        -0.17162
      13 -> 19        -0.10079
      13 -> 21         0.51741
      13 -> 22        -0.12129

 The electronic state is 1-A.
 Alpha  occ. eigenvalues --   -1.56450  -1.23981  -1.11349  -0.83222  -0.81838
 Alpha  occ. eigenvalues --   -0.69157  -0.59996  -0.57020  -0.51753  -0.50578
 Alpha  occ. eigenvalues --   -0.50227  -0.39648  -0.35127
 Alpha virt. eigenvalues --    0.02915   0.06128   0.09863   0.14047   0.15218
 Alpha virt. eigenvalues --    0.15559   0.18196   0.19061   0.19092   0.20842
 Alpha virt. eigenvalues --    0.22128

 Mulliken charges:
               1
     1  C   -0.203065
     2  C   -0.077252
     3  O   -0.101723
     4  C   -0.101907
     5  C   -0.186796
     6  H    0.149574
     7  H    0.188479
     8  H    0.177105
     9  H    0.155585
 Sum of Mulliken charges =   0.00000

 Dipole moment (field-independent basis, Debye):
    X=             -0.0100    Y=              0.3252    Z=              0.0661  Tot=              0.3320
 N-N= 1.037526412698D+02 E-N=-1.714414152434D+02  KE=-1.661240903045D+01
 Orbital energies and kinetic energies (alpha):
                                 1                 2
   1         O                -1.564503         -1.316378
   2         O                -1.239807         -1.051295
   3         O                -1.113495         -0.972749
   4         O                -0.832223         -0.714970
   5         O                -0.818383         -0.727717
   6         O                -0.691573         -0.607134
   7         O                -0.599958         -0.485957

 Normal termination of Gaussian 09 at Tue Dec 15 16:27:22 2015.
