 Gaussian 09, Revision D.01,
 Gaussian 09:  ES64L-G09RevD.01 24-Apr-2013

 ------------------------------------------------------------
 #P AM1(Input,print) CIS(Singlets,NStates=15) pop(full) force
 ------------------------------------------------------------

 -----------------
 AM1-Reparam Input
 -----------------
 Symbolic Z-matrix:
 Charge =  0 Multiplicity = 1

                         Standard orientation:
 ---------------------------------------------------------------------
 Center     Atomic      Atomic             Coordinates (Angstroms)
 Number     Number       Type             X           Y           Z
 ---------------------------------------------------------------------
      1          6           0       -0.948388    0.813173   -0.020257
      2          6           0       -0.985423   -0.618480   -0.014085
      3          8           0        0.261296   -1.072863    0.015507
      4          6           0        1.185691   -0.120481   -0.012115
      5          6           0        0.485941    1.046557    0.028516
      6          1           0        0.912059    2.022266   -0.028832
      7          1           0        2.133718   -0.338212   -0.046274
      8          1           0       -1.858493   -1.254421    0.018396
      9          1           0       -1.704583    1.428654    0.040298
 ---------------------------------------------------------------------

 SCF Done:  E(RAM1) =   2.51421708715     A.U. after   13 cycles

 Excitation energies and oscillator strengths:

 Excited State   1:      Singlet-A      5.3311 eV  232.57 nm  f=0.3620  <S**2>=0.000
      13 -> 14         0.69550
 This state for optimization and/or second-order correction.
 Total Energy, E(CIS) =   2.71013299735
 Copying the excited state density for this state as the 1-particle RhoCI density.

 Excited State   2:      Singlet-A      6.5343 eV  189.74 nm  f=0.0038  <S**2>=0.000
       9 -> 14         0.12326
      12 -> 14         0.59685
      13 -> 15        -0.32493
      13 -> 17         0.10165

 Excited State   3:      Singlet-A      6.6033 eV  187.76 nm  f=0.0065  <S**2>=0.000
      12 -> 14         0.34074
      13 -> 15         0.57445
      13 -> 17        -0.17722

 Excited State   4:      Singlet-A      7.0426 eV  176.05 nm  f=0.0025  <S**2>=0.000
      13 -> 16         0.64940
      13 -> 18        -0.13806
      13 -> 19         0.18447

 Excited State   5:      Singlet-A      7.8212 eV  158.52 nm  f=0.0002  <S**2>=0.000
      11 -> 15         0.10349
      13 -> 15        -0.12452
      13 -> 16         0.12118
      13 -> 17        -0.43195
      13 -> 18         0.44867
      13 -> 20        -0.21016
      13 -> 21        -0.10447

 Excited State   6:      Singlet-A      7.9959 eV  155.06 nm  f=0.0037  <S**2>=0.000
       9 -> 14         0.17604
      10 -> 14         0.67319

 Excited State   7:      Singlet-A      8.5529 eV  144.96 nm  f=0.1167  <S**2>=0.000
      11 -> 14         0.69351

 Excited State   8:      Singlet-A      8.9020 eV  139.28 nm  f=0.0086  <S**2>=0.000
      11 -> 15        -0.11522
      11 -> 16         0.15273
      13 -> 15         0.12693
      13 -> 17         0.47286
      13 -> 18         0.42155
      13 -> 20        -0.16375

 Excited State   9:      Singlet-A      9.2074 eV  134.66 nm  f=0.0022  <S**2>=0.000
       9 -> 14         0.33954
      11 -> 15        -0.15325
      13 -> 16        -0.12677
      13 -> 19         0.53053
      13 -> 20         0.13701

 Excited State  10:      Singlet-A      9.3361 eV  132.80 nm  f=0.0027  <S**2>=0.000
       9 -> 14         0.55284
      10 -> 14        -0.14263
      11 -> 15         0.11601
      12 -> 14        -0.13843
      13 -> 18        -0.10323
      13 -> 19        -0.29252
      13 -> 20        -0.14243
      13 -> 21        -0.10012

 Excited State  11:      Singlet-A      9.4079 eV  131.79 nm  f=0.0261  <S**2>=0.000
       9 -> 16        -0.18171
      10 -> 15        -0.16182
      10 -> 16        -0.14194
      10 -> 17         0.10346
      10 -> 18         0.11378
      12 -> 15         0.46919
      12 -> 16         0.12052
      12 -> 17        -0.28531
      12 -> 18         0.14840

 Excited State  12:      Singlet-A      9.6689 eV  128.23 nm  f=0.0926  <S**2>=0.000
      10 -> 15         0.16472
      12 -> 16         0.59450
      12 -> 17         0.10443
      12 -> 18        -0.18733

 Excited State  13:      Singlet-A      9.7707 eV  126.89 nm  f=0.0048  <S**2>=0.000
       9 -> 14         0.10236
      13 -> 18         0.24941
      13 -> 19        -0.21418
      13 -> 20         0.53373
      13 -> 21         0.27048

 Excited State  14:      Singlet-A      9.9104 eV  125.11 nm  f=0.1197  <S**2>=0.000
      10 -> 15         0.35197
      10 -> 17        -0.10331
      12 -> 15         0.42637
      12 -> 16        -0.25188
      12 -> 17         0.12949
      12 -> 18        -0.19737
      12 -> 19        -0.15417

 Excited State  15:      Singlet-A     10.0785 eV  123.02 nm  f=0.0010  <S**2>=0.000
      10 -> 15        -0.12958
      11 -> 15         0.58009
      12 -> 17         0.10912
      13 -> 15         0.11728
      13 -> 16        -0.12176
      13 -> 19         0.16084

 The electronic state is 1-A.
 Alpha  occ. eigenvalues --   -1.75956  -1.15248  -0.97961  -0.82509  -0.77132
 Alpha  occ. eigenvalues --   -0.68843  -0.65621  -0.58435  -0.50239  -0.46907
 Alpha  occ. eigenvalues --   -0.45314  -0.41906  -0.31284
 Alpha virt. eigenvalues --    0.08621   0.16993   0.18810   0.23940   0.26255
 Alpha virt. eigenvalues --    0.26870   0.29294   0.30284   0.41837   0.49774
 Alpha virt. eigenvalues --    0.56601

 Mulliken charges:
               1
     1  C   -0.044613
     2  C   -2.003070
     3  O    3.248793
     4  C   -1.942025
     5  C   -0.075767
     6  H    0.134298
     7  H    0.267325
     8  H    0.290240
     9  H    0.124819
 Sum of Mulliken charges =   0.00000

 Dipole moment (field-independent basis, Debye):
    X=              1.9008    Y=             -8.7156    Z=              0.3891  Tot=              8.9290
 N-N= 1.041606944675D+02 E-N=-1.690561617404D+02  KE=-1.508972115605D+01
 Orbital energies and kinetic energies (alpha):
                                 1                 2
   1         O                -1.759563         -1.266993
   2         O                -1.152478         -0.999173
   3         O                -0.979608         -0.869312
   4         O                -0.825089         -0.626048
   5         O                -0.771317         -0.703011
   6         O                -0.688428         -0.579631
   7         O                -0.656209         -0.517448

 Normal termination of Gaussian 09 at Tue Dec 15 17:06:18 2015.
