 Gaussian 09, Revision D.01,
 Gaussian 09:  ES64L-G09RevD.01 24-Apr-2013

 ----------------------------
 #P AM1(Input,print) Opt Freq
 ----------------------------

 -----------------
 AM1-Reparam Input
 -----------------
 Symbolic Z-matrix:
 Charge =  0 Multiplicity = 1

 SCF Done:  E(RAM1) =   1.80512734845     A.U. after   13 cycles
 SCF Done:  E(RAM1) =   1.75763667823     A.U. after   11 cycles
 SCF Done:  E(RAM1) =   1.75282999231     A.U. after   11 cycles
 SCF Done:  E(RAM1) =   1.75293426034     A.U. after   11 cycles
 SCF Done:  E(RAM1) =   1.75222597963     A.U. after    8 cycles
 SCF Done:  E(RAM1) =   1.75206820502     A.U. after   10 cycles
 SCF Done:  E(RAM1) =   1.75204412296     A.U. after   10 cycles
 SCF Done:  E(RAM1) =   1.75202982994     A.U. after   10 cycles
 SCF Done:  E(RAM1) =   1.75201863933     A.U. after    9 cycles
 Optimization completed.
    -- Stationary point found.
 Normal termination of Gaussian 09 at Tue Dec  1 17:37:43 2015.

 -------------------------------------------------------------
 #P Geom=AllCheck Guess=TCheck SCRF=Check GenChk RAM1/ZDO Freq
 -------------------------------------------------------------

 Structure from the checkpoint file:  "/home/Applications/g09/scratch/Gau-23875.chk"
 -----------------
 AM1-Reparam Input
 -----------------
 Charge =  0 Multiplicity = 1

                         Standard orientation:
 ---------------------------------------------------------------------
 Center     Atomic      Atomic             Coordinates (Angstroms)
 Number     Number       Type             X           Y           Z
 ---------------------------------------------------------------------
      1          6           0       -0.679375    0.911174   -0.000021
      2          6           0       -1.080030   -0.324143   -0.000057
      3          8           0       -0.000519   -1.141073    0.000045
      4          6           0        1.079782   -0.325020    0.000033
      5          6           0        0.680194    0.910732    0.000051
      6          1           0        1.304001    1.794875   -0.000230
      7          1           0        2.056809   -0.750115   -0.000259
      8          1           0       -2.057319   -0.748260   -0.000101
      9          1           0       -1.302769    1.795633    0.000192
 ---------------------------------------------------------------------

 SCF Done:  E(RAM1) =   1.75201863933     A.U. after    2 cycles

 The electronic state is 1-A.
 Alpha  occ. eigenvalues --   -1.58332  -1.12502  -0.93847  -0.86505  -0.81482
 Alpha  occ. eigenvalues --   -0.73504  -0.71371  -0.58535  -0.56181  -0.53706
 Alpha  occ. eigenvalues --   -0.51304  -0.48210  -0.40834
 Alpha virt. eigenvalues --    0.02919   0.07858   0.12700   0.13966   0.19244
 Alpha virt. eigenvalues --    0.20924   0.21526   0.39831   0.49350   0.60333
 Alpha virt. eigenvalues --    0.69780

 Mulliken charges:
               1
     1  C   -0.098912
     2  C    0.356073
     3  O   -0.287434
     4  C    0.356013
     5  C   -0.098852
     6  H   -0.023022
     7  H   -0.090419
     8  H   -0.090460
     9  H   -0.022986
 Sum of Mulliken charges =   0.00000

 Dipole moment (field-independent basis, Debye):
    X=              0.0000    Y=              0.4412    Z=              0.0000  Tot=              0.4412
 N-N= 1.049808086513D+02 E-N=-1.735458772200D+02  KE=-1.318544042118D+01
  Exact polarizability:  35.603  -0.001  36.508  -0.001   0.000   6.386
 Approx polarizability:  28.074   0.001  33.539   0.000   0.000   5.004
 Leave Link  601 at Tue Dec  1 17:37:43 2015, MaxMem=    33554432 cpu:         0.0
 (Enter /home/Applications/g09/g09/l701.exe)
 Compute integral second derivatives.
 ... and contract with generalized density number  0.
 Leave Link  701 at Tue Dec  1 17:37:44 2015, MaxMem=    33554432 cpu:         0.0
 (Enter /home/Applications/g09/g09/l702.exe)
 L702 exits ... SP integral derivatives will be done elsewhere.

                      1                      2                      3
                      A                      A                      A
 Frequencies --    649.4613               657.4204               773.5678
 Red. masses --      2.1602                 1.7732                 7.1205
 Frc consts  --      0.5368                 0.4515                 2.5105
 IR Inten    --      3.4121                 0.0008                 4.2971

                      4                      5                      6
                      A                      A                      A
 Frequencies --    837.9680               992.2229              1131.0858
 Red. masses --      7.7040                 1.1755                 1.0454
 Frc consts  --      3.1873                 0.6819                 0.7880
 IR Inten    --      0.0067                 3.6569                 5.8367

                      7                      8                      9
                      A                      A                      A
 Frequencies --   1132.3520              1155.4014              1171.2038
 Red. masses --      1.2948                 1.0973                 1.8058
 Frc consts  --      0.9782                 0.8630                 1.4595
 IR Inten    --      0.0005                 9.8547                33.0887

                     10                     11                     12
                      A                      A                      A
 Frequencies --   1183.7068              1250.9084              1340.3226
 Red. masses --      1.9281                 1.0811                 1.1695
 Frc consts  --      1.5917                 0.9967                 1.2379
 IR Inten    --      0.0033                 0.7423                 2.8345

                     13                     14                     15
                      A                      A                      A
 Frequencies --   1558.6376              1641.5660              1771.7090
 Red. masses --      7.9950                10.2133                 6.8518
 Frc consts  --     11.4435                16.2156                12.6718
 IR Inten    --     30.8049                 2.6615                36.6193

                     16                     17                     18
                      A                      A                      A
 Frequencies --   1945.7051              2016.5364              3275.6959
 Red. masses --      9.5573                 8.4770                 1.0779
 Frc consts  --     21.3178                20.3097                 6.8148
 IR Inten    --     52.4452                 2.2110                84.7266

                     19                     20                     21
                      A                      A                      A
 Frequencies --   3292.5333              3387.3722              3389.3270
 Red. masses --      1.0859                 1.0791                 1.0813
 Frc consts  --      6.9360                 7.2951                 7.3186
 IR Inten    --    146.5646                55.6465                11.1691

 - Thermochemistry -
 -------------------
 Temperature   298.150 Kelvin.  Pressure   1.00000 Atm.
 Atom     1 has atomic number  6 and mass  12.00000

 Molecular mass:    68.02621 amu.
 Principal axes and moments of inertia in atomic units:
                           1         2         3
     Eigenvalues --   181.53622 182.24141 363.77763
           X            0.99994  -0.01098  -0.00002
           Y            0.01098   0.99994   0.00000
           Z            0.00002   0.00000   1.00000
 This molecule is an asymmetric top.
 Rotational symmetry number  1.
 Rotational temperatures (Kelvin)      0.47712     0.47527     0.23810
 Rotational constants (GHZ):           9.94149     9.90302     4.96111
 Zero-point vibrational energy     206683.0 (Joules/Mol)
                                   49.39843 (Kcal/Mol)
 Vibrational temperatures:    934.43   945.88  1112.99  1205.65  1427.59
          (Kelvin)           1627.38  1629.20  1662.36  1685.10  1703.09
                             1799.78  1928.42  2242.53  2361.84  2549.09
                             2799.43  2901.34  4712.99  4737.22  4873.67
                             4876.48

 Zero-point correction=                           0.078721 (Hartree/Particle)
 Thermal correction to Energy=                    0.082145
 Thermal correction to Enthalpy=                  0.083090
 Thermal correction to Gibbs Free Energy=         0.052616
 Sum of electronic and zero-point Energies=              1.830740
 Sum of electronic and thermal Energies=                 1.834164
 Sum of electronic and thermal Enthalpies=               1.835108
 Sum of electronic and thermal Free Energies=            1.804634

                     E (Thermal)             CV                S
                      KCal/Mol        Cal/Mol-Kelvin    Cal/Mol-Kelvin
 Total                   51.547             11.122             64.138
 Electronic               0.000              0.000              0.000
 Translational            0.889              2.981             38.570
 Rotational               0.889              2.981             24.002
 Vibrational             49.770              5.161              1.567

 Optimization completed.
    -- Stationary point found.
 Normal termination of Gaussian 09 at Tue Dec  1 17:37:44 2015.
