 Gaussian 09, Revision D.01,
 Gaussian 09:  ES64L-G09RevD.01 24-Apr-2013

 ------------------------------------------------------------
 #P AM1(Input,print) CIS(Singlets,NStates=15) pop(full) force
 ------------------------------------------------------------

 -----------------
 AM1-Reparam Input
 -----------------
 Symbolic Z-matrix:
 Charge =  0 Multiplicity = 1

                         Standard orientation:
 ---------------------------------------------------------------------
 Center     Atomic      Atomic             Coordinates (Angstroms)
 Number     Number       Type             X           Y           Z
 ---------------------------------------------------------------------
      1          6           0        0.956267    0.768817   -0.033050
      2          6           0       -0.446032    1.036165    0.027912
      3          8           0       -1.161625   -0.059223   -0.012288
      4          6           0       -0.315899   -1.090225   -0.000004
      5          6           0        1.029584   -0.673188   -0.002364
      6          1           0        1.929279   -1.218888    0.064128
      7          1           0       -0.770907   -2.058547    0.023451
      8          1           0       -0.921401    2.023070    0.013819
      9          1           0        1.712513    1.478739    0.041936
 ---------------------------------------------------------------------

 SCF Done:  E(RAM1) =   1.69317707757     A.U. after   13 cycles

 Excitation energies and oscillator strengths:

 Excited State   1:      Singlet-A      5.6121 eV  220.92 nm  f=0.3779  <S**2>=0.000
      13 -> 14         0.69401
 This state for optimization and/or second-order correction.
 Total Energy, E(CIS) =   1.89941893702
 Copying the excited state density for this state as the 1-particle RhoCI density.

 Excited State   2:      Singlet-A      7.1260 eV  173.99 nm  f=0.0034  <S**2>=0.000
      12 -> 14         0.69954

 Excited State   3:      Singlet-A      7.3692 eV  168.25 nm  f=0.0056  <S**2>=0.000
      13 -> 15         0.66491
      13 -> 17         0.18708

 Excited State   4:      Singlet-A      7.6192 eV  162.72 nm  f=0.0022  <S**2>=0.000
      13 -> 16         0.65858
      13 -> 18         0.19354

 Excited State   5:      Singlet-A      8.0375 eV  154.26 nm  f=0.0062  <S**2>=0.000
      10 -> 14         0.34061
      11 -> 14         0.61252

 Excited State   6:      Singlet-A      9.1148 eV  136.03 nm  f=0.0170  <S**2>=0.000
      10 -> 14        -0.23074
      11 -> 14         0.13826
      13 -> 16        -0.11694
      13 -> 17        -0.25307
      13 -> 18         0.49018
      13 -> 21         0.25882

 Excited State   7:      Singlet-A      9.1439 eV  135.59 nm  f=0.1041  <S**2>=0.000
      10 -> 14         0.56028
      11 -> 14        -0.30801
      13 -> 18         0.21912
      13 -> 21         0.10983

 Excited State   8:      Singlet-A      9.5779 eV  129.45 nm  f=0.0173  <S**2>=0.000
      10 -> 16        -0.11115
      13 -> 15        -0.11674
      13 -> 17         0.59685
      13 -> 18         0.27541

 Excited State   9:      Singlet-A     10.0386 eV  123.51 nm  f=0.0212  <S**2>=0.000
       8 -> 15        -0.10263
       9 -> 15         0.10740
      10 -> 15        -0.10461
      10 -> 17        -0.11961
      11 -> 15        -0.22786
      11 -> 16        -0.14788
      11 -> 17        -0.16491
      12 -> 15        -0.28373
      12 -> 16         0.28975
      12 -> 17        -0.12478
      12 -> 18         0.27413
      13 -> 19         0.11894

 Excited State  10:      Singlet-A     10.0914 eV  122.86 nm  f=0.0031  <S**2>=0.000
      13 -> 19         0.65944

 Excited State  11:      Singlet-A     10.5904 eV  117.07 nm  f=0.0426  <S**2>=0.000
      10 -> 15        -0.11300
      11 -> 15        -0.31601
      11 -> 17        -0.10695
      12 -> 15         0.53332
      12 -> 16         0.16402
      12 -> 17         0.14725

 Excited State  12:      Singlet-A     10.7094 eV  115.77 nm  f=0.1413  <S**2>=0.000
      11 -> 15         0.36344
      11 -> 16         0.15893
      11 -> 17         0.10916
      12 -> 16         0.50062

 Excited State  13:      Singlet-A     10.8123 eV  114.67 nm  f=0.0078  <S**2>=0.000
       9 -> 14        -0.10065
      10 -> 15        -0.15503
      13 -> 17         0.10026
      13 -> 18        -0.25612
      13 -> 19        -0.10088
      13 -> 21         0.58420

 Excited State  14:      Singlet-A     10.8572 eV  114.20 nm  f=0.0744  <S**2>=0.000
       8 -> 14         0.14843
       9 -> 14        -0.10571
      10 -> 15         0.19052
      11 -> 16         0.11623
      13 -> 20         0.61198
      13 -> 21         0.14057

 Excited State  15:      Singlet-A     10.9526 eV  113.20 nm  f=0.0426  <S**2>=0.000
      10 -> 15         0.50396
      10 -> 16         0.17064
      11 -> 15        -0.18729
      12 -> 16         0.16610
      13 -> 15         0.11473
      13 -> 20        -0.19413
      13 -> 21         0.18462

 The electronic state is 1-A.
 Alpha  occ. eigenvalues --   -1.91380  -1.16068  -0.90962  -0.82576  -0.77776
 Alpha  occ. eigenvalues --   -0.70324  -0.67561  -0.56497  -0.55143  -0.46882
 Alpha  occ. eigenvalues --   -0.46156  -0.43389  -0.32056
 Alpha virt. eigenvalues --    0.09560   0.18101   0.18956   0.26764   0.27754
 Alpha virt. eigenvalues --    0.29845   0.31775   0.34194   0.36926   0.45340
 Alpha virt. eigenvalues --    0.49471

 Mulliken charges:
               1
     1  C   -0.163337
     2  C   -2.069647
     3  O    3.290210
     4  C   -2.036405
     5  C   -0.115332
     6  H    0.203568
     7  H    0.332077
     8  H    0.352924
     9  H    0.205941
 Sum of Mulliken charges =   0.00000

 Dipole moment (field-independent basis, Debye):
    X=             -9.9692    Y=             -0.3061    Z=             -0.2210  Tot=              9.9764
 N-N= 1.037110023217D+02 E-N=-1.690219523155D+02  KE=-1.547832173946D+01
 Orbital energies and kinetic energies (alpha):
                                 1                 2
   1         O                -1.913798         -1.392900
   2         O                -1.160683         -1.046322
   3         O                -0.909617         -0.860675
   4         O                -0.825757         -0.584861
   5         O                -0.777755         -0.688424
   6         O                -0.703239         -0.606190
   7         O                -0.675614         -0.527489

 Normal termination of Gaussian 09 at Tue Dec 15 17:09:32 2015.
