 Gaussian 09, Revision D.01,
 Gaussian 09:  ES64L-G09RevD.01 24-Apr-2013

 ------------------------------------------------------------
 #P AM1(Input,print) CIS(Singlets,NStates=15) pop(full) force
 ------------------------------------------------------------

 -----------------
 AM1-Reparam Input
 -----------------
 Symbolic Z-matrix:
 Charge =  0 Multiplicity = 1

                         Standard orientation:
 ---------------------------------------------------------------------
 Center     Atomic      Atomic             Coordinates (Angstroms)
 Number     Number       Type             X           Y           Z
 ---------------------------------------------------------------------
      1          6           0       -0.970438    0.756641   -0.000216
      2          6           0       -0.964119   -0.659446    0.018662
      3          8           0        0.356775   -1.098251   -0.032885
      4          6           0        1.120594   -0.024233    0.048534
      5          6           0        0.427731    1.087000   -0.030332
      6          1           0        0.845592    2.120693   -0.014245
      7          1           0        2.155566   -0.269430    0.017029
      8          1           0       -1.711403   -1.383731    0.010699
      9          1           0       -1.826562    1.358707    0.029712
 ---------------------------------------------------------------------

 SCF Done:  E(RAM1) =   2.05329714260     A.U. after   13 cycles

 Excitation energies and oscillator strengths:

 Excited State   1:      Singlet-A      5.3615 eV  231.25 nm  f=0.3447  <S**2>=0.000
      13 -> 14         0.69492
 This state for optimization and/or second-order correction.
 Total Energy, E(CIS) =   2.25032886295
 Copying the excited state density for this state as the 1-particle RhoCI density.

 Excited State   2:      Singlet-A      6.6445 eV  186.60 nm  f=0.0061  <S**2>=0.000
      13 -> 15         0.64908
      13 -> 17         0.19514
      13 -> 18        -0.12073

 Excited State   3:      Singlet-A      6.7962 eV  182.43 nm  f=0.0003  <S**2>=0.000
      12 -> 14         0.69192

 Excited State   4:      Singlet-A      7.0389 eV  176.14 nm  f=0.0087  <S**2>=0.000
      13 -> 16         0.64023
      13 -> 18         0.25402

 Excited State   5:      Singlet-A      7.7562 eV  159.85 nm  f=0.0070  <S**2>=0.000
      10 -> 14         0.66601
      11 -> 14        -0.20333

 Excited State   6:      Singlet-A      8.0202 eV  154.59 nm  f=0.0025  <S**2>=0.000
      13 -> 15         0.11228
      13 -> 16        -0.17974
      13 -> 18         0.37296
      13 -> 19         0.44056
      13 -> 20        -0.31121

 Excited State   7:      Singlet-A      8.5461 eV  145.08 nm  f=0.0135  <S**2>=0.000
      13 -> 15        -0.18039
      13 -> 17         0.62476
      13 -> 18        -0.10006
      13 -> 19         0.20404

 Excited State   8:      Singlet-A      8.6548 eV  143.26 nm  f=0.1174  <S**2>=0.000
      10 -> 14         0.20035
      11 -> 14         0.66169

 Excited State   9:      Singlet-A      9.2400 eV  134.18 nm  f=0.0038  <S**2>=0.000
      11 -> 16         0.19942
      13 -> 16        -0.14483
      13 -> 17         0.18598
      13 -> 18         0.45287
      13 -> 19        -0.40014
      13 -> 20         0.11163

 Excited State  10:      Singlet-A      9.5392 eV  129.97 nm  f=0.0296  <S**2>=0.000
      10 -> 15        -0.15941
      10 -> 16        -0.10849
      10 -> 17        -0.14476
      12 -> 15        -0.15825
      12 -> 16         0.24533
      12 -> 18         0.22587
      12 -> 19         0.17020
      13 -> 18         0.10672
      13 -> 19         0.21602
      13 -> 20         0.39324

 Excited State  11:      Singlet-A      9.6042 eV  129.09 nm  f=0.0264  <S**2>=0.000
      10 -> 15         0.13295
      10 -> 17         0.12678
      12 -> 15         0.17045
      12 -> 16        -0.20550
      12 -> 18        -0.20075
      12 -> 19        -0.14395
      13 -> 18         0.15266
      13 -> 19         0.18800
      13 -> 20         0.44854
      13 -> 21         0.11008

 Excited State  12:      Singlet-A      9.7305 eV  127.42 nm  f=0.1146  <S**2>=0.000
      10 -> 15        -0.18010
      12 -> 15         0.59186
      12 -> 16         0.10869
      12 -> 17         0.22298

 Excited State  13:      Singlet-A     10.0357 eV  123.54 nm  f=0.0609  <S**2>=0.000
      13 -> 20        -0.10393
      13 -> 21         0.67687

 Excited State  14:      Singlet-A     10.2018 eV  121.53 nm  f=0.0027  <S**2>=0.000
       7 -> 15        -0.12188
      10 -> 15         0.10356
      11 -> 15         0.57862
      11 -> 16         0.23262
      11 -> 17         0.12192
      12 -> 16        -0.10021
      13 -> 15        -0.12172

 Excited State  15:      Singlet-A     10.4841 eV  118.26 nm  f=0.1393  <S**2>=0.000
      10 -> 15         0.13336
      10 -> 16         0.40550
      10 -> 18         0.12988
      11 -> 15         0.11796
      11 -> 16        -0.21136
      12 -> 16         0.40774
      12 -> 19        -0.17236

 The electronic state is 1-A.
 Alpha  occ. eigenvalues --   -1.94768  -1.19754  -0.96517  -0.82569  -0.78774
 Alpha  occ. eigenvalues --   -0.69090  -0.65410  -0.55019  -0.54090  -0.44439
 Alpha  occ. eigenvalues --   -0.43965  -0.41427  -0.29690
 Alpha virt. eigenvalues --    0.10644   0.17768   0.20989   0.25625   0.27191
 Alpha virt. eigenvalues --    0.28664   0.29973   0.31003   0.35822   0.44634
 Alpha virt. eigenvalues --    0.49037

 Mulliken charges:
               1
     1  C   -0.171029
     2  C   -2.021778
     3  O    3.181885
     4  C   -1.980840
     5  C   -0.241820
     6  H    0.262574
     7  H    0.363287
     8  H    0.357050
     9  H    0.250671
 Sum of Mulliken charges =   0.00000

 Dipole moment (field-independent basis, Debye):
    X=              3.8271    Y=             -9.4298    Z=             -0.9218  Tot=             10.2185
 N-N= 1.044740783009D+02 E-N=-1.698214354307D+02  KE=-1.550986831921D+01
 Orbital energies and kinetic energies (alpha):
                                 1                 2
   1         O                -1.947682         -1.394904
   2         O                -1.197540         -1.062806
   3         O                -0.965174         -0.865182
   4         O                -0.825692         -0.611672
   5         O                -0.787739         -0.679374
   6         O                -0.690899         -0.568468
   7         O                -0.654102         -0.520268

 Normal termination of Gaussian 09 at Tue Dec 15 17:07:15 2015.
