 Gaussian 09, Revision D.01,
 Gaussian 09:  ES64L-G09RevD.01 24-Apr-2013

 ------------------------------------------------------------
 #P AM1(Input,print) CIS(Singlets,NStates=15) pop(full) force
 ------------------------------------------------------------

 -----------------
 AM1-Reparam Input
 -----------------
 Symbolic Z-matrix:
 Charge =  0 Multiplicity = 1

                         Standard orientation:
 ---------------------------------------------------------------------
 Center     Atomic      Atomic             Coordinates (Angstroms)
 Number     Number       Type             X           Y           Z
 ---------------------------------------------------------------------
      1          6           0        0.284427    1.155142   -0.014745
      2          6           0       -1.009958    0.597668   -0.004234
      3          8           0       -0.898506   -0.785851    0.003526
      4          6           0        0.448782   -1.041636    0.009463
      5          6           0        1.206793    0.132270   -0.010155
      6          1           0        2.319277    0.109767    0.026051
      7          1           0        0.757952   -2.073515   -0.015654
      8          1           0       -1.915603    0.955824    0.004693
      9          1           0        0.446161    2.234072    0.074725
 ---------------------------------------------------------------------

 SCF Done:  E(RAM1) =   2.09685763866     A.U. after   13 cycles

 Excitation energies and oscillator strengths:

 Excited State   1:      Singlet-A      5.8626 eV  211.48 nm  f=0.3147  <S**2>=0.000
      13 -> 14         0.68995
 This state for optimization and/or second-order correction.
 Total Energy, E(CIS) =   2.31230482056
 Copying the excited state density for this state as the 1-particle RhoCI density.

 Excited State   2:      Singlet-A      6.8551 eV  180.86 nm  f=0.0038  <S**2>=0.000
      11 -> 15         0.11105
      13 -> 15         0.65297
      13 -> 16         0.13806
      13 -> 17        -0.15017

 Excited State   3:      Singlet-A      7.3693 eV  168.24 nm  f=0.0020  <S**2>=0.000
      11 -> 16        -0.10072
      13 -> 15        -0.12951
      13 -> 16         0.64844
      13 -> 19        -0.14849

 Excited State   4:      Singlet-A      7.6271 eV  162.56 nm  f=0.0028  <S**2>=0.000
      11 -> 14         0.13310
      12 -> 14         0.68392

 Excited State   5:      Singlet-A      8.0656 eV  153.72 nm  f=0.0046  <S**2>=0.000
      10 -> 14         0.61046
      11 -> 14         0.32684

 Excited State   6:      Singlet-A      8.6823 eV  142.80 nm  f=0.0054  <S**2>=0.000
      11 -> 15         0.12910
      13 -> 15         0.10096
      13 -> 17         0.49461
      13 -> 18        -0.33401
      13 -> 19        -0.12408
      13 -> 22         0.27963

 Excited State   7:      Singlet-A      8.8625 eV  139.90 nm  f=0.0025  <S**2>=0.000
      11 -> 16        -0.13430
      13 -> 17         0.42982
      13 -> 18         0.42908
      13 -> 22        -0.30516

 Excited State   8:      Singlet-A      9.0046 eV  137.69 nm  f=0.0931  <S**2>=0.000
      10 -> 14        -0.33203
      11 -> 14         0.58909
      12 -> 14        -0.10943
      13 -> 21        -0.12072

 Excited State   9:      Singlet-A      9.4852 eV  130.71 nm  f=0.0007  <S**2>=0.000
      11 -> 15        -0.13182
      11 -> 16        -0.11415
      13 -> 18        -0.33233
      13 -> 19         0.51758
      13 -> 22        -0.23425

 Excited State  10:      Singlet-A      9.8011 eV  126.50 nm  f=0.0739  <S**2>=0.000
       9 -> 15         0.16136
      10 -> 15        -0.20129
      10 -> 16        -0.21516
      10 -> 17         0.21622
      11 -> 16        -0.12717
      12 -> 15         0.37468
      12 -> 17        -0.16936
      12 -> 18         0.18263
      13 -> 14        -0.10456
      13 -> 22         0.12212

 Excited State  11:      Singlet-A      9.9021 eV  125.21 nm  f=0.0082  <S**2>=0.000
      13 -> 18         0.28277
      13 -> 19         0.36117
      13 -> 22         0.48569

 Excited State  12:      Singlet-A     10.1582 eV  122.05 nm  f=0.0268  <S**2>=0.000
      10 -> 15        -0.16576
      11 -> 15         0.53376
      13 -> 15        -0.14186
      13 -> 16         0.12043
      13 -> 19         0.13891
      13 -> 20         0.30611

 Excited State  13:      Singlet-A     10.2177 eV  121.34 nm  f=0.0735  <S**2>=0.000
      10 -> 16         0.11173
      11 -> 15        -0.19835
      11 -> 16        -0.22359
      12 -> 16         0.17520
      13 -> 19        -0.13665
      13 -> 20         0.54508
      13 -> 22         0.10622

 Excited State  14:      Singlet-A     10.3967 eV  119.25 nm  f=0.1324  <S**2>=0.000
       8 -> 15        -0.10944
      10 -> 15         0.49329
      10 -> 17        -0.10489
      11 -> 15         0.21622
      12 -> 15         0.34029
      13 -> 21         0.10573

 Excited State  15:      Singlet-A     10.4445 eV  118.71 nm  f=0.1325  <S**2>=0.000
       9 -> 15        -0.16981
      10 -> 16        -0.11806
      12 -> 15        -0.10272
      12 -> 16         0.51075
      12 -> 17        -0.13400
      12 -> 19        -0.17266
      13 -> 20        -0.15461
      13 -> 21        -0.22284

 The electronic state is 1-A.
 Alpha  occ. eigenvalues --   -1.92495  -1.18810  -0.92263  -0.80151  -0.78990
 Alpha  occ. eigenvalues --   -0.69244  -0.64929  -0.54929  -0.53930  -0.43885
 Alpha  occ. eigenvalues --   -0.43375  -0.42455  -0.30471
 Alpha virt. eigenvalues --    0.12487   0.18245   0.20642   0.25503   0.27423
 Alpha virt. eigenvalues --    0.29994   0.30867   0.31203   0.32823   0.39702
 Alpha virt. eigenvalues --    0.43487

 Mulliken charges:
               1
     1  C   -0.113332
     2  C   -1.898105
     3  O    3.212917
     4  C   -1.912914
     5  C   -0.119321
     6  H    0.158020
     7  H    0.268522
     8  H    0.248269
     9  H    0.155944
 Sum of Mulliken charges =   0.00000

 Dipole moment (field-independent basis, Debye):
    X=             -7.7707    Y=             -7.5202    Z=              0.0680  Tot=             10.8139
 N-N= 1.036923299676D+02 E-N=-1.685611264034D+02  KE=-1.531127994950D+01
 Orbital energies and kinetic energies (alpha):
                                 1                 2
   1         O                -1.924953         -1.340454
   2         O                -1.188104         -1.055274
   3         O                -0.922626         -0.878872
   4         O                -0.801510         -0.593804
   5         O                -0.789900         -0.668795
   6         O                -0.692442         -0.595827
   7         O                -0.649292         -0.523982

 Normal termination of Gaussian 09 at Tue Dec 15 17:08:43 2015.
