 Gaussian 09, Revision D.01,
 Gaussian 09:  ES64L-G09RevD.01 24-Apr-2013

 ------------------------------------------------------------
 #P AM1(Input,print) CIS(Singlets,NStates=15) pop(full) force
 ------------------------------------------------------------

 -----------------
 AM1-Reparam Input
 -----------------
 Symbolic Z-matrix:
 Charge =  0 Multiplicity = 1

                         Standard orientation:
 ---------------------------------------------------------------------
 Center     Atomic      Atomic             Coordinates (Angstroms)
 Number     Number       Type             X           Y           Z
 ---------------------------------------------------------------------
      1          6           0       -1.032729    0.572104    0.000414
      2          6           0       -0.867807   -0.779098    0.021517
      3          8           0        0.523989   -1.052383   -0.018254
      4          6           0        1.173568    0.160036    0.029286
      5          6           0        0.178627    1.165936   -0.031989
      6          1           0        0.403013    2.173500    0.036660
      7          1           0        2.222840    0.172623    0.001934
      8          1           0       -1.443409   -1.672987   -0.025621
      9          1           0       -2.084308    1.032058    0.017688
 ---------------------------------------------------------------------

 SCF Done:  E(RAM1) =   1.72578558769     A.U. after   14 cycles

 Excitation energies and oscillator strengths:

 Excited State   1:      Singlet-A      5.8341 eV  212.52 nm  f=0.3110  <S**2>=0.000
      13 -> 14         0.68550
 This state for optimization and/or second-order correction.
 Total Energy, E(CIS) =   1.94018565127
 Copying the excited state density for this state as the 1-particle RhoCI density.

 Excited State   2:      Singlet-A      7.4979 eV  165.36 nm  f=0.0041  <S**2>=0.000
      11 -> 14        -0.14578
      12 -> 14         0.62960
      13 -> 15         0.25621

 Excited State   3:      Singlet-A      7.5463 eV  164.30 nm  f=0.0058  <S**2>=0.000
      11 -> 14         0.25995
      12 -> 14        -0.20502
      13 -> 15         0.58777
      13 -> 17        -0.13632

 Excited State   4:      Singlet-A      7.7586 eV  159.80 nm  f=0.0028  <S**2>=0.000
      11 -> 14         0.62367
      12 -> 14         0.22621
      13 -> 15        -0.16944
      13 -> 16         0.15131

 Excited State   5:      Singlet-A      7.8138 eV  158.67 nm  f=0.0004  <S**2>=0.000
      10 -> 15         0.13495
      11 -> 14        -0.12642
      13 -> 15         0.10866
      13 -> 16         0.64265
      13 -> 19         0.15568

 Excited State   6:      Singlet-A      9.3822 eV  132.15 nm  f=0.0027  <S**2>=0.000
      13 -> 17         0.54584
      13 -> 18        -0.35116
      13 -> 22        -0.19429

 Excited State   7:      Singlet-A      9.4890 eV  130.66 nm  f=0.0103  <S**2>=0.000
      10 -> 14        -0.10816
      10 -> 16         0.13567
      13 -> 17         0.36190
      13 -> 18         0.48955
      13 -> 19        -0.18341
      13 -> 22         0.19390

 Excited State   8:      Singlet-A      9.5077 eV  130.40 nm  f=0.0658  <S**2>=0.000
      10 -> 14         0.64917
      11 -> 15         0.11213
      12 -> 17        -0.11653
      13 -> 17         0.12227

 Excited State   9:      Singlet-A      9.9840 eV  124.18 nm  f=0.1964  <S**2>=0.000
       9 -> 16        -0.10546
      10 -> 14        -0.16102
      11 -> 15         0.33387
      11 -> 17        -0.18434
      11 -> 18        -0.21081
      12 -> 15         0.27651
      12 -> 16        -0.12316
      12 -> 17        -0.25445
      12 -> 18         0.16781
      13 -> 14         0.14118

 Excited State  10:      Singlet-A     10.1336 eV  122.35 nm  f=0.0038  <S**2>=0.000
      10 -> 15        -0.15289
      13 -> 16        -0.10733
      13 -> 18         0.23617
      13 -> 19         0.60872

 Excited State  11:      Singlet-A     10.5364 eV  117.67 nm  f=0.0366  <S**2>=0.000
      11 -> 15        -0.23063
      11 -> 16         0.18160
      11 -> 19         0.11043
      12 -> 15         0.43234
      12 -> 16         0.39274
      12 -> 17        -0.12426
      12 -> 19         0.10318

 Excited State  12:      Singlet-A     10.5926 eV  117.05 nm  f=0.1653  <S**2>=0.000
       8 -> 15         0.10013
      11 -> 15        -0.34038
      11 -> 16         0.39478
      11 -> 19         0.16808
      12 -> 16        -0.38115
      12 -> 17        -0.10109

 Excited State  13:      Singlet-A     10.9145 eV  113.60 nm  f=0.0867  <S**2>=0.000
       8 -> 16         0.10825
       9 -> 15        -0.12373
      10 -> 14        -0.13428
      11 -> 15         0.11637
      11 -> 16         0.14269
      11 -> 18         0.10899
      12 -> 15        -0.21819
      12 -> 16         0.16854
      12 -> 17        -0.14155
      12 -> 18         0.12335
      12 -> 19         0.14343
      13 -> 20         0.45365
      13 -> 21        -0.12330

 Excited State  14:      Singlet-A     10.9601 eV  113.12 nm  f=0.0541  <S**2>=0.000
      10 -> 15         0.15034
      10 -> 16        -0.13168
      12 -> 15        -0.12303
      13 -> 18        -0.16765
      13 -> 21         0.50123
      13 -> 22         0.27673

 Excited State  15:      Singlet-A     11.0818 eV  111.88 nm  f=0.0283  <S**2>=0.000
      11 -> 18        -0.17420
      12 -> 15         0.11204
      12 -> 17         0.22932
      12 -> 18        -0.14370
      12 -> 19        -0.12666
      13 -> 18        -0.12240
      13 -> 19         0.12836
      13 -> 20         0.39603
      13 -> 22         0.35374

 The electronic state is 1-A.
 Alpha  occ. eigenvalues --   -1.89545  -1.18272  -0.91360  -0.81164  -0.79223
 Alpha  occ. eigenvalues --   -0.69603  -0.66778  -0.57075  -0.55869  -0.46195
 Alpha  occ. eigenvalues --   -0.43235  -0.42317  -0.31670
 Alpha virt. eigenvalues --    0.11903   0.19769   0.20256   0.26350   0.28991
 Alpha virt. eigenvalues --    0.30311   0.31820   0.32961   0.36265   0.40588
 Alpha virt. eigenvalues --    0.44121

 Mulliken charges:
               1
     1  C   -0.110407
     2  C   -2.009965
     3  O    3.308151
     4  C   -2.052010
     5  C   -0.197143
     6  H    0.212569
     7  H    0.330640
     8  H    0.310379
     9  H    0.207787
 Sum of Mulliken charges =   0.00000

 Dipole moment (field-independent basis, Debye):
    X=              4.6460    Y=             -9.9011    Z=             -0.6872  Tot=             10.9585
 N-N= 1.034511149055D+02 E-N=-1.685226523510D+02  KE=-1.548186720112D+01
 Orbital energies and kinetic energies (alpha):
                                 1                 2
   1         O                -1.895448         -1.338638
   2         O                -1.182721         -1.061881
   3         O                -0.913601         -0.884804
   4         O                -0.811644         -0.574083
   5         O                -0.792235         -0.688030
   6         O                -0.696031         -0.607944
   7         O                -0.667777         -0.540053

 Normal termination of Gaussian 09 at Tue Dec 15 17:09:46 2015.
