 Gaussian 09, Revision D.01,
 Gaussian 09:  ES64L-G09RevD.01 24-Apr-2013

 ------------------------------------------------------------
 #P AM1(Input,print) CIS(Singlets,NStates=15) pop(full) force
 ------------------------------------------------------------

 -----------------
 AM1-Reparam Input
 -----------------
 Symbolic Z-matrix:
 Charge =  0 Multiplicity = 1

                         Standard orientation:
 ---------------------------------------------------------------------
 Center     Atomic      Atomic             Coordinates (Angstroms)
 Number     Number       Type             X           Y           Z
 ---------------------------------------------------------------------
      1          6           0       -0.281351    1.148219   -0.011564
      2          6           0       -1.110725    0.093769    0.001486
      3          8           0       -0.445888   -1.085625   -0.008252
      4          6           0        0.885337   -0.704822   -0.005958
      5          6           0        1.004143    0.621537    0.018903
      6          1           0        1.947620    1.175873   -0.023501
      7          1           0        1.577096   -1.497072    0.026344
      8          1           0       -2.272191   -0.085348    0.053848
      9          1           0       -0.669843    2.139323   -0.007879
 ---------------------------------------------------------------------

 SCF Done:  E(RAM1) =   1.87960251223     A.U. after   14 cycles

 Excitation energies and oscillator strengths:

 Excited State   1:      Singlet-A      5.7681 eV  214.95 nm  f=0.2879  <S**2>=0.000
      11 -> 17         0.12672
      13 -> 14         0.68384
 This state for optimization and/or second-order correction.
 Total Energy, E(CIS) =   2.09157687161
 Copying the excited state density for this state as the 1-particle RhoCI density.

 Excited State   2:      Singlet-A      5.9803 eV  207.32 nm  f=0.0107  <S**2>=0.000
      10 -> 15        -0.13256
      13 -> 15         0.67779

 Excited State   3:      Singlet-A      6.6898 eV  185.33 nm  f=0.0016  <S**2>=0.000
      10 -> 16         0.13130
      13 -> 16         0.66665
      13 -> 17        -0.12961
      13 -> 19         0.10347

 Excited State   4:      Singlet-A      6.9932 eV  177.29 nm  f=0.0001  <S**2>=0.000
      12 -> 14         0.69662

 Excited State   5:      Singlet-A      7.6697 eV  161.66 nm  f=0.0076  <S**2>=0.000
      11 -> 14         0.67770
      13 -> 17        -0.16090

 Excited State   6:      Singlet-A      8.0082 eV  154.82 nm  f=0.0098  <S**2>=0.000
      11 -> 14         0.16961
      13 -> 17         0.64013
      13 -> 18        -0.10132
      13 -> 19         0.11607

 Excited State   7:      Singlet-A      8.3942 eV  147.70 nm  f=0.0025  <S**2>=0.000
      13 -> 17         0.13466
      13 -> 18         0.60638
      13 -> 19        -0.12969
      13 -> 22        -0.27196

 Excited State   8:      Singlet-A      8.7015 eV  142.49 nm  f=0.0567  <S**2>=0.000
       8 -> 15         0.18588
      10 -> 14         0.15972
      11 -> 17         0.10870
      12 -> 15         0.58353
      12 -> 16        -0.12086
      12 -> 18         0.11885

 Excited State   9:      Singlet-A      8.9604 eV  138.37 nm  f=0.0137  <S**2>=0.000
       8 -> 16        -0.12060
       9 -> 15        -0.11524
      10 -> 14         0.38091
      11 -> 15         0.32395
      11 -> 16         0.13516
      11 -> 17        -0.23390
      12 -> 16         0.24802
      12 -> 18        -0.19254

 Excited State  10:      Singlet-A      8.9719 eV  138.19 nm  f=0.0000  <S**2>=0.000
      13 -> 18         0.19854
      13 -> 19         0.65161

 Excited State  11:      Singlet-A      9.0940 eV  136.34 nm  f=0.0447  <S**2>=0.000
       9 -> 15         0.17265
      10 -> 14         0.42913
      11 -> 15        -0.42250
      11 -> 17         0.10913
      12 -> 15        -0.13235
      12 -> 17         0.14362

 Excited State  12:      Singlet-A      9.4162 eV  131.67 nm  f=0.0045  <S**2>=0.000
       6 -> 15         0.10100
      10 -> 15         0.65207
      13 -> 15         0.15317

 Excited State  13:      Singlet-A      9.5628 eV  129.65 nm  f=0.1968  <S**2>=0.000
       9 -> 16        -0.14391
      11 -> 15         0.11209
      11 -> 16        -0.37254
      11 -> 17         0.17423
      11 -> 19        -0.14895
      12 -> 16         0.39803
      12 -> 17        -0.20896
      12 -> 18         0.16641

 Excited State  14:      Singlet-A      9.6819 eV  128.06 nm  f=0.1317  <S**2>=0.000
       8 -> 15         0.12185
       8 -> 16        -0.10649
       9 -> 15         0.10177
      10 -> 14        -0.33127
      11 -> 15        -0.20260
      11 -> 19         0.11698
      12 -> 15         0.21900
      12 -> 16         0.41075
      12 -> 18        -0.17341

 Excited State  15:      Singlet-A      9.9156 eV  125.04 nm  f=0.0014  <S**2>=0.000
      10 -> 15         0.11529
      10 -> 16        -0.13702
      13 -> 18         0.26088
      13 -> 22         0.60985

 The electronic state is 1-A.
 Alpha  occ. eigenvalues --   -1.94232  -1.23284  -0.97520  -0.80869  -0.80125
 Alpha  occ. eigenvalues --   -0.69065  -0.66347  -0.50300  -0.49073  -0.41442
 Alpha  occ. eigenvalues --   -0.39477  -0.37379  -0.27137
 Alpha virt. eigenvalues --    0.15545   0.16709   0.20585   0.27062   0.29542
 Alpha virt. eigenvalues --    0.31547   0.33872   0.35652   0.36794   0.45114
 Alpha virt. eigenvalues --    0.48701

 Mulliken charges:
               1
     1  C   -0.120485
     2  C   -1.889244
     3  O    3.112131
     4  C   -1.905140
     5  C   -0.067706
     6  H    0.142349
     7  H    0.293765
     8  H    0.283236
     9  H    0.151093
 Sum of Mulliken charges =   0.00000

 Dipole moment (field-independent basis, Debye):
    X=             -4.4069    Y=            -10.1384    Z=              0.0536  Tot=             11.0549
 N-N= 1.044318296810D+02 E-N=-1.702935941095D+02  KE=-1.568585339893D+01
 Orbital energies and kinetic energies (alpha):
                                 1                 2
   1         O                -1.942322         -1.413257
   2         O                -1.232843         -1.104095
   3         O                -0.975196         -0.915997
   4         O                -0.808693         -0.608753
   5         O                -0.801255         -0.687443
   6         O                -0.690649         -0.581550
   7         O                -0.663465         -0.584856

 Normal termination of Gaussian 09 at Tue Dec 15 17:10:00 2015.
