 Gaussian 09, Revision D.01,
 Gaussian 09:  ES64L-G09RevD.01 24-Apr-2013

 ------------------------------------------------------------
 #P AM1(Input,print) CIS(Singlets,NStates=15) pop(full) force
 ------------------------------------------------------------

 -----------------
 AM1-Reparam Input
 -----------------
 Symbolic Z-matrix:
 Charge =  0 Multiplicity = 1

                         Standard orientation:
 ---------------------------------------------------------------------
 Center     Atomic      Atomic             Coordinates (Angstroms)
 Number     Number       Type             X           Y           Z
 ---------------------------------------------------------------------
      1          6           0       -0.580822    0.998465   -0.038253
      2          6           0       -1.094022   -0.221458    0.050986
      3          8           0       -0.151048   -1.125212   -0.037750
      4          6           0        1.033067   -0.491337    0.032976
      5          6           0        0.801596    0.893040    0.012313
      6          1           0        1.655578    1.614624   -0.044816
      7          1           0        1.897739   -1.124745   -0.014281
      8          1           0       -2.165750   -0.502364   -0.007960
      9          1           0       -1.138090    1.941924    0.020924
 ---------------------------------------------------------------------

 SCF Done:  E(RAM1) =   2.11236996789     A.U. after   13 cycles

 Excitation energies and oscillator strengths:

 Excited State   1:      Singlet-A      5.7501 eV  215.62 nm  f=0.3279  <S**2>=0.000
      13 -> 14         0.69167
 This state for optimization and/or second-order correction.
 Total Energy, E(CIS) =   2.32368257245
 Copying the excited state density for this state as the 1-particle RhoCI density.

 Excited State   2:      Singlet-A      6.5857 eV  188.26 nm  f=0.0036  <S**2>=0.000
      10 -> 15         0.11685
      13 -> 15         0.66407
      13 -> 16         0.10720
      13 -> 17        -0.13381

 Excited State   3:      Singlet-A      6.9954 eV  177.24 nm  f=0.0010  <S**2>=0.000
      10 -> 16        -0.11916
      13 -> 15        -0.11335
      13 -> 16         0.64907
      13 -> 17        -0.12812
      13 -> 19         0.14169

 Excited State   4:      Singlet-A      7.4276 eV  166.92 nm  f=0.0010  <S**2>=0.000
      12 -> 14         0.69768

 Excited State   5:      Singlet-A      7.9944 eV  155.09 nm  f=0.0056  <S**2>=0.000
      10 -> 14        -0.18646
      11 -> 14         0.66608
      13 -> 17         0.10176

 Excited State   6:      Singlet-A      8.4393 eV  146.91 nm  f=0.0013  <S**2>=0.000
      10 -> 16        -0.13386
      13 -> 16         0.11498
      13 -> 17         0.43998
      13 -> 18        -0.40473
      13 -> 21         0.28736

 Excited State   7:      Singlet-A      8.6121 eV  143.97 nm  f=0.0076  <S**2>=0.000
      10 -> 15         0.10398
      13 -> 17         0.48795
      13 -> 18         0.37815
      13 -> 19         0.13209
      13 -> 21        -0.24578

 Excited State   8:      Singlet-A      8.9923 eV  137.88 nm  f=0.0923  <S**2>=0.000
      10 -> 14         0.65497
      11 -> 14         0.18434

 Excited State   9:      Singlet-A      9.2814 eV  133.58 nm  f=0.0005  <S**2>=0.000
      10 -> 15         0.10921
      10 -> 16         0.10242
      13 -> 18        -0.30573
      13 -> 19         0.58466
      13 -> 21        -0.14988

 Excited State  10:      Singlet-A      9.7249 eV  127.49 nm  f=0.0333  <S**2>=0.000
       9 -> 15         0.14779
      10 -> 15        -0.18166
      11 -> 15         0.27168
      11 -> 16         0.14867
      11 -> 17        -0.25835
      12 -> 16         0.26726
      12 -> 17        -0.15085
      12 -> 18         0.24463
      13 -> 21        -0.14257

 Excited State  11:      Singlet-A      9.7951 eV  126.58 nm  f=0.0203  <S**2>=0.000
      12 -> 15        -0.30170
      13 -> 18         0.26589
      13 -> 19         0.25285
      13 -> 20        -0.21194
      13 -> 21         0.43621

 Excited State  12:      Singlet-A      9.8064 eV  126.43 nm  f=0.1183  <S**2>=0.000
      11 -> 15         0.14114
      12 -> 15         0.57326
      13 -> 18         0.12949
      13 -> 19         0.12703
      13 -> 21         0.23233

 Excited State  13:      Singlet-A     10.0522 eV  123.34 nm  f=0.0247  <S**2>=0.000
      10 -> 15         0.53057
      11 -> 15         0.19436
      13 -> 15        -0.10812
      13 -> 20         0.23340
      13 -> 21         0.18218

 Excited State  14:      Singlet-A     10.0815 eV  122.98 nm  f=0.0757  <S**2>=0.000
      10 -> 15        -0.20116
      10 -> 16        -0.28311
      13 -> 20         0.55276
      13 -> 21         0.14608

 Excited State  15:      Singlet-A     10.3347 eV  119.97 nm  f=0.1427  <S**2>=0.000
       9 -> 16        -0.10186
      11 -> 16         0.48076
      11 -> 17        -0.10151
      11 -> 19         0.10926
      12 -> 16        -0.42467
      12 -> 17         0.10195

 The electronic state is 1-A.
 Alpha  occ. eigenvalues --   -1.95605  -1.20587  -0.93612  -0.81175  -0.78124
 Alpha  occ. eigenvalues --   -0.69474  -0.67136  -0.55677  -0.53626  -0.44396
 Alpha  occ. eigenvalues --   -0.44109  -0.42490  -0.30595
 Alpha virt. eigenvalues --    0.11784   0.16659   0.18549   0.24713   0.26753
 Alpha virt. eigenvalues --    0.29277   0.30180   0.32251   0.34377   0.42310
 Alpha virt. eigenvalues --    0.46981

 Mulliken charges:
               1
     1  C   -0.149876
     2  C   -1.911773
     3  O    3.213193
     4  C   -1.910261
     5  C   -0.123305
     6  H    0.162522
     7  H    0.262352
     8  H    0.295062
     9  H    0.162085
 Sum of Mulliken charges =   0.00000

 Dipole moment (field-independent basis, Debye):
    X=             -1.8525    Y=             -9.8885    Z=             -1.2540  Tot=             10.1384
 N-N= 1.047091521575D+02 E-N=-1.702947438007D+02  KE=-1.536668957918D+01
 Orbital energies and kinetic energies (alpha):
                                 1                 2
   1         O                -1.956048         -1.401162
   2         O                -1.205868         -1.054316
   3         O                -0.936119         -0.878718
   4         O                -0.811752         -0.561411
   5         O                -0.781244         -0.683331
   6         O                -0.694744         -0.584077
   7         O                -0.671364         -0.543564

 Normal termination of Gaussian 09 at Tue Dec 15 17:09:26 2015.
