 Gaussian 09, Revision D.01,
 Gaussian 09:  ES64L-G09RevD.01 24-Apr-2013

 ------------------------------------------------------------
 #P AM1(Input,print) CIS(Singlets,NStates=15) pop(full) force
 ------------------------------------------------------------

 -----------------
 AM1-Reparam Input
 -----------------
 Symbolic Z-matrix:
 Charge =  0 Multiplicity = 1

                         Standard orientation:
 ---------------------------------------------------------------------
 Center     Atomic      Atomic             Coordinates (Angstroms)
 Number     Number       Type             X           Y           Z
 ---------------------------------------------------------------------
      1          6           0        0.700864    0.934248    0.006277
      2          6           0        1.108697   -0.337469   -0.004001
      3          8           0       -0.050307   -1.160973    0.005780
      4          6           0       -1.054767   -0.310436   -0.002874
      5          6           0       -0.677206    0.937314   -0.016136
      6          1           0       -1.415149    1.774369    0.062262
      7          1           0       -2.004087   -0.779762   -0.004379
      8          1           0        2.035659   -0.859894    0.004256
      9          1           0        1.320507    1.811136   -0.007975
 ---------------------------------------------------------------------

 SCF Done:  E(RAM1) =   2.75503678373     A.U. after   14 cycles

 Excitation energies and oscillator strengths:

 Excited State   1:      Singlet-A      5.4335 eV  228.18 nm  f=0.3173  <S**2>=0.000
      11 -> 17        -0.11082
      13 -> 14         0.68891
 This state for optimization and/or second-order correction.
 Total Energy, E(CIS) =   2.95471437264
 Copying the excited state density for this state as the 1-particle RhoCI density.

 Excited State   2:      Singlet-A      5.6512 eV  219.39 nm  f=0.0044  <S**2>=0.000
      10 -> 15         0.11817
      13 -> 15         0.67305
      13 -> 17         0.12937

 Excited State   3:      Singlet-A      6.4967 eV  190.84 nm  f=0.0015  <S**2>=0.000
      10 -> 16        -0.13392
      13 -> 16         0.65482
      13 -> 17         0.15951
      13 -> 19         0.11427

 Excited State   4:      Singlet-A      7.0428 eV  176.05 nm  f=0.0004  <S**2>=0.000
       9 -> 14         0.11375
      12 -> 14         0.69006

 Excited State   5:      Singlet-A      7.5041 eV  165.22 nm  f=0.0137  <S**2>=0.000
      11 -> 14         0.15353
      13 -> 15        -0.12605
      13 -> 16        -0.13089
      13 -> 17         0.64416

 Excited State   6:      Singlet-A      7.7907 eV  159.14 nm  f=0.0001  <S**2>=0.000
      13 -> 18         0.58947
      13 -> 21         0.33804

 Excited State   7:      Singlet-A      7.9037 eV  156.87 nm  f=0.0020  <S**2>=0.000
      11 -> 14         0.67962
      13 -> 17        -0.14012

 Excited State   8:      Singlet-A      8.5638 eV  144.78 nm  f=0.0005  <S**2>=0.000
      10 -> 16         0.10179
      13 -> 16        -0.10439
      13 -> 18        -0.14890
      13 -> 19         0.65403

 Excited State   9:      Singlet-A      8.7626 eV  141.49 nm  f=0.0391  <S**2>=0.000
       8 -> 15         0.17597
      10 -> 14        -0.13647
      11 -> 15         0.12892
      11 -> 17        -0.12126
      12 -> 15         0.59838
      12 -> 18        -0.11396

 Excited State  10:      Singlet-A      8.8990 eV  139.32 nm  f=0.0317  <S**2>=0.000
       8 -> 16         0.11376
      10 -> 14         0.47197
      11 -> 15        -0.21762
      11 -> 17        -0.23701
      12 -> 16        -0.19743
      12 -> 18        -0.24022

 Excited State  11:      Singlet-A      9.1154 eV  136.02 nm  f=0.0197  <S**2>=0.000
      10 -> 14        -0.13131
      11 -> 15        -0.11763
      13 -> 18        -0.31095
      13 -> 19        -0.15944
      13 -> 20        -0.18604
      13 -> 21         0.52152

 Excited State  12:      Singlet-A      9.1491 eV  135.52 nm  f=0.0866  <S**2>=0.000
       9 -> 15        -0.18787
      10 -> 14         0.35591
      11 -> 15         0.36102
      11 -> 17         0.22971
      12 -> 15         0.12117
      12 -> 17         0.15554
      12 -> 18         0.11544
      13 -> 18        -0.11164
      13 -> 21         0.17737

 Excited State  13:      Singlet-A      9.4920 eV  130.62 nm  f=0.0729  <S**2>=0.000
       7 -> 15        -0.10793
      10 -> 15         0.48568
      13 -> 20         0.46346

 Excited State  14:      Singlet-A      9.5643 eV  129.63 nm  f=0.0472  <S**2>=0.000
       7 -> 15         0.10538
      10 -> 15        -0.42074
      13 -> 15         0.10386
      13 -> 20         0.46786
      13 -> 21         0.22205

 Excited State  15:      Singlet-A      9.6448 eV  128.55 nm  f=0.2047  <S**2>=0.000
       9 -> 16        -0.10175
      11 -> 15         0.11290
      11 -> 16        -0.21733
      11 -> 17        -0.12156
      11 -> 19        -0.12941
      12 -> 16         0.52641
      12 -> 17         0.12761
      12 -> 18        -0.20887

 The electronic state is 1-A.
 Alpha  occ. eigenvalues --   -1.77276  -1.15804  -0.94253  -0.79491  -0.74984
 Alpha  occ. eigenvalues --   -0.65971  -0.64377  -0.53057  -0.49244  -0.42722
 Alpha  occ. eigenvalues --   -0.41479  -0.38964  -0.27149
 Alpha virt. eigenvalues --    0.14058   0.16143   0.19967   0.24977   0.27721
 Alpha virt. eigenvalues --    0.29786   0.31659   0.33514   0.46895   0.56178
 Alpha virt. eigenvalues --    0.59476

 Mulliken charges:
               1
     1  C   -0.013786
     2  C   -1.967433
     3  O    3.336501
     4  C   -1.984927
     5  C   -0.127655
     6  H    0.126202
     7  H    0.266680
     8  H    0.250492
     9  H    0.113925
 Sum of Mulliken charges =   0.00000

 Dipole moment (field-independent basis, Debye):
    X=             -1.1476    Y=            -11.4729    Z=              0.1891  Tot=             11.5317
 N-N= 1.044078584885D+02 E-N=-1.698665449083D+02  KE=-1.494367699108D+01
 Orbital energies and kinetic energies (alpha):
                                 1                 2
   1         O                -1.772760         -1.270437
   2         O                -1.158036         -1.016358
   3         O                -0.942527         -0.873999
   4         O                -0.794911         -0.584604
   5         O                -0.749841         -0.681053
   6         O                -0.659713         -0.555579
   7         O                -0.643773         -0.533004

 Normal termination of Gaussian 09 at Tue Dec 15 17:05:25 2015.
