 Gaussian 09, Revision D.01,
 Gaussian 09:  ES64L-G09RevD.01 24-Apr-2013

 ------------------------------------------------------------
 #P AM1(Input,print) CIS(Singlets,NStates=15) pop(full) force
 ------------------------------------------------------------

 -----------------
 AM1-Reparam Input
 -----------------
 Symbolic Z-matrix:
 Charge =  0 Multiplicity = 1

                         Standard orientation:
 ---------------------------------------------------------------------
 Center     Atomic      Atomic             Coordinates (Angstroms)
 Number     Number       Type             X           Y           Z
 ---------------------------------------------------------------------
      1          6           0       -0.600845    1.011082   -0.011114
      2          6           0       -1.134477   -0.269980   -0.037861
      3          8           0       -0.093479   -1.155839    0.034801
      4          6           0        1.096304   -0.450574   -0.034439
      5          6           0        0.759577    0.910126    0.013513
      6          1           0        1.468851    1.740545    0.047492
      7          1           0        1.958711   -0.939815   -0.005863
      8          1           0       -2.157857   -0.646201    0.045303
      9          1           0       -1.245235    1.888258    0.054067
 ---------------------------------------------------------------------

 SCF Done:  E(RAM1) =   1.67934295412     A.U. after   14 cycles

 Excitation energies and oscillator strengths:

 Excited State   1:      Singlet-A      5.6965 eV  217.65 nm  f=0.3080  <S**2>=0.000
      10 -> 17        -0.10410
      13 -> 14         0.68877
 This state for optimization and/or second-order correction.
 Total Energy, E(CIS) =   1.88868366816
 Copying the excited state density for this state as the 1-particle RhoCI density.

 Excited State   2:      Singlet-A      6.6987 eV  185.09 nm  f=0.0091  <S**2>=0.000
      13 -> 15         0.60557
      13 -> 16         0.23075
      13 -> 17         0.23455

 Excited State   3:      Singlet-A      7.2129 eV  171.89 nm  f=0.0036  <S**2>=0.000
      12 -> 15        -0.13180
      13 -> 15        -0.20230
      13 -> 16         0.59951
      13 -> 18        -0.10062
      13 -> 20         0.11482
      13 -> 21        -0.18137

 Excited State   4:      Singlet-A      7.4411 eV  166.62 nm  f=0.0005  <S**2>=0.000
      11 -> 14         0.59557
      12 -> 14         0.27767
      13 -> 18         0.10819
      13 -> 21        -0.18276

 Excited State   5:      Singlet-A      7.9171 eV  156.60 nm  f=0.0074  <S**2>=0.000
      10 -> 14         0.53666
      12 -> 14         0.19728
      13 -> 15        -0.10115
      13 -> 17         0.19232
      13 -> 19        -0.10454
      13 -> 21         0.31852

 Excited State   6:      Singlet-A      7.9526 eV  155.90 nm  f=0.0014  <S**2>=0.000
      10 -> 14        -0.33893
      11 -> 14         0.24084
      13 -> 18        -0.15326
      13 -> 19        -0.10640
      13 -> 21         0.51603

 Excited State   7:      Singlet-A      8.1656 eV  151.84 nm  f=0.0082  <S**2>=0.000
      10 -> 14        -0.19151
      12 -> 16         0.13233
      13 -> 15        -0.18062
      13 -> 17         0.60347
      13 -> 18         0.10376
      13 -> 20        -0.10460

 Excited State   8:      Singlet-A      8.6735 eV  142.95 nm  f=0.1001  <S**2>=0.000
      10 -> 14        -0.22541
      11 -> 14        -0.26171
      12 -> 14         0.60036

 Excited State   9:      Singlet-A      8.8005 eV  140.88 nm  f=0.0007  <S**2>=0.000
      13 -> 16         0.10213
      13 -> 18         0.64563
      13 -> 21         0.16933

 Excited State  10:      Singlet-A      8.9377 eV  138.72 nm  f=0.0008  <S**2>=0.000
      13 -> 16         0.11376
      13 -> 19         0.51237
      13 -> 20        -0.40464
      13 -> 21         0.11706

 Excited State  11:      Singlet-A      9.3361 eV  132.80 nm  f=0.0981  <S**2>=0.000
      12 -> 16         0.12021
      13 -> 19         0.42913
      13 -> 20         0.52256

 Excited State  12:      Singlet-A      9.4692 eV  130.93 nm  f=0.0759  <S**2>=0.000
       8 -> 15        -0.11447
      10 -> 15         0.32957
      10 -> 16         0.22074
      10 -> 17         0.31619
      11 -> 16        -0.17246
      11 -> 18         0.10243
      11 -> 21         0.21761
      12 -> 15         0.14152
      13 -> 14         0.12000

 Excited State  13:      Singlet-A      9.7353 eV  127.35 nm  f=0.0006  <S**2>=0.000
      10 -> 15        -0.11466
      11 -> 15        -0.21472
      12 -> 15         0.52354
      12 -> 16         0.19730
      12 -> 17         0.13241
      13 -> 15        -0.14112
      13 -> 16         0.16809
      13 -> 21         0.10157

 Excited State  14:      Singlet-A     10.0690 eV  123.13 nm  f=0.0768  <S**2>=0.000
      10 -> 15        -0.19871
      10 -> 18        -0.13363
      11 -> 15         0.54561
      11 -> 17         0.12304
      11 -> 19         0.13019
      12 -> 15         0.14414
      12 -> 16         0.11944

 Excited State  15:      Singlet-A     10.2344 eV  121.14 nm  f=0.0619  <S**2>=0.000
       8 -> 16         0.11037
       9 -> 15        -0.15214
      10 -> 15         0.27607
      10 -> 19         0.36190
      11 -> 16         0.12537
      11 -> 17        -0.23344
      11 -> 18        -0.18449
      11 -> 19         0.12320
      12 -> 16         0.10076
      12 -> 17        -0.12236
      12 -> 18        -0.11436
      12 -> 19         0.13427

 The electronic state is 1-A.
 Alpha  occ. eigenvalues --   -1.90317  -1.22720  -0.99012  -0.81809  -0.81189
 Alpha  occ. eigenvalues --   -0.68904  -0.62681  -0.55214  -0.52318  -0.43241
 Alpha  occ. eigenvalues --   -0.42174  -0.41753  -0.29753
 Alpha virt. eigenvalues --    0.12720   0.18439   0.20874   0.24014   0.26232
 Alpha virt. eigenvalues --    0.28084   0.28296   0.29149   0.35965   0.44666
 Alpha virt. eigenvalues --    0.49875

 Mulliken charges:
               1
     1  C   -0.117046
     2  C   -1.975815
     3  O    3.198707
     4  C   -1.973494
     5  C   -0.104583
     6  H    0.179882
     7  H    0.301170
     8  H    0.310401
     9  H    0.180778
 Sum of Mulliken charges =   0.00000

 Dipole moment (field-independent basis, Debye):
    X=             -1.1820    Y=             -9.7450    Z=              1.2689  Tot=              9.8981
 N-N= 1.037428858404D+02 E-N=-1.689721892598D+02  KE=-1.573318574517D+01
 Orbital energies and kinetic energies (alpha):
                                 1                 2
   1         O                -1.903173         -1.365898
   2         O                -1.227196         -1.102651
   3         O                -0.990117         -0.912043
   4         O                -0.818095         -0.710641
   5         O                -0.811892         -0.631446
   6         O                -0.689045         -0.593276
   7         O                -0.626810         -0.511440

 Normal termination of Gaussian 09 at Tue Dec 15 17:06:57 2015.
