 Gaussian 09, Revision D.01,
 Gaussian 09:  ES64L-G09RevD.01 24-Apr-2013

 ------------------------------------------------------------
 #P AM1(Input,print) CIS(Singlets,NStates=15) pop(full) force
 ------------------------------------------------------------

 -----------------
 AM1-Reparam Input
 -----------------
 Symbolic Z-matrix:
 Charge =  0 Multiplicity = 1

                         Standard orientation:
 ---------------------------------------------------------------------
 Center     Atomic      Atomic             Coordinates (Angstroms)
 Number     Number       Type             X           Y           Z
 ---------------------------------------------------------------------
      1          6           0        0.569653    1.043992    0.004934
      2          6           0        1.183941   -0.220889   -0.006324
      3          8           0        0.135734   -1.131821   -0.002770
      4          6           0       -1.038320   -0.454336    0.013365
      5          6           0       -0.867145    0.820923   -0.009065
      6          1           0       -1.586914    1.554453   -0.018553
      7          1           0       -1.864804   -1.070508   -0.002558
      8          1           0        2.119918   -0.536569    0.003201
      9          1           0        1.157157    1.969053    0.022617
 ---------------------------------------------------------------------

 SCF Done:  E(RAM1) =   2.15184419940     A.U. after   13 cycles

 Excitation energies and oscillator strengths:

 Excited State   1:      Singlet-A      5.3426 eV  232.07 nm  f=0.3518  <S**2>=0.000
      13 -> 14         0.69549
 This state for optimization and/or second-order correction.
 Total Energy, E(CIS) =   2.34818221730
 Copying the excited state density for this state as the 1-particle RhoCI density.

 Excited State   2:      Singlet-A      6.3427 eV  195.48 nm  f=0.0017  <S**2>=0.000
      10 -> 15         0.10760
      13 -> 15         0.67675
      13 -> 17        -0.11252

 Excited State   3:      Singlet-A      6.9078 eV  179.48 nm  f=0.0036  <S**2>=0.000
      13 -> 16         0.66211
      13 -> 18        -0.11934
      13 -> 19        -0.13003

 Excited State   4:      Singlet-A      7.1685 eV  172.96 nm  f=0.0001  <S**2>=0.000
      12 -> 14         0.69735

 Excited State   5:      Singlet-A      7.9776 eV  155.41 nm  f=0.0029  <S**2>=0.000
      13 -> 17        -0.23194
      13 -> 18         0.53351
      13 -> 19         0.18215
      13 -> 20        -0.16750
      13 -> 22         0.25495

 Excited State   6:      Singlet-A      8.0671 eV  153.69 nm  f=0.0051  <S**2>=0.000
      11 -> 14         0.68435
      13 -> 18        -0.10720

 Excited State   7:      Singlet-A      8.5904 eV  144.33 nm  f=0.0047  <S**2>=0.000
      10 -> 16        -0.12146
      11 -> 14         0.11781
      13 -> 17         0.62003
      13 -> 18         0.20756
      13 -> 20        -0.10796

 Excited State   8:      Singlet-A      8.9969 eV  137.81 nm  f=0.0781  <S**2>=0.000
      10 -> 14         0.65309
      12 -> 15        -0.13810
      13 -> 21         0.17816

 Excited State   9:      Singlet-A      9.1397 eV  135.65 nm  f=0.0031  <S**2>=0.000
      13 -> 17         0.12768
      13 -> 18        -0.24099
      13 -> 19         0.62551

 Excited State  10:      Singlet-A      9.6448 eV  128.55 nm  f=0.0041  <S**2>=0.000
      13 -> 18         0.27701
      13 -> 19         0.13344
      13 -> 20         0.47761
      13 -> 22        -0.39202

 Excited State  11:      Singlet-A      9.7577 eV  127.06 nm  f=0.0696  <S**2>=0.000
       8 -> 15        -0.13329
      10 -> 14         0.14029
      11 -> 16        -0.14026
      11 -> 17         0.13605
      12 -> 15         0.54317
      12 -> 16        -0.14861
      12 -> 18         0.20821

 Excited State  12:      Singlet-A      9.9549 eV  124.55 nm  f=0.0914  <S**2>=0.000
      10 -> 16        -0.12394
      13 -> 20         0.44773
      13 -> 22         0.50084

 Excited State  13:      Singlet-A     10.0882 eV  122.90 nm  f=0.1125  <S**2>=0.000
      10 -> 14         0.10401
      11 -> 15         0.32959
      11 -> 16         0.19626
      11 -> 17        -0.23189
      12 -> 15         0.28549
      12 -> 16         0.14453
      12 -> 18        -0.29955
      13 -> 21        -0.18992

 Excited State  14:      Singlet-A     10.1811 eV  121.78 nm  f=0.0834  <S**2>=0.000
      10 -> 14        -0.16186
      11 -> 15         0.17736
      13 -> 21         0.63124

 Excited State  15:      Singlet-A     10.4218 eV  118.97 nm  f=0.1366  <S**2>=0.000
      11 -> 16        -0.30727
      12 -> 16         0.55545
      12 -> 17        -0.16024

 The electronic state is 1-A.
 Alpha  occ. eigenvalues --   -1.94348  -1.19449  -0.95684  -0.81920  -0.79243
 Alpha  occ. eigenvalues --   -0.70174  -0.66555  -0.56893  -0.54324  -0.45338
 Alpha  occ. eigenvalues --   -0.45108  -0.42179  -0.29107
 Alpha virt. eigenvalues --    0.10894   0.17289   0.20500   0.26116   0.27548
 Alpha virt. eigenvalues --    0.29514   0.30625   0.30989   0.31863   0.39063
 Alpha virt. eigenvalues --    0.43668

 Mulliken charges:
               1
     1  C   -0.171034
     2  C   -1.900888
     3  O    3.222076
     4  C   -1.857012
     5  C   -0.140641
     6  H    0.160120
     7  H    0.261252
     8  H    0.260293
     9  H    0.165833
 Sum of Mulliken charges =   0.00000

 Dipole moment (field-independent basis, Debye):
    X=              0.5076    Y=            -10.6336    Z=             -0.0871  Tot=             10.6460
 N-N= 1.043888922992D+02 E-N=-1.694903006109D+02  KE=-1.537735779000D+01
 Orbital energies and kinetic energies (alpha):
                                 1                 2
   1         O                -1.943482         -1.360826
   2         O                -1.194494         -1.044090
   3         O                -0.956837         -0.894113
   4         O                -0.819201         -0.592447
   5         O                -0.792430         -0.690354
   6         O                -0.701740         -0.583160
   7         O                -0.665546         -0.526455

 Normal termination of Gaussian 09 at Tue Dec 15 17:08:39 2015.
