 Gaussian 09, Revision D.01,
 Gaussian 09:  ES64L-G09RevD.01 24-Apr-2013

 ------------------------------------------------------------
 #P AM1(Input,print) CIS(Singlets,NStates=15) pop(full) force
 ------------------------------------------------------------

 -----------------
 AM1-Reparam Input
 -----------------
 Symbolic Z-matrix:
 Charge =  0 Multiplicity = 1

                         Standard orientation:
 ---------------------------------------------------------------------
 Center     Atomic      Atomic             Coordinates (Angstroms)
 Number     Number       Type             X           Y           Z
 ---------------------------------------------------------------------
      1          6           0        0.840675    0.877418   -0.029393
      2          6           0        1.038816   -0.456998    0.034124
      3          8           0       -0.116515   -1.147392   -0.019207
      4          6           0       -1.156456   -0.208652   -0.009037
      5          6           0       -0.596202    1.016042    0.020733
      6          1           0       -1.148709    1.900270    0.001793
      7          1           0       -2.129475   -0.596731    0.043148
      8          1           0        1.885026   -1.071493    0.022402
      9          1           0        1.564279    1.580225   -0.012250
 ---------------------------------------------------------------------

 SCF Done:  E(RAM1) =   1.83042904239     A.U. after   14 cycles

 Excitation energies and oscillator strengths:

 Excited State   1:      Singlet-A      5.3745 eV  230.69 nm  f=0.3525  <S**2>=0.000
      13 -> 14         0.69208
 This state for optimization and/or second-order correction.
 Total Energy, E(CIS) =   2.02793784849
 Copying the excited state density for this state as the 1-particle RhoCI density.

 Excited State   2:      Singlet-A      6.5208 eV  190.14 nm  f=0.0043  <S**2>=0.000
      13 -> 15         0.67427
      13 -> 17        -0.15851

 Excited State   3:      Singlet-A      6.9810 eV  177.60 nm  f=0.0036  <S**2>=0.000
      13 -> 16         0.66806
      13 -> 18         0.15635
      13 -> 19         0.11586

 Excited State   4:      Singlet-A      7.4814 eV  165.72 nm  f=0.0008  <S**2>=0.000
      12 -> 14         0.69958

 Excited State   5:      Singlet-A      8.1032 eV  153.01 nm  f=0.0006  <S**2>=0.000
      13 -> 17         0.39719
      13 -> 18         0.51765
      13 -> 21        -0.18992

 Excited State   6:      Singlet-A      8.4017 eV  147.57 nm  f=0.0068  <S**2>=0.000
      10 -> 14         0.65257
      11 -> 14        -0.24383

 Excited State   7:      Singlet-A      9.0152 eV  137.53 nm  f=0.0144  <S**2>=0.000
      11 -> 16        -0.10505
      13 -> 15         0.10770
      13 -> 17         0.53341
      13 -> 18        -0.38432
      13 -> 19         0.11320

 Excited State   8:      Singlet-A      9.1073 eV  136.14 nm  f=0.1017  <S**2>=0.000
      10 -> 14         0.23683
      11 -> 14         0.63491

 Excited State   9:      Singlet-A      9.5556 eV  129.75 nm  f=0.0007  <S**2>=0.000
      11 -> 16         0.11430
      13 -> 16        -0.10871
      13 -> 19         0.66537

 Excited State  10:      Singlet-A      9.8294 eV  126.14 nm  f=0.0076  <S**2>=0.000
       9 -> 15        -0.13435
      10 -> 15         0.11021
      10 -> 16         0.20533
      10 -> 17        -0.11840
      10 -> 18         0.18489
      12 -> 15         0.39506
      12 -> 16        -0.10837
      12 -> 17        -0.26302
      12 -> 18        -0.24906

 Excited State  11:      Singlet-A     10.3743 eV  119.51 nm  f=0.2580  <S**2>=0.000
      10 -> 15        -0.30773
      10 -> 16        -0.11974
      10 -> 17         0.10328
      11 -> 15         0.27796
      11 -> 16         0.10075
      12 -> 15         0.35156
      12 -> 16        -0.28077
      12 -> 18         0.11843
      12 -> 19        -0.14144

 Excited State  12:      Singlet-A     10.4001 eV  119.21 nm  f=0.0446  <S**2>=0.000
      10 -> 15        -0.15333
      10 -> 16         0.12504
      11 -> 15         0.16237
      12 -> 15         0.20935
      12 -> 16         0.56789
      12 -> 18         0.13196

 Excited State  13:      Singlet-A     10.5034 eV  118.04 nm  f=0.0075  <S**2>=0.000
      10 -> 15        -0.20459
      11 -> 15        -0.23507
      12 -> 15         0.11044
      13 -> 17         0.10195
      13 -> 18         0.16476
      13 -> 20        -0.14342
      13 -> 21         0.54273

 Excited State  14:      Singlet-A     10.5676 eV  117.32 nm  f=0.0130  <S**2>=0.000
      10 -> 15         0.29282
      11 -> 15         0.46022
      11 -> 16         0.10052
      13 -> 21         0.36780

 Excited State  15:      Singlet-A     10.6736 eV  116.16 nm  f=0.0900  <S**2>=0.000
      11 -> 16        -0.17665
      13 -> 20         0.65442

 The electronic state is 1-A.
 Alpha  occ. eigenvalues --   -1.99728  -1.27652  -1.01963  -0.90693  -0.85551
 Alpha  occ. eigenvalues --   -0.77727  -0.74571  -0.64256  -0.62138  -0.53059
 Alpha  occ. eigenvalues --   -0.52573  -0.49956  -0.36589
 Alpha virt. eigenvalues --    0.04052   0.10735   0.12733   0.19754   0.20930
 Alpha virt. eigenvalues --    0.22830   0.26345   0.27309   0.28029   0.36194
 Alpha virt. eigenvalues --    0.41212

 Mulliken charges:
               1
     1  C   -0.147305
     2  C   -1.883146
     3  O    3.173213
     4  C   -1.869970
     5  C   -0.104840
     6  H    0.147052
     7  H    0.268161
     8  H    0.272698
     9  H    0.144137
 Sum of Mulliken charges =   0.00000

 Dipole moment (field-independent basis, Debye):
    X=             -0.8727    Y=            -10.9210    Z=             -0.3401  Tot=             10.9611
 N-N= 1.058307191195D+02 E-N=-1.707640151070D+02  KE=-1.570743633827D+01
 Orbital energies and kinetic energies (alpha):
                                 1                 2
   1         O                -1.997285         -1.369458
   2         O                -1.276523         -1.054221
   3         O                -1.019632         -0.896580
   4         O                -0.906933         -0.600880
   5         O                -0.855506         -0.700654
   6         O                -0.777267         -0.611454
   7         O                -0.745710         -0.542154

 Normal termination of Gaussian 09 at Tue Dec 15 17:09:07 2015.
