 Gaussian 09, Revision D.01,
 Gaussian 09:  ES64L-G09RevD.01 24-Apr-2013

 ------------------------------------------------------------
 #P AM1(Input,print) CIS(Singlets,NStates=15) pop(full) force
 ------------------------------------------------------------

 -----------------
 AM1-Reparam Input
 -----------------
 Symbolic Z-matrix:
 Charge =  0 Multiplicity = 1

                         Standard orientation:
 ---------------------------------------------------------------------
 Center     Atomic      Atomic             Coordinates (Angstroms)
 Number     Number       Type             X           Y           Z
 ---------------------------------------------------------------------
      1          6           0       -0.970438    0.756641   -0.000216
      2          6           0       -0.964119   -0.659446    0.018662
      3          8           0        0.356775   -1.098251   -0.032885
      4          6           0        1.120594   -0.024233    0.048534
      5          6           0        0.427731    1.087000   -0.030332
      6          1           0        0.845592    2.120693   -0.014245
      7          1           0        2.155566   -0.269430    0.017029
      8          1           0       -1.711403   -1.383731    0.010699
      9          1           0       -1.826562    1.358707    0.029712
 ---------------------------------------------------------------------

 SCF Done:  E(RAM1) =   2.12519195756     A.U. after   13 cycles

 Excitation energies and oscillator strengths:

 Excited State   1:      Singlet-A      5.4991 eV  225.46 nm  f=0.3499  <S**2>=0.000
      13 -> 14         0.69526
 This state for optimization and/or second-order correction.
 Total Energy, E(CIS) =   2.32727860292
 Copying the excited state density for this state as the 1-particle RhoCI density.

 Excited State   2:      Singlet-A      6.2879 eV  197.18 nm  f=0.0008  <S**2>=0.000
      11 -> 15         0.11709
      13 -> 15         0.67793

 Excited State   3:      Singlet-A      6.9538 eV  178.30 nm  f=0.0032  <S**2>=0.000
      11 -> 16        -0.11164
      13 -> 16         0.65740
      13 -> 17        -0.14846
      13 -> 19         0.14550

 Excited State   4:      Singlet-A      7.2271 eV  171.55 nm  f=0.0004  <S**2>=0.000
      12 -> 14         0.69758

 Excited State   5:      Singlet-A      8.1436 eV  152.25 nm  f=0.0068  <S**2>=0.000
      10 -> 14         0.61379
      11 -> 14        -0.13430
      13 -> 17         0.25075
      13 -> 21        -0.12092

 Excited State   6:      Singlet-A      8.2346 eV  150.57 nm  f=0.0013  <S**2>=0.000
      10 -> 14         0.26087
      13 -> 16        -0.10104
      13 -> 17        -0.28340
      13 -> 18         0.43989
      13 -> 19         0.11814
      13 -> 21         0.33496

 Excited State   7:      Singlet-A      8.4727 eV  146.33 nm  f=0.0068  <S**2>=0.000
      10 -> 14        -0.14533
      13 -> 15         0.10477
      13 -> 17         0.54471
      13 -> 18         0.30112
      13 -> 19         0.19164
      13 -> 21         0.13440

 Excited State   8:      Singlet-A      8.8986 eV  139.33 nm  f=0.0818  <S**2>=0.000
      10 -> 14         0.14838
      11 -> 14         0.65170
      12 -> 15        -0.13053
      13 -> 22        -0.11446

 Excited State   9:      Singlet-A      9.2213 eV  134.45 nm  f=0.0049  <S**2>=0.000
      11 -> 16         0.13892
      13 -> 18        -0.30712
      13 -> 19         0.59745

 Excited State  10:      Singlet-A      9.5773 eV  129.46 nm  f=0.0996  <S**2>=0.000
       8 -> 15        -0.12726
      11 -> 14         0.11547
      12 -> 15         0.55914
      12 -> 16        -0.12898
      12 -> 18        -0.13519
      13 -> 18        -0.11714
      13 -> 20         0.11212
      13 -> 21         0.22711

 Excited State  11:      Singlet-A      9.6249 eV  128.82 nm  f=0.0254  <S**2>=0.000
      12 -> 15        -0.27570
      13 -> 18        -0.28589
      13 -> 19        -0.17490
      13 -> 20         0.10165
      13 -> 21         0.51442

 Excited State  12:      Singlet-A      9.8910 eV  125.35 nm  f=0.0501  <S**2>=0.000
       9 -> 15         0.13642
      10 -> 15         0.21301
      10 -> 17        -0.15879
      10 -> 18        -0.11122
      11 -> 15        -0.25230
      12 -> 15        -0.20000
      12 -> 16        -0.23674
      12 -> 17         0.23382
      12 -> 18        -0.14401
      13 -> 20         0.29571
      13 -> 21        -0.11709

 Excited State  13:      Singlet-A      9.9618 eV  124.46 nm  f=0.0887  <S**2>=0.000
      10 -> 15        -0.18710
      10 -> 17         0.12132
      11 -> 15        -0.12159
      11 -> 16         0.10407
      12 -> 16         0.16477
      12 -> 17        -0.15210
      12 -> 18         0.11392
      13 -> 20         0.54591

 Excited State  14:      Singlet-A     10.0704 eV  123.12 nm  f=0.0044  <S**2>=0.000
       7 -> 15        -0.12770
      10 -> 15         0.10435
      11 -> 15         0.58019
      11 -> 16         0.14136
      13 -> 15        -0.13581
      13 -> 20         0.22968

 Excited State  15:      Singlet-A     10.5025 eV  118.05 nm  f=0.1067  <S**2>=0.000
       8 -> 16         0.10478
       9 -> 15         0.11306
      10 -> 15         0.16802
      11 -> 14         0.14200
      12 -> 16         0.22923
      13 -> 22         0.57309

 The electronic state is 1-A.
 Alpha  occ. eigenvalues --   -1.94579  -1.19022  -0.94002  -0.81383  -0.78366
 Alpha  occ. eigenvalues --   -0.69702  -0.66377  -0.55232  -0.54197  -0.45071
 Alpha  occ. eigenvalues --   -0.44298  -0.41919  -0.29390
 Alpha virt. eigenvalues --    0.11426   0.16295   0.20061   0.25549   0.27756
 Alpha virt. eigenvalues --    0.29597   0.30820   0.31989   0.32255   0.40387
 Alpha virt. eigenvalues --    0.44585

 Mulliken charges:
               1
     1  C   -0.116989
     2  C   -1.900205
     3  O    3.208386
     4  C   -1.858497
     5  C   -0.169896
     6  H    0.161834
     7  H    0.260541
     8  H    0.258118
     9  H    0.156707
 Sum of Mulliken charges =   0.00000

 Dipole moment (field-independent basis, Debye):
    X=              3.9406    Y=             -9.9674    Z=             -0.9183  Tot=             10.7574
 N-N= 1.042346456506D+02 E-N=-1.694015455440D+02  KE=-1.534659722107D+01
 Orbital energies and kinetic energies (alpha):
                                 1                 2
   1         O                -1.945789         -1.370465
   2         O                -1.190223         -1.046227
   3         O                -0.940018         -0.875958
   4         O                -0.813834         -0.582311
   5         O                -0.783657         -0.685851
   6         O                -0.697021         -0.587507
   7         O                -0.663773         -0.527291

 Normal termination of Gaussian 09 at Tue Dec 15 17:08:36 2015.
