 Gaussian 09, Revision D.01,
 Gaussian 09:  ES64L-G09RevD.01 24-Apr-2013

 ------------------------------------------------------------
 #P AM1(Input,print) CIS(Singlets,NStates=15) pop(full) force
 ------------------------------------------------------------

 -----------------
 AM1-Reparam Input
 -----------------
 Symbolic Z-matrix:
 Charge =  0 Multiplicity = 1

                         Standard orientation:
 ---------------------------------------------------------------------
 Center     Atomic      Atomic             Coordinates (Angstroms)
 Number     Number       Type             X           Y           Z
 ---------------------------------------------------------------------
      1          6           0       -1.066028    0.549571    0.013166
      2          6           0       -0.878971   -0.796044   -0.016967
      3          8           0        0.582850   -1.035453    0.006998
      4          6           0        1.153102    0.178886   -0.007447
      5          6           0        0.175993    1.158476   -0.003216
      6          1           0        0.382676    2.257368   -0.024410
      7          1           0        2.218832    0.183356    0.032427
      8          1           0       -1.469872   -1.686384    0.003517
      9          1           0       -2.099014    0.983952    0.019260
 ---------------------------------------------------------------------

 SCF Done:  E(RAM1) =   1.12371652650     A.U. after   14 cycles

 Excitation energies and oscillator strengths:

 Excited State   1:      Singlet-A      5.6066 eV  221.14 nm  f=0.1618  <S**2>=0.000
      12 -> 15        -0.16152
      13 -> 14         0.67285
 This state for optimization and/or second-order correction.
 Total Energy, E(CIS) =   1.32975477122
 Copying the excited state density for this state as the 1-particle RhoCI density.

 Excited State   2:      Singlet-A      6.2896 eV  197.13 nm  f=0.0022  <S**2>=0.000
      13 -> 16         0.66640
      13 -> 17         0.13108
      13 -> 18         0.11230
      13 -> 20         0.11904

 Excited State   3:      Singlet-A      6.5464 eV  189.39 nm  f=0.0419  <S**2>=0.000
      12 -> 14         0.27022
      13 -> 15         0.63334

 Excited State   4:      Singlet-A      7.2151 eV  171.84 nm  f=0.0002  <S**2>=0.000
      13 -> 16        -0.11261
      13 -> 17         0.65113
      13 -> 21         0.13791

 Excited State   5:      Singlet-A      7.5859 eV  163.44 nm  f=0.0016  <S**2>=0.000
       9 -> 14        -0.14453
      10 -> 14        -0.23092
      11 -> 14         0.63956

 Excited State   6:      Singlet-A      7.6617 eV  161.82 nm  f=0.0027  <S**2>=0.000
      10 -> 14         0.61141
      11 -> 14         0.21126
      11 -> 15         0.21561

 Excited State   7:      Singlet-A      7.9592 eV  155.78 nm  f=0.1878  <S**2>=0.000
      11 -> 14         0.10301
      12 -> 14         0.61794
      13 -> 15        -0.23443

 Excited State   8:      Singlet-A      8.1633 eV  151.88 nm  f=0.0030  <S**2>=0.000
      10 -> 14         0.18247
      11 -> 15        -0.27282
      12 -> 16         0.23161
      13 -> 18         0.41479
      13 -> 19         0.34178

 Excited State   9:      Singlet-A      8.1849 eV  151.48 nm  f=0.0191  <S**2>=0.000
       9 -> 15         0.19562
      10 -> 14        -0.16516
      11 -> 15         0.53938
      12 -> 16         0.13813
      13 -> 18         0.24230
      13 -> 19         0.18615

 Excited State  10:      Singlet-A      8.3586 eV  148.33 nm  f=0.0011  <S**2>=0.000
      12 -> 16        -0.40001
      12 -> 17        -0.15251
      13 -> 18        -0.10416
      13 -> 19         0.42513
      13 -> 20         0.26180
      13 -> 24         0.13547

 Excited State  11:      Singlet-A      8.4642 eV  146.48 nm  f=0.2582  <S**2>=0.000
      11 -> 15         0.10524
      12 -> 15         0.64302
      13 -> 14         0.14294

 Excited State  12:      Singlet-A      8.4722 eV  146.34 nm  f=0.0060  <S**2>=0.000
      12 -> 16         0.45030
      13 -> 17        -0.12978
      13 -> 18        -0.31637
      13 -> 19         0.12000
      13 -> 20         0.32332
      13 -> 24         0.13882

 Excited State  13:      Singlet-A      9.0543 eV  136.93 nm  f=0.0042  <S**2>=0.000
      12 -> 17         0.43149
      13 -> 18        -0.26037
      13 -> 19         0.27740
      13 -> 20        -0.34687

 Excited State  14:      Singlet-A      9.1794 eV  135.07 nm  f=0.0291  <S**2>=0.000
       9 -> 16         0.23902
      10 -> 16        -0.34413
      10 -> 19         0.13570
      11 -> 16         0.47923
      11 -> 20         0.15083

 Excited State  15:      Singlet-A      9.4502 eV  131.20 nm  f=0.0034  <S**2>=0.000
      12 -> 17        -0.26954
      13 -> 20        -0.22376
      13 -> 21         0.55643
      13 -> 22        -0.13399

 The electronic state is 1-A.
 Alpha  occ. eigenvalues --   -1.79292  -1.18783  -0.97068  -0.85829  -0.80881
 Alpha  occ. eigenvalues --   -0.73015  -0.69993  -0.60387  -0.56528  -0.50154
 Alpha  occ. eigenvalues --   -0.49451  -0.46643  -0.37989
 Alpha virt. eigenvalues --    0.04554   0.07937   0.09630   0.13138   0.18278
 Alpha virt. eigenvalues --    0.18845   0.18987   0.22197   0.25423   0.26871
 Alpha virt. eigenvalues --    0.27908

 Mulliken charges:
               1
     1  C   -0.058646
     2  C   -1.233426
     3  O    2.114873
     4  C   -1.216898
     5  C   -0.210533
     6  H    0.122421
     7  H    0.194976
     8  H    0.173345
     9  H    0.113887
 Sum of Mulliken charges =   0.00000

 Dipole moment (field-independent basis, Debye):
    X=              3.9187    Y=             -6.3383    Z=              0.2421  Tot=              7.4558
 N-N= 1.035751506480D+02 E-N=-1.699060253194D+02  KE=-1.487660363557D+01
 Orbital energies and kinetic energies (alpha):
                                 1                 2
   1         O                -1.792918         -1.199988
   2         O                -1.187832         -0.971877
   3         O                -0.970679         -0.815459
   4         O                -0.858287         -0.617671
   5         O                -0.808813         -0.669826
   6         O                -0.730154         -0.588888
   7         O                -0.699931         -0.506821

 Normal termination of Gaussian 09 at Tue Dec 15 17:05:42 2015.
