 Gaussian 09, Revision D.01,
 Gaussian 09:  ES64L-G09RevD.01 24-Apr-2013

 ------------------------------------------------------------
 #P AM1(Input,print) CIS(Singlets,NStates=15) pop(full) force
 ------------------------------------------------------------

 -----------------
 AM1-Reparam Input
 -----------------
 Symbolic Z-matrix:
 Charge =  0 Multiplicity = 1

                         Standard orientation:
 ---------------------------------------------------------------------
 Center     Atomic      Atomic             Coordinates (Angstroms)
 Number     Number       Type             X           Y           Z
 ---------------------------------------------------------------------
      1          6           0       -0.743755    0.928976   -0.008493
      2          6           0       -1.092569   -0.362042   -0.008402
      3          8           0       -0.006767   -1.137432    0.000742
      4          6           0        1.131052   -0.315910   -0.016647
      5          6           0        0.702879    0.929417    0.010949
      6          1           0        1.371381    1.803845    0.032348
      7          1           0        2.052946   -0.811230    0.032611
      8          1           0       -1.994924   -0.820840    0.078009
      9          1           0       -1.360904    1.845042   -0.013350
 ---------------------------------------------------------------------

 SCF Done:  E(RAM1) =   1.75646888553     A.U. after   13 cycles

 Excitation energies and oscillator strengths:

 Excited State   1:      Singlet-A      5.2954 eV  234.14 nm  f=0.3670  <S**2>=0.000
      13 -> 14         0.69514
 This state for optimization and/or second-order correction.
 Total Energy, E(CIS) =   1.95107098653
 Copying the excited state density for this state as the 1-particle RhoCI density.

 Excited State   2:      Singlet-A      6.8737 eV  180.37 nm  f=0.0003  <S**2>=0.000
      12 -> 14         0.70035

 Excited State   3:      Singlet-A      7.0237 eV  176.52 nm  f=0.0030  <S**2>=0.000
      13 -> 15         0.67128
      13 -> 17        -0.11500
      13 -> 19         0.12613

 Excited State   4:      Singlet-A      7.3524 eV  168.63 nm  f=0.0026  <S**2>=0.000
      13 -> 16         0.66416
      13 -> 17        -0.10516
      13 -> 18        -0.12777

 Excited State   5:      Singlet-A      7.8930 eV  157.08 nm  f=0.0064  <S**2>=0.000
      11 -> 14         0.69960

 Excited State   6:      Singlet-A      8.5882 eV  144.37 nm  f=0.0002  <S**2>=0.000
      13 -> 15        -0.10236
      13 -> 16         0.11007
      13 -> 17        -0.16437
      13 -> 18         0.60956
      13 -> 22        -0.24714

 Excited State   7:      Singlet-A      9.1084 eV  136.12 nm  f=0.0050  <S**2>=0.000
      13 -> 16         0.10763
      13 -> 17         0.65451
      13 -> 18         0.17483

 Excited State   8:      Singlet-A      9.4855 eV  130.71 nm  f=0.0731  <S**2>=0.000
      10 -> 14         0.65159
      12 -> 16        -0.11052
      12 -> 17        -0.11044
      13 -> 21        -0.12355

 Excited State   9:      Singlet-A      9.6542 eV  128.42 nm  f=0.0003  <S**2>=0.000
      13 -> 18        -0.12873
      13 -> 19         0.66454

 Excited State  10:      Singlet-A      9.8361 eV  126.05 nm  f=0.0135  <S**2>=0.000
       9 -> 15         0.10240
      10 -> 14        -0.12034
      11 -> 16        -0.15501
      11 -> 17         0.20128
      11 -> 18         0.11882
      12 -> 15         0.41480
      12 -> 16        -0.19961
      12 -> 17        -0.12013
      12 -> 18         0.32967

 Excited State  11:      Singlet-A     10.4326 eV  118.84 nm  f=0.0567  <S**2>=0.000
      13 -> 18        -0.18482
      13 -> 19        -0.11885
      13 -> 20         0.50762
      13 -> 22        -0.41349

 Excited State  12:      Singlet-A     10.4674 eV  118.45 nm  f=0.0280  <S**2>=0.000
      10 -> 14         0.11561
      11 -> 15         0.20188
      11 -> 16        -0.13670
      12 -> 15         0.31070
      12 -> 16         0.52760
      12 -> 17        -0.10784

 Excited State  13:      Singlet-A     10.4974 eV  118.11 nm  f=0.2982  <S**2>=0.000
      11 -> 15         0.27887
      11 -> 16         0.23870
      11 -> 17        -0.20091
      12 -> 15         0.34514
      12 -> 16        -0.28740
      12 -> 17         0.10534
      12 -> 18        -0.22518
      12 -> 19         0.13280

 Excited State  14:      Singlet-A     10.6733 eV  116.16 nm  f=0.0497  <S**2>=0.000
      13 -> 18         0.14313
      13 -> 20         0.45443
      13 -> 22         0.50237

 Excited State  15:      Singlet-A     10.8972 eV  113.78 nm  f=0.0571  <S**2>=0.000
      10 -> 14         0.13777
      11 -> 15        -0.16609
      11 -> 16         0.10466
      13 -> 21         0.64500

 The electronic state is 1-A.
 Alpha  occ. eigenvalues --   -1.91743  -1.17757  -0.94465  -0.82399  -0.79300
 Alpha  occ. eigenvalues --   -0.70432  -0.68268  -0.58036  -0.55384  -0.47978
 Alpha  occ. eigenvalues --   -0.44634  -0.41442  -0.29784
 Alpha virt. eigenvalues --    0.10429   0.19264   0.20457   0.27312   0.27996
 Alpha virt. eigenvalues --    0.30343   0.32656   0.33279   0.35046   0.41727
 Alpha virt. eigenvalues --    0.45794

 Mulliken charges:
               1
     1  C   -0.229676
     2  C   -2.024252
     3  O    3.305407
     4  C   -1.994240
     5  C   -0.142923
     6  H    0.209353
     7  H    0.323241
     8  H    0.337018
     9  H    0.216072
 Sum of Mulliken charges =   0.00000

 Dipole moment (field-independent basis, Debye):
    X=             -0.1213    Y=            -10.5966    Z=              0.4795  Tot=             10.6081
 N-N= 1.041550285528D+02 E-N=-1.696336591286D+02  KE=-1.553105178153D+01
 Orbital energies and kinetic energies (alpha):
                                 1                 2
   1         O                -1.917429         -1.375442
   2         O                -1.177565         -1.042593
   3         O                -0.944646         -0.897685
   4         O                -0.823991         -0.579353
   5         O                -0.792998         -0.706883
   6         O                -0.704316         -0.571449
   7         O                -0.682682         -0.542023

 Normal termination of Gaussian 09 at Tue Dec 15 17:09:49 2015.
