 Gaussian 09, Revision D.01,
 Gaussian 09:  ES64L-G09RevD.01 24-Apr-2013

 ------------------------------------------------------------
 #P AM1(Input,print) CIS(Singlets,NStates=15) pop(full) force
 ------------------------------------------------------------

 -----------------
 AM1-Reparam Input
 -----------------
 Symbolic Z-matrix:
 Charge =  0 Multiplicity = 1

                         Standard orientation:
 ---------------------------------------------------------------------
 Center     Atomic      Atomic             Coordinates (Angstroms)
 Number     Number       Type             X           Y           Z
 ---------------------------------------------------------------------
      1          6           0        0.559627    1.015389   -0.006607
      2          6           0        1.137285   -0.187972   -0.011430
      3          8           0        0.185658   -1.112927   -0.013445
      4          6           0       -1.030920   -0.500435    0.009945
      5          6           0       -0.857226    0.843068    0.026187
      6          1           0       -1.665486    1.532788   -0.070999
      7          1           0       -1.887181   -1.162659   -0.006423
      8          1           0        2.129413   -0.494770    0.098703
      9          1           0        1.085399    2.007760   -0.022291
 ---------------------------------------------------------------------

 SCF Done:  E(RAM1) =   1.84355749446     A.U. after   14 cycles

 Excitation energies and oscillator strengths:

 Excited State   1:      Singlet-A      5.6216 eV  220.55 nm  f=0.3183  <S**2>=0.000
      11 -> 17        -0.10154
      13 -> 14         0.68831
 This state for optimization and/or second-order correction.
 Total Energy, E(CIS) =   2.05014736531
 Copying the excited state density for this state as the 1-particle RhoCI density.

 Excited State   2:      Singlet-A      6.5962 eV  187.96 nm  f=0.0069  <S**2>=0.000
      13 -> 15         0.42784
      13 -> 16         0.49920
      13 -> 17        -0.20412

 Excited State   3:      Singlet-A      6.6734 eV  185.79 nm  f=0.0007  <S**2>=0.000
      13 -> 15         0.50876
      13 -> 16        -0.42997
      13 -> 19        -0.16805

 Excited State   4:      Singlet-A      6.7158 eV  184.62 nm  f=0.0009  <S**2>=0.000
      12 -> 14         0.69718

 Excited State   5:      Singlet-A      7.6779 eV  161.48 nm  f=0.0060  <S**2>=0.000
      11 -> 14         0.68752
      13 -> 17         0.10461

 Excited State   6:      Singlet-A      8.0413 eV  154.18 nm  f=0.0023  <S**2>=0.000
      10 -> 16        -0.10450
      11 -> 14        -0.10477
      13 -> 16         0.14107
      13 -> 17         0.53587
      13 -> 18        -0.33520
      13 -> 21        -0.21611

 Excited State   7:      Singlet-A      8.3258 eV  148.92 nm  f=0.0077  <S**2>=0.000
      10 -> 15         0.10912
      13 -> 15         0.13843
      13 -> 17         0.38030
      13 -> 18         0.50212
      13 -> 21         0.22729

 Excited State   8:      Singlet-A      8.9452 eV  138.60 nm  f=0.0016  <S**2>=0.000
      13 -> 18        -0.17670
      13 -> 19         0.65558

 Excited State   9:      Singlet-A      9.0107 eV  137.60 nm  f=0.0145  <S**2>=0.000
       8 -> 15         0.11366
      10 -> 14         0.46948
      11 -> 17         0.14670
      12 -> 15        -0.30210
      12 -> 16         0.12374
      12 -> 17        -0.17443
      12 -> 18         0.20610

 Excited State  10:      Singlet-A      9.0141 eV  137.55 nm  f=0.0429  <S**2>=0.000
       8 -> 16        -0.13314
      10 -> 14         0.41551
      11 -> 15         0.14104
      11 -> 17        -0.17690
      11 -> 18        -0.14074
      12 -> 16        -0.35836
      12 -> 18        -0.19092

 Excited State  11:      Singlet-A      9.3641 eV  132.40 nm  f=0.1291  <S**2>=0.000
       9 -> 15        -0.13562
      10 -> 14         0.13832
      11 -> 15        -0.24571
      11 -> 17         0.10022
      12 -> 15         0.55051
      12 -> 17        -0.21285
      12 -> 19        -0.10212

 Excited State  12:      Singlet-A      9.5913 eV  129.27 nm  f=0.0288  <S**2>=0.000
      11 -> 16         0.13325
      12 -> 16         0.10073
      13 -> 18        -0.27705
      13 -> 19        -0.13267
      13 -> 20        -0.28653
      13 -> 21         0.51260

 Excited State  13:      Singlet-A      9.6290 eV  128.76 nm  f=0.1497  <S**2>=0.000
      10 -> 14         0.13371
      11 -> 16         0.40605
      11 -> 17        -0.14781
      12 -> 16         0.43635
      12 -> 18        -0.14679
      13 -> 21        -0.16440

 Excited State  14:      Singlet-A      9.8846 eV  125.43 nm  f=0.0798  <S**2>=0.000
      10 -> 15         0.12454
      13 -> 20         0.59592
      13 -> 21         0.27890

 Excited State  15:      Singlet-A      9.8973 eV  125.27 nm  f=0.1122  <S**2>=0.000
       8 -> 16        -0.16364
       9 -> 16        -0.16057
      10 -> 14        -0.19488
      11 -> 16         0.32282
      11 -> 18        -0.12619
      11 -> 19         0.21061
      12 -> 15        -0.10213
      12 -> 16        -0.19829
      12 -> 17        -0.27438
      12 -> 18         0.16647
      13 -> 20         0.15501

 The electronic state is 1-A.
 Alpha  occ. eigenvalues --   -1.95791  -1.21963  -0.99617  -0.81771  -0.80338
 Alpha  occ. eigenvalues --   -0.70007  -0.67060  -0.53190  -0.49598  -0.43069
 Alpha  occ. eigenvalues --   -0.41187  -0.38148  -0.28100
 Alpha virt. eigenvalues --    0.13512   0.19303   0.19374   0.25908   0.28077
 Alpha virt. eigenvalues --    0.30157   0.32033   0.34305   0.37111   0.45615
 Alpha virt. eigenvalues --    0.50823

 Mulliken charges:
               1
     1  C   -0.116484
     2  C   -1.938206
     3  O    3.141162
     4  C   -1.931378
     5  C   -0.089677
     6  H    0.158013
     7  H    0.302882
     8  H    0.317289
     9  H    0.156399
 Sum of Mulliken charges =   0.00000

 Dipole moment (field-independent basis, Debye):
    X=              1.6911    Y=             -9.7865    Z=             -0.0579  Tot=              9.9317
 N-N= 1.046357136488D+02 E-N=-1.704845950294D+02  KE=-1.570292442400D+01
 Orbital energies and kinetic energies (alpha):
                                 1                 2
   1         O                -1.957913         -1.438951
   2         O                -1.219634         -1.076073
   3         O                -0.996169         -0.913608
   4         O                -0.817708         -0.618376
   5         O                -0.803375         -0.702595
   6         O                -0.700071         -0.577386
   7         O                -0.670600         -0.574267

 Normal termination of Gaussian 09 at Tue Dec 15 17:09:58 2015.
