 Gaussian 09, Revision D.01,
 Gaussian 09:  ES64L-G09RevD.01 24-Apr-2013

 ------------------------------------------------------------
 #P AM1(Input,print) CIS(Singlets,NStates=15) pop(full) force
 ------------------------------------------------------------

 -----------------
 AM1-Reparam Input
 -----------------
 Symbolic Z-matrix:
 Charge =  0 Multiplicity = 1

                         Standard orientation:
 ---------------------------------------------------------------------
 Center     Atomic      Atomic             Coordinates (Angstroms)
 Number     Number       Type             X           Y           Z
 ---------------------------------------------------------------------
      1          6           0       -1.032729    0.572104    0.000414
      2          6           0       -0.867807   -0.779098    0.021517
      3          8           0        0.523989   -1.052383   -0.018254
      4          6           0        1.173568    0.160036    0.029286
      5          6           0        0.178627    1.165936   -0.031989
      6          1           0        0.403013    2.173500    0.036660
      7          1           0        2.222840    0.172623    0.001934
      8          1           0       -1.443409   -1.672987   -0.025621
      9          1           0       -2.084308    1.032058    0.017688
 ---------------------------------------------------------------------

 SCF Done:  E(RAM1) =   2.10734845719     A.U. after   14 cycles

 Excitation energies and oscillator strengths:

 Excited State   1:      Singlet-A      5.8784 eV  210.92 nm  f=0.3054  <S**2>=0.000
      13 -> 14         0.68844
 This state for optimization and/or second-order correction.
 Total Energy, E(CIS) =   2.32337425254
 Copying the excited state density for this state as the 1-particle RhoCI density.

 Excited State   2:      Singlet-A      6.9159 eV  179.27 nm  f=0.0038  <S**2>=0.000
      10 -> 16         0.12641
      13 -> 15         0.66323
      13 -> 17        -0.16522

 Excited State   3:      Singlet-A      7.2282 eV  171.53 nm  f=0.0004  <S**2>=0.000
      10 -> 15         0.16710
      13 -> 16         0.65952
      13 -> 19         0.13591

 Excited State   4:      Singlet-A      7.6817 eV  161.40 nm  f=0.0012  <S**2>=0.000
      11 -> 14        -0.19395
      12 -> 14         0.66920

 Excited State   5:      Singlet-A      7.9149 eV  156.65 nm  f=0.0053  <S**2>=0.000
      11 -> 14         0.66690
      12 -> 14         0.19195

 Excited State   6:      Singlet-A      8.6129 eV  143.95 nm  f=0.0069  <S**2>=0.000
      10 -> 16         0.14796
      13 -> 15         0.11071
      13 -> 17         0.64245
      13 -> 18        -0.12285
      13 -> 22        -0.13436

 Excited State   7:      Singlet-A      8.7160 eV  142.25 nm  f=0.0046  <S**2>=0.000
      13 -> 17         0.15299
      13 -> 18         0.55162
      13 -> 19        -0.12789
      13 -> 22         0.34626

 Excited State   8:      Singlet-A      9.0759 eV  136.61 nm  f=0.0609  <S**2>=0.000
      10 -> 14         0.66105
      13 -> 20         0.13910

 Excited State   9:      Singlet-A      9.5080 eV  130.40 nm  f=0.0050  <S**2>=0.000
      10 -> 15        -0.18915
      13 -> 18         0.25730
      13 -> 19         0.51355
      13 -> 20        -0.23888
      13 -> 21         0.12593
      13 -> 22        -0.17991

 Excited State  10:      Singlet-A      9.7800 eV  126.77 nm  f=0.1832  <S**2>=0.000
       9 -> 16        -0.10390
      11 -> 15         0.34434
      11 -> 17        -0.20928
      11 -> 18        -0.19301
      12 -> 15         0.25946
      12 -> 16        -0.12157
      12 -> 17        -0.28373
      12 -> 18         0.17031
      13 -> 14         0.12470

 Excited State  11:      Singlet-A      9.9486 eV  124.63 nm  f=0.0111  <S**2>=0.000
      13 -> 18        -0.30246
      13 -> 19         0.21459
      13 -> 20        -0.13295
      13 -> 21         0.26506
      13 -> 22         0.48339

 Excited State  12:      Singlet-A     10.1919 eV  121.65 nm  f=0.0737  <S**2>=0.000
      10 -> 15         0.10430
      10 -> 16        -0.18382
      13 -> 19        -0.29457
      13 -> 20        -0.34812
      13 -> 21         0.40218
      13 -> 22        -0.21375

 Excited State  13:      Singlet-A     10.2239 eV  121.27 nm  f=0.0941  <S**2>=0.000
      12 -> 15         0.44351
      12 -> 16         0.46386

 Excited State  14:      Singlet-A     10.2772 eV  120.64 nm  f=0.0436  <S**2>=0.000
      10 -> 14        -0.10451
      10 -> 15         0.39380
      10 -> 16        -0.12607
      11 -> 16         0.18938
      13 -> 16        -0.12284
      13 -> 19         0.18824
      13 -> 20         0.34321
      13 -> 21         0.16522
      13 -> 22        -0.15015

 Excited State  15:      Singlet-A     10.3172 eV  120.17 nm  f=0.0643  <S**2>=0.000
      10 -> 15        -0.19064
      11 -> 15         0.32407
      11 -> 16        -0.24360
      11 -> 19        -0.10854
      12 -> 15        -0.16517
      12 -> 16         0.10903
      12 -> 17         0.10428
      13 -> 20         0.27265
      13 -> 21         0.33699

 The electronic state is 1-A.
 Alpha  occ. eigenvalues --   -1.92418  -1.20048  -0.92278  -0.80000  -0.79462
 Alpha  occ. eigenvalues --   -0.68884  -0.65163  -0.55623  -0.54434  -0.43696
 Alpha  occ. eigenvalues --   -0.43207  -0.42204  -0.30491
 Alpha virt. eigenvalues --    0.12767   0.18789   0.19448   0.24748   0.27650
 Alpha virt. eigenvalues --    0.29675   0.30088   0.31313   0.33050   0.38427
 Alpha virt. eigenvalues --    0.42474

 Mulliken charges:
               1
     1  C   -0.093032
     2  C   -1.875079
     3  O    3.222109
     4  C   -1.917588
     5  C   -0.167689
     6  H    0.161264
     7  H    0.266165
     8  H    0.244034
     9  H    0.159816
 Sum of Mulliken charges =   0.00000

 Dipole moment (field-independent basis, Debye):
    X=              4.6720    Y=             -9.8666    Z=             -0.6602  Tot=             10.9367
 N-N= 1.037419403036D+02 E-N=-1.685959446868D+02  KE=-1.531508199960D+01
 Orbital energies and kinetic energies (alpha):
                                 1                 2
   1         O                -1.924176         -1.332161
   2         O                -1.200482         -1.060367
   3         O                -0.922775         -0.878930
   4         O                -0.800000         -0.589465
   5         O                -0.794623         -0.666533
   6         O                -0.688836         -0.606521
   7         O                -0.651632         -0.530615

 Normal termination of Gaussian 09 at Tue Dec 15 17:09:26 2015.
