 Gaussian 09, Revision D.01,
 Gaussian 09:  ES64L-G09RevD.01 24-Apr-2013

 ------------------------------------------------------------
 #P AM1(Input,print) CIS(Singlets,NStates=15) pop(full) force
 ------------------------------------------------------------

 -----------------
 AM1-Reparam Input
 -----------------
 Symbolic Z-matrix:
 Charge =  0 Multiplicity = 1

                         Standard orientation:
 ---------------------------------------------------------------------
 Center     Atomic      Atomic             Coordinates (Angstroms)
 Number     Number       Type             X           Y           Z
 ---------------------------------------------------------------------
      1          6           0       -0.611481    1.018234   -0.012699
      2          6           0       -1.096582   -0.170793    0.015960
      3          8           0       -0.181562   -1.109748   -0.010608
      4          6           0        1.017743   -0.505011    0.001332
      5          6           0        0.894040    0.834652    0.013340
      6          1           0        1.602161    1.597933   -0.015683
      7          1           0        1.865715   -1.158445   -0.001804
      8          1           0       -2.192187   -0.563814    0.011929
      9          1           0       -1.045513    1.939813   -0.017174
 ---------------------------------------------------------------------

 SCF Done:  E(RAM1) =   1.12284481848     A.U. after   14 cycles

 Excitation energies and oscillator strengths:

 Excited State   1:      Singlet-A      5.2010 eV  238.38 nm  f=0.2441  <S**2>=0.000
      12 -> 17         0.11255
      13 -> 14         0.68780
 This state for optimization and/or second-order correction.
 Total Energy, E(CIS) =   1.31397899901
 Copying the excited state density for this state as the 1-particle RhoCI density.

 Excited State   2:      Singlet-A      6.0765 eV  204.04 nm  f=0.0015  <S**2>=0.000
      13 -> 15         0.67265
      13 -> 18         0.15678
      13 -> 19         0.10839

 Excited State   3:      Singlet-A      6.3859 eV  194.15 nm  f=0.0022  <S**2>=0.000
      13 -> 16         0.65820
      13 -> 17         0.10127
      13 -> 18        -0.14837
      13 -> 19         0.14221

 Excited State   4:      Singlet-A      6.8717 eV  180.43 nm  f=0.0001  <S**2>=0.000
       9 -> 14         0.12478
      11 -> 14         0.64080
      12 -> 14        -0.23538
      13 -> 17         0.10615

 Excited State   5:      Singlet-A      6.9740 eV  177.78 nm  f=0.0112  <S**2>=0.000
      11 -> 14        -0.22074
      12 -> 14        -0.34986
      13 -> 17         0.55436

 Excited State   6:      Singlet-A      7.6558 eV  161.95 nm  f=0.0003  <S**2>=0.000
      13 -> 15        -0.14028
      13 -> 16         0.13948
      13 -> 18         0.64613
      13 -> 22        -0.13043

 Excited State   7:      Singlet-A      8.1021 eV  153.03 nm  f=0.2589  <S**2>=0.000
      10 -> 14         0.18537
      11 -> 14         0.13363
      11 -> 19         0.10948
      12 -> 14         0.52244
      13 -> 17         0.35922

 Excited State   8:      Singlet-A      8.2167 eV  150.89 nm  f=0.0292  <S**2>=0.000
       9 -> 14         0.14781
      10 -> 14         0.61598
      11 -> 17         0.15667
      12 -> 14        -0.16077
      13 -> 17        -0.11121
      13 -> 20         0.11431

 Excited State   9:      Singlet-A      8.4994 eV  145.87 nm  f=0.0002  <S**2>=0.000
      12 -> 15        -0.12864
      13 -> 19         0.35148
      13 -> 20         0.54702
      13 -> 22         0.10099

 Excited State  10:      Singlet-A      8.7528 eV  141.65 nm  f=0.0011  <S**2>=0.000
      12 -> 15         0.52102
      13 -> 19        -0.25042
      13 -> 20         0.29754
      13 -> 21         0.14313

 Excited State  11:      Singlet-A      8.8467 eV  140.15 nm  f=0.0152  <S**2>=0.000
       9 -> 14        -0.11079
       9 -> 17        -0.22526
      10 -> 14        -0.18442
      11 -> 15        -0.15444
      11 -> 16        -0.10289
      11 -> 17         0.50181
      12 -> 15        -0.13251
      12 -> 16        -0.12532
      12 -> 17        -0.17697

 Excited State  12:      Singlet-A      8.8674 eV  139.82 nm  f=0.0053  <S**2>=0.000
       9 -> 15         0.10935
      11 -> 15         0.30182
      11 -> 16        -0.21873
      11 -> 18         0.22522
      12 -> 15        -0.11658
      12 -> 16        -0.21443
      12 -> 17         0.24563
      13 -> 19        -0.27314
      13 -> 20         0.17203

 Excited State  13:      Singlet-A      8.9019 eV  139.28 nm  f=0.0087  <S**2>=0.000
       9 -> 17        -0.10535
      11 -> 15         0.17818
      11 -> 16        -0.10461
      11 -> 17         0.26227
      11 -> 18         0.15413
      12 -> 15         0.14209
      12 -> 16         0.41252
      12 -> 17         0.18942
      13 -> 19         0.24036
      13 -> 20        -0.12483

 Excited State  14:      Singlet-A      9.0706 eV  136.69 nm  f=0.0001  <S**2>=0.000
       9 -> 14         0.51667
      10 -> 14        -0.13642
      11 -> 14        -0.10278
      12 -> 15        -0.21524
      12 -> 16         0.15123
      13 -> 21         0.31101

 Excited State  15:      Singlet-A      9.1592 eV  135.37 nm  f=0.0192  <S**2>=0.000
       9 -> 14         0.30846
       9 -> 15         0.21693
      11 -> 15        -0.25582
      11 -> 16        -0.21042
      12 -> 15         0.21290
      12 -> 16        -0.20677
      12 -> 17         0.12097
      13 -> 19         0.11344
      13 -> 21        -0.27676

 The electronic state is 1-A.
 Alpha  occ. eigenvalues --   -1.85625  -1.19601  -1.00497  -0.88986  -0.79977
 Alpha  occ. eigenvalues --   -0.74435  -0.73205  -0.60614  -0.54862  -0.53779
 Alpha  occ. eigenvalues --   -0.48981  -0.48401  -0.36942
 Alpha virt. eigenvalues --    0.02788   0.08507   0.10777   0.11129   0.17705
 Alpha virt. eigenvalues --    0.19228   0.21191   0.21781   0.27252   0.28136
 Alpha virt. eigenvalues --    0.28814

 Mulliken charges:
               1
     1  C   -0.162454
     2  C   -1.233812
     3  O    2.124352
     4  C   -1.240244
     5  C   -0.121488
     6  H    0.100452
     7  H    0.201299
     8  H    0.228890
     9  H    0.103006
 Sum of Mulliken charges =   0.00000

 Dipole moment (field-independent basis, Debye):
    X=             -1.5736    Y=             -7.1684    Z=             -0.1840  Tot=              7.3414
 N-N= 1.050009351921D+02 E-N=-1.721859804142D+02  KE=-1.505208452205D+01
 Orbital energies and kinetic energies (alpha):
                                 1                 2
   1         O                -1.856253         -1.278123
   2         O                -1.196011         -0.969402
   3         O                -1.004969         -0.816797
   4         O                -0.889859         -0.639479
   5         O                -0.799774         -0.675130
   6         O                -0.744349         -0.589807
   7         O                -0.732048         -0.521100

 Normal termination of Gaussian 09 at Tue Dec 15 17:05:31 2015.
