 Gaussian 09, Revision D.01,
 Gaussian 09:  ES64L-G09RevD.01 24-Apr-2013

 -------------------------------------------------------
 #P B3LYP/3-21G CIS(Singlets,NStates=15) pop(full) force
 -------------------------------------------------------

 --------
 FuranDFT
 --------
 Symbolic Z-matrix:
 Charge =  0 Multiplicity = 1

                         Standard orientation:
 ---------------------------------------------------------------------
 Center     Atomic      Atomic             Coordinates (Angstroms)
 Number     Number       Type             X           Y           Z
 ---------------------------------------------------------------------
      1          6           0       -0.937434    0.729833   -0.021719
      2          6           0       -0.962978   -0.593631    0.027571
      3          8           0        0.283689   -1.138888   -0.009341
      4          6           0        1.131678   -0.042859    0.014813
      5          6           0        0.467148    1.095240   -0.003600
      6          1           0        0.883264    2.063284    0.038627
      7          1           0        2.221465   -0.377353   -0.046116
      8          1           0       -1.789787   -1.219029   -0.025289
      9          1           0       -1.774941    1.512701    0.005117
 ---------------------------------------------------------------------

 SCF Done:  E(RB3LYP) =  -228.737859129     A.U. after   14 cycles

 Excitation energies and oscillator strengths:

 Excited State   1:      Singlet-A      7.4381 eV  166.69 nm  f=0.1188  <S**2>=0.000
      17 -> 19         0.32590
      18 -> 19         0.52898
      18 -> 20         0.30277
 This state for optimization and/or second-order correction.
 Total Energy, E(CIS) =  -228.464515624
 Copying the excited state density for this state as the 1-particle RhoCI density.

 Excited State   2:      Singlet-A      7.5318 eV  164.61 nm  f=0.0898  <S**2>=0.000
      17 -> 19        -0.41210
      18 -> 19         0.43477
      18 -> 20        -0.34908

 Excited State   3:      Singlet-A      8.4525 eV  146.68 nm  f=0.0010  <S**2>=0.000
      18 -> 21         0.69878

 Excited State   4:      Singlet-A      9.1449 eV  135.58 nm  f=0.0073  <S**2>=0.000
      16 -> 19         0.68851

 Excited State   5:      Singlet-A      9.2304 eV  134.32 nm  f=0.0038  <S**2>=0.000
      17 -> 21        -0.18361
      18 -> 22         0.64610
      18 -> 23        -0.15590

 Excited State   6:      Singlet-A      9.5221 eV  130.21 nm  f=0.0295  <S**2>=0.000
      17 -> 20        -0.34151
      17 -> 21         0.54191
      18 -> 22         0.20685
      18 -> 23         0.15268

 Excited State   7:      Singlet-A      9.6071 eV  129.05 nm  f=0.1183  <S**2>=0.000
      17 -> 20         0.57854
      17 -> 21         0.27353
      18 -> 20         0.12466
      18 -> 22         0.11819
      18 -> 23         0.12622

 Excited State   8:      Singlet-A      9.7846 eV  126.71 nm  f=0.0070  <S**2>=0.000
      15 -> 19        -0.44731
      17 -> 21        -0.18444
      18 -> 22         0.10737
      18 -> 23         0.49000

 Excited State   9:      Singlet-A      9.8474 eV  125.91 nm  f=0.0816  <S**2>=0.000
      15 -> 19         0.49134
      17 -> 19        -0.17207
      17 -> 21        -0.21402
      18 -> 20         0.20694
      18 -> 23         0.32381

 Excited State  10:      Singlet-A     10.0550 eV  123.31 nm  f=0.3646  <S**2>=0.000
      15 -> 19        -0.20257
      17 -> 19        -0.34337
      17 -> 22         0.20524
      18 -> 20         0.39640
      18 -> 23        -0.27310

 Excited State  11:      Singlet-A     10.3467 eV  119.83 nm  f=0.0553  <S**2>=0.000
      17 -> 19         0.11485
      17 -> 22         0.66164
      18 -> 20        -0.13220

 Excited State  12:      Singlet-A     10.5248 eV  117.80 nm  f=0.0017  <S**2>=0.000
      18 -> 24         0.69053

 Excited State  13:      Singlet-A     10.6119 eV  116.84 nm  f=0.0002  <S**2>=0.000
      14 -> 19         0.57469
      16 -> 20         0.37438

 Excited State  14:      Singlet-A     10.8977 eV  113.77 nm  f=0.0009  <S**2>=0.000
      13 -> 19         0.13809
      17 -> 23         0.64683
      17 -> 25         0.14469
      18 -> 25        -0.11920

 Excited State  15:      Singlet-A     10.9561 eV  113.16 nm  f=0.0005  <S**2>=0.000
      13 -> 19         0.37814
      14 -> 19        -0.28209
      16 -> 20         0.47886
      17 -> 23        -0.16556
      18 -> 25        -0.10539

 The electronic state is 1-A.
 Alpha  occ. eigenvalues --  -19.11037 -10.17754 -10.16876 -10.12874 -10.12199
 Alpha  occ. eigenvalues --   -1.12366  -0.81316  -0.75039  -0.60191  -0.56982
 Alpha  occ. eigenvalues --   -0.54191  -0.44734  -0.43495  -0.42451  -0.38979
 Alpha  occ. eigenvalues --   -0.36865  -0.27944  -0.23938
 Alpha virt. eigenvalues --    0.02564   0.08478   0.11780   0.14382   0.17035
 Alpha virt. eigenvalues --    0.18586   0.21158   0.23543   0.37090   0.42680
 Alpha virt. eigenvalues --    0.46793   0.68048   0.69799   0.69997   0.75874

 Mulliken charges:
               1
     1  C   -0.234671
     2  C    0.088499
     3  O   -0.481835
     4  C    0.088567
     5  C   -0.266168
     6  H    0.193418
     7  H    0.208059
     8  H    0.219540
     9  H    0.184591
 Sum of Mulliken charges =   0.00000

 Dipole moment (field-independent basis, Debye):
    X=             -0.1864    Y=              0.8470    Z=             -0.0118  Tot=              0.8674
 Quadrupole moment (field-independent basis, Debye-Ang):
   XX=            -24.0260   YY=            -27.8383   ZZ=            -31.7228
   XY=              0.8076   XZ=             -0.0468   YZ=              0.1733

 Normal termination of Gaussian 09 at Tue Dec 15 16:31:19 2015.
