 Gaussian 09, Revision D.01,
 Gaussian 09:  ES64L-G09RevD.01 24-Apr-2013

 ------------------------------------------------------------
 #P AM1(Input,print) CIS(Singlets,NStates=15) pop(full) force
 ------------------------------------------------------------

 -----------------
 AM1-Reparam Input
 -----------------
 Symbolic Z-matrix:
 Charge =  0 Multiplicity = 1

                         Standard orientation:
 ---------------------------------------------------------------------
 Center     Atomic      Atomic             Coordinates (Angstroms)
 Number     Number       Type             X           Y           Z
 ---------------------------------------------------------------------
      1          6           0       -0.520978    1.102256   -0.031309
      2          6           0       -1.158001   -0.172240   -0.009191
      3          8           0       -0.207656   -1.147392    0.007263
      4          6           0        1.042012   -0.528583   -0.022241
      5          6           0        0.868888    0.809823    0.035096
      6          1           0        1.608042    1.564539    0.007360
      7          1           0        1.895582   -1.141840   -0.003126
      8          1           0       -2.203763   -0.517997    0.079096
      9          1           0       -1.030141    2.006900    0.024441
 ---------------------------------------------------------------------

 SCF Done:  E(RAM1) =   2.02080881713     A.U. after   13 cycles

 Excitation energies and oscillator strengths:

 Excited State   1:      Singlet-A      5.4625 eV  226.97 nm  f=0.3522  <S**2>=0.000
      13 -> 14         0.69459
 This state for optimization and/or second-order correction.
 Total Energy, E(CIS) =   2.22155191482
 Copying the excited state density for this state as the 1-particle RhoCI density.

 Excited State   2:      Singlet-A      6.8630 eV  180.66 nm  f=0.0005  <S**2>=0.000
      12 -> 14         0.67345
      13 -> 15         0.14505

 Excited State   3:      Singlet-A      6.8872 eV  180.02 nm  f=0.0121  <S**2>=0.000
      12 -> 14        -0.16434
      13 -> 15         0.62270
      13 -> 17         0.25319

 Excited State   4:      Singlet-A      7.2039 eV  172.11 nm  f=0.0046  <S**2>=0.000
      13 -> 16         0.62745
      13 -> 18         0.27878

 Excited State   5:      Singlet-A      7.7420 eV  160.15 nm  f=0.0059  <S**2>=0.000
      10 -> 14         0.69685

 Excited State   6:      Singlet-A      8.1079 eV  152.92 nm  f=0.0000  <S**2>=0.000
      11 -> 15         0.10986
      13 -> 15        -0.11568
      13 -> 16         0.18763
      13 -> 17         0.12901
      13 -> 18        -0.27377
      13 -> 19         0.54490
      13 -> 20         0.18500

 Excited State   7:      Singlet-A      8.6522 eV  143.30 nm  f=0.1111  <S**2>=0.000
      11 -> 14         0.68803

 Excited State   8:      Singlet-A      8.7840 eV  141.15 nm  f=0.0198  <S**2>=0.000
      11 -> 15         0.14471
      11 -> 16        -0.11389
      13 -> 15        -0.20247
      13 -> 17         0.61081
      13 -> 19        -0.17314

 Excited State   9:      Singlet-A      9.2555 eV  133.96 nm  f=0.0038  <S**2>=0.000
      11 -> 16        -0.13906
      13 -> 16        -0.17333
      13 -> 18         0.52419
      13 -> 19         0.37653

 Excited State  10:      Singlet-A      9.6120 eV  128.99 nm  f=0.0187  <S**2>=0.000
      10 -> 15        -0.23182
      10 -> 16        -0.19832
      10 -> 17        -0.18017
      10 -> 18        -0.13477
      12 -> 15         0.28291
      12 -> 16        -0.16819
      12 -> 17         0.18978
      12 -> 18        -0.21381
      12 -> 19         0.27759

 Excited State  11:      Singlet-A      9.8861 eV  125.41 nm  f=0.0024  <S**2>=0.000
      13 -> 18         0.18796
      13 -> 19        -0.11709
      13 -> 20         0.62606
      13 -> 21        -0.20892

 Excited State  12:      Singlet-A     10.1243 eV  122.46 nm  f=0.0068  <S**2>=0.000
      10 -> 15         0.15421
      11 -> 15         0.28594
      12 -> 15         0.40982
      12 -> 16         0.32324
      12 -> 17         0.13706
      12 -> 18         0.14314

 Excited State  13:      Singlet-A     10.1543 eV  122.10 nm  f=0.0680  <S**2>=0.000
      13 -> 20         0.17742
      13 -> 21         0.65338

 Excited State  14:      Singlet-A     10.2502 eV  120.96 nm  f=0.0494  <S**2>=0.000
      10 -> 16         0.15074
      11 -> 15         0.47828
      11 -> 16         0.12030
      11 -> 17         0.11601
      12 -> 16        -0.34895
      12 -> 18        -0.12460
      13 -> 15         0.10445

 Excited State  15:      Singlet-A     10.2833 eV  120.57 nm  f=0.2210  <S**2>=0.000
      10 -> 15         0.46010
      10 -> 17         0.21058
      11 -> 15        -0.15949
      12 -> 15         0.18565
      12 -> 16        -0.31391
      12 -> 17         0.13733
      12 -> 18        -0.15586

 The electronic state is 1-A.
 Alpha  occ. eigenvalues --   -1.92955  -1.19260  -0.94681  -0.81842  -0.79244
 Alpha  occ. eigenvalues --   -0.68570  -0.63988  -0.55355  -0.54211  -0.44440
 Alpha  occ. eigenvalues --   -0.43952  -0.41887  -0.30198
 Alpha virt. eigenvalues --    0.10588   0.18881   0.20559   0.25056   0.27345
 Alpha virt. eigenvalues --    0.28393   0.30627   0.31075   0.34825   0.43573
 Alpha virt. eigenvalues --    0.48331

 Mulliken charges:
               1
     1  C   -0.221497
     2  C   -2.034112
     3  O    3.191928
     4  C   -2.002929
     5  C   -0.175991
     6  H    0.254080
     7  H    0.365352
     8  H    0.368583
     9  H    0.254586
 Sum of Mulliken charges =   0.00000

 Dipole moment (field-independent basis, Debye):
    X=             -1.7753    Y=            -10.0318    Z=              0.5933  Tot=             10.2049
 N-N= 1.038937106804D+02 E-N=-1.688703840301D+02  KE=-1.546378639773D+01
 Orbital energies and kinetic energies (alpha):
                                 1                 2
   1         O                -1.929545         -1.367601
   2         O                -1.192602         -1.065975
   3         O                -0.946807         -0.863469
   4         O                -0.818422         -0.604020
   5         O                -0.792438         -0.677442
   6         O                -0.685695         -0.583497
   7         O                -0.639878         -0.515290

 Normal termination of Gaussian 09 at Tue Dec 15 17:07:12 2015.
