 Gaussian 09, Revision D.01,
 Gaussian 09:  ES64L-G09RevD.01 24-Apr-2013

 ------------------------------------------------------------
 #P AM1(Input,print) CIS(Singlets,NStates=15) pop(full) force
 ------------------------------------------------------------

 -----------------
 AM1-Reparam Input
 -----------------
 Symbolic Z-matrix:
 Charge =  0 Multiplicity = 1

                         Standard orientation:
 ---------------------------------------------------------------------
 Center     Atomic      Atomic             Coordinates (Angstroms)
 Number     Number       Type             X           Y           Z
 ---------------------------------------------------------------------
      1          6           0       -0.257164    1.151475   -0.027852
      2          6           0        0.996723    0.546250   -0.011402
      3          8           0        0.909943   -0.750057    0.005757
      4          6           0       -0.485246   -1.033249   -0.014089
      5          6           0       -1.214787    0.121354    0.032600
      6          1           0       -2.271530    0.189291   -0.054279
      7          1           0       -0.693412   -2.123085    0.015739
      8          1           0        1.950343    0.986965    0.051470
      9          1           0       -0.502104    2.232304    0.065469
 ---------------------------------------------------------------------

 SCF Done:  E(RAM1) =   2.03363990176     A.U. after   13 cycles

 Excitation energies and oscillator strengths:

 Excited State   1:      Singlet-A      5.5088 eV  225.07 nm  f=0.3368  <S**2>=0.000
      13 -> 14         0.69384
 This state for optimization and/or second-order correction.
 Total Energy, E(CIS) =   2.23608429256
 Copying the excited state density for this state as the 1-particle RhoCI density.

 Excited State   2:      Singlet-A      6.7451 eV  183.81 nm  f=0.0117  <S**2>=0.000
      13 -> 15         0.64747
      13 -> 17         0.22265
      13 -> 18        -0.10124

 Excited State   3:      Singlet-A      6.8735 eV  180.38 nm  f=0.0002  <S**2>=0.000
      12 -> 14         0.69435

 Excited State   4:      Singlet-A      7.1861 eV  172.53 nm  f=0.0040  <S**2>=0.000
      13 -> 16         0.62460
      13 -> 18         0.26680

 Excited State   5:      Singlet-A      7.7330 eV  160.33 nm  f=0.0071  <S**2>=0.000
      10 -> 14         0.51425
      11 -> 14         0.47431

 Excited State   6:      Singlet-A      8.2078 eV  151.06 nm  f=0.0008  <S**2>=0.000
      13 -> 16        -0.20363
      13 -> 18         0.39511
      13 -> 19         0.32900
      13 -> 20        -0.30734
      13 -> 21         0.25394

 Excited State   7:      Singlet-A      8.7105 eV  142.34 nm  f=0.0443  <S**2>=0.000
      10 -> 14        -0.25642
      10 -> 15         0.11158
      11 -> 14         0.30795
      13 -> 15        -0.16683
      13 -> 17         0.51308

 Excited State   8:      Singlet-A      8.7370 eV  141.91 nm  f=0.0857  <S**2>=0.000
      10 -> 14        -0.38716
      11 -> 14         0.39609
      13 -> 15         0.11173
      13 -> 17        -0.37943

 Excited State   9:      Singlet-A      9.1202 eV  135.94 nm  f=0.0033  <S**2>=0.000
      13 -> 16         0.14565
      13 -> 18        -0.44320
      13 -> 19         0.46370
      13 -> 20        -0.15391
      13 -> 21         0.10717

 Excited State  10:      Singlet-A      9.5484 eV  129.85 nm  f=0.0064  <S**2>=0.000
       9 -> 15         0.11871
      10 -> 15        -0.17548
      10 -> 17        -0.13339
      11 -> 15        -0.11446
      11 -> 17        -0.10665
      12 -> 15        -0.10696
      12 -> 16         0.22819
      12 -> 18         0.23903
      12 -> 19         0.14160
      12 -> 20        -0.10636
      13 -> 18         0.14064
      13 -> 19         0.24474
      13 -> 20         0.34187

 Excited State  11:      Singlet-A      9.6053 eV  129.08 nm  f=0.0170  <S**2>=0.000
      10 -> 15         0.13119
      10 -> 17         0.10929
      11 -> 15         0.11447
      12 -> 16        -0.20361
      12 -> 18        -0.20424
      12 -> 19        -0.11704
      13 -> 18         0.15755
      13 -> 19         0.31896
      13 -> 20         0.33985
      13 -> 21        -0.19937

 Excited State  12:      Singlet-A      9.7065 eV  127.73 nm  f=0.0808  <S**2>=0.000
      10 -> 15        -0.17207
      11 -> 15        -0.14153
      12 -> 15         0.58392
      12 -> 17         0.25786

 Excited State  13:      Singlet-A     10.0291 eV  123.62 nm  f=0.0305  <S**2>=0.000
      10 -> 15        -0.26142
      11 -> 15         0.31675
      13 -> 20         0.27327
      13 -> 21         0.45175

 Excited State  14:      Singlet-A     10.1327 eV  122.36 nm  f=0.0235  <S**2>=0.000
       7 -> 15         0.10415
      10 -> 15         0.36267
      11 -> 15        -0.32320
      13 -> 15         0.11539
      13 -> 20         0.19568
      13 -> 21         0.39429

 Excited State  15:      Singlet-A     10.3638 eV  119.63 nm  f=0.1707  <S**2>=0.000
       8 -> 16         0.13616
       9 -> 15        -0.11278
       9 -> 16         0.11748
      10 -> 15         0.11821
      10 -> 16         0.11059
      10 -> 19         0.10660
      11 -> 15         0.18003
      11 -> 16         0.13990
      12 -> 15         0.13729
      12 -> 16         0.48803
      12 -> 19        -0.18030

 The electronic state is 1-A.
 Alpha  occ. eigenvalues --   -1.93947  -1.19694  -0.94508  -0.81697  -0.78825
 Alpha  occ. eigenvalues --   -0.68460  -0.64732  -0.54872  -0.52976  -0.43689
 Alpha  occ. eigenvalues --   -0.43436  -0.41063  -0.29749
 Alpha virt. eigenvalues --    0.11502   0.18576   0.20598   0.25516   0.27233
 Alpha virt. eigenvalues --    0.29421   0.30383   0.31159   0.36037   0.45009
 Alpha virt. eigenvalues --    0.49034

 Mulliken charges:
               1
     1  C   -0.265488
     2  C   -2.031467
     3  O    3.176722
     4  C   -1.989312
     5  C   -0.123197
     6  H    0.247107
     7  H    0.348503
     8  H    0.378766
     9  H    0.258365
 Sum of Mulliken charges =   0.00000

 Dipole moment (field-independent basis, Debye):
    X=              8.0566    Y=             -6.3735    Z=              0.5053  Tot=             10.2852
 N-N= 1.041857436628D+02 E-N=-1.694709052581D+02  KE=-1.548035233903D+01
 Orbital energies and kinetic energies (alpha):
                                 1                 2
   1         O                -1.939473         -1.386038
   2         O                -1.196937         -1.073953
   3         O                -0.945077         -0.852597
   4         O                -0.816969         -0.607794
   5         O                -0.788251         -0.676423
   6         O                -0.684602         -0.566546
   7         O                -0.647317         -0.518371

 Normal termination of Gaussian 09 at Tue Dec 15 17:07:25 2015.
