 Gaussian 09, Revision D.01,
 Gaussian 09:  ES64L-G09RevD.01 24-Apr-2013

 ------------------------------------------------------------
 #P AM1(Input,print) CIS(Singlets,NStates=15) pop(full) force
 ------------------------------------------------------------

 -----------------
 AM1-Reparam Input
 -----------------
 Symbolic Z-matrix:
 Charge =  0 Multiplicity = 1

                         Standard orientation:
 ---------------------------------------------------------------------
 Center     Atomic      Atomic             Coordinates (Angstroms)
 Number     Number       Type             X           Y           Z
 ---------------------------------------------------------------------
      1          6           0       -0.791361    0.865569   -0.019063
      2          6           0       -1.080120   -0.487728    0.038010
      3          8           0        0.150444   -1.116339   -0.018479
      4          6           0        1.149966   -0.213091   -0.005149
      5          6           0        0.564242    0.995773    0.007387
      6          1           0        1.120018    1.939580    0.030739
      7          1           0        2.137831   -0.601887    0.036199
      8          1           0       -1.978883   -1.080538   -0.012795
      9          1           0       -1.538885    1.710418   -0.033425
 ---------------------------------------------------------------------

 SCF Done:  E(RAM1) =   1.82651289635     A.U. after   13 cycles

 Excitation energies and oscillator strengths:

 Excited State   1:      Singlet-A      5.8399 eV  212.31 nm  f=0.2871  <S**2>=0.000
      11 -> 17        -0.12363
      13 -> 14         0.68184
 This state for optimization and/or second-order correction.
 Total Energy, E(CIS) =   2.04112438914
 Copying the excited state density for this state as the 1-particle RhoCI density.

 Excited State   2:      Singlet-A      6.8133 eV  181.97 nm  f=0.0059  <S**2>=0.000
      10 -> 15         0.11485
      13 -> 15         0.62265
      13 -> 16         0.18577
      13 -> 17        -0.19562

 Excited State   3:      Singlet-A      6.9282 eV  178.95 nm  f=0.0011  <S**2>=0.000
      12 -> 14         0.69174

 Excited State   4:      Singlet-A      7.0900 eV  174.87 nm  f=0.0016  <S**2>=0.000
      10 -> 16        -0.11983
      13 -> 15        -0.19307
      13 -> 16         0.62532
      13 -> 19         0.15914

 Excited State   5:      Singlet-A      7.5895 eV  163.36 nm  f=0.0080  <S**2>=0.000
      11 -> 14         0.69507

 Excited State   6:      Singlet-A      8.3425 eV  148.62 nm  f=0.0009  <S**2>=0.000
      13 -> 18         0.62023
      13 -> 21        -0.28022

 Excited State   7:      Singlet-A      8.3660 eV  148.20 nm  f=0.0107  <S**2>=0.000
      10 -> 15         0.10437
      10 -> 16        -0.11353
      13 -> 15         0.14703
      13 -> 17         0.65106

 Excited State   8:      Singlet-A      9.0319 eV  137.27 nm  f=0.0654  <S**2>=0.000
       9 -> 19        -0.10090
      10 -> 14         0.23219
      11 -> 15         0.26079
      11 -> 16         0.13643
      11 -> 17        -0.30177
      12 -> 16         0.26205
      12 -> 18         0.32051
      12 -> 21        -0.12226
      13 -> 14        -0.13180

 Excited State   9:      Singlet-A      9.0654 eV  136.77 nm  f=0.0421  <S**2>=0.000
      10 -> 14         0.60237
      12 -> 15         0.21178
      12 -> 18        -0.13986

 Excited State  10:      Singlet-A      9.2497 eV  134.04 nm  f=0.0008  <S**2>=0.000
      10 -> 15         0.10404
      10 -> 16         0.10294
      13 -> 16        -0.10673
      13 -> 19         0.65579

 Excited State  11:      Singlet-A      9.3906 eV  132.03 nm  f=0.0983  <S**2>=0.000
       9 -> 15         0.10894
      10 -> 14        -0.15789
      11 -> 15         0.25945
      12 -> 15         0.56416
      12 -> 17        -0.17046
      12 -> 19        -0.11491

 Excited State  12:      Singlet-A      9.7644 eV  126.98 nm  f=0.1190  <S**2>=0.000
      11 -> 16        -0.37944
      11 -> 17         0.10145
      11 -> 19        -0.10380
      12 -> 16         0.44372
      12 -> 17        -0.12331
      12 -> 19         0.10115
      13 -> 18         0.11969
      13 -> 21         0.20718

 Excited State  13:      Singlet-A      9.8053 eV  126.45 nm  f=0.0407  <S**2>=0.000
      10 -> 15        -0.14982
      11 -> 16         0.16681
      12 -> 16        -0.17614
      13 -> 18         0.25064
      13 -> 19         0.10158
      13 -> 20        -0.27360
      13 -> 21         0.48665

 Excited State  14:      Singlet-A      9.9512 eV  124.59 nm  f=0.0904  <S**2>=0.000
      10 -> 16        -0.14226
      13 -> 20         0.60546
      13 -> 21         0.25842

 Excited State  15:      Singlet-A     10.0193 eV  123.75 nm  f=0.1264  <S**2>=0.000
       8 -> 15         0.11073
       8 -> 16        -0.13825
       9 -> 15        -0.13075
       9 -> 16        -0.11608
      10 -> 14        -0.18947
      11 -> 15        -0.17359
      11 -> 16         0.19715
      11 -> 18        -0.24959
      11 -> 19         0.25942
      12 -> 15         0.18125
      12 -> 16         0.17683
      12 -> 17         0.24963
      12 -> 20        -0.15694

 The electronic state is 1-A.
 Alpha  occ. eigenvalues --   -1.94921  -1.22766  -0.98572  -0.81511  -0.80496
 Alpha  occ. eigenvalues --   -0.69645  -0.66567  -0.53936  -0.50079  -0.42639
 Alpha  occ. eigenvalues --   -0.40505  -0.38728  -0.29259
 Alpha virt. eigenvalues --    0.13947   0.19115   0.20403   0.25238   0.27113
 Alpha virt. eigenvalues --    0.30054   0.31268   0.34496   0.36090   0.44464
 Alpha virt. eigenvalues --    0.50073

 Mulliken charges:
               1
     1  C   -0.084704
     2  C   -1.957480
     3  O    3.154268
     4  C   -1.945211
     5  C   -0.108832
     6  H    0.162079
     7  H    0.310448
     8  H    0.311058
     9  H    0.158375
 Sum of Mulliken charges =   0.00000

 Dipole moment (field-independent basis, Debye):
    X=              1.5047    Y=             -9.5413    Z=             -0.4860  Tot=              9.6714
 N-N= 1.043909143980D+02 E-N=-1.700534795193D+02  KE=-1.568282483870D+01
 Orbital energies and kinetic energies (alpha):
                                 1                 2
   1         O                -1.949213         -1.424753
   2         O                -1.227661         -1.080075
   3         O                -0.985725         -0.904274
   4         O                -0.815106         -0.678685
   5         O                -0.804960         -0.637589
   6         O                -0.696450         -0.578934
   7         O                -0.665671         -0.588757

 Normal termination of Gaussian 09 at Tue Dec 15 17:09:59 2015.
