 Gaussian 09, Revision D.01,
 Gaussian 09:  ES64L-G09RevD.01 24-Apr-2013

 ------------------------------------------------------------
 #P AM1(Input,print) CIS(Singlets,NStates=15) pop(full) force
 ------------------------------------------------------------

 -----------------
 AM1-Reparam Input
 -----------------
 Symbolic Z-matrix:
 Charge =  0 Multiplicity = 1

                         Standard orientation:
 ---------------------------------------------------------------------
 Center     Atomic      Atomic             Coordinates (Angstroms)
 Number     Number       Type             X           Y           Z
 ---------------------------------------------------------------------
      1          6           0       -0.873396    0.885094    0.037995
      2          6           0       -1.056651   -0.514862   -0.031016
      3          8           0        0.187870   -1.157394    0.029963
      4          6           0        1.139993   -0.180627   -0.018536
      5          6           0        0.583327    1.030721   -0.014062
      6          1           0        1.102784    1.990162    0.006108
      7          1           0        2.125937   -0.480355   -0.009790
      8          1           0       -1.858154   -1.182478   -0.058149
      9          1           0       -1.633164    1.609865   -0.024166
 ---------------------------------------------------------------------

 SCF Done:  E(RAM1) =   1.73179184865     A.U. after   13 cycles

 Excitation energies and oscillator strengths:

 Excited State   1:      Singlet-A      5.3334 eV  232.47 nm  f=0.3747  <S**2>=0.000
      13 -> 14         0.69532
 This state for optimization and/or second-order correction.
 Total Energy, E(CIS) =   1.92779059709
 Copying the excited state density for this state as the 1-particle RhoCI density.

 Excited State   2:      Singlet-A      6.9425 eV  178.59 nm  f=0.0018  <S**2>=0.000
      12 -> 14         0.70170

 Excited State   3:      Singlet-A      7.2314 eV  171.45 nm  f=0.0024  <S**2>=0.000
      10 -> 15         0.10080
      13 -> 15         0.67015
      13 -> 18        -0.15523

 Excited State   4:      Singlet-A      7.3486 eV  168.72 nm  f=0.0035  <S**2>=0.000
      10 -> 16        -0.10133
      13 -> 16         0.65719
      13 -> 17        -0.18002
      13 -> 19         0.10580

 Excited State   5:      Singlet-A      8.0176 eV  154.64 nm  f=0.0060  <S**2>=0.000
      11 -> 14         0.70021

 Excited State   6:      Singlet-A      8.7699 eV  141.37 nm  f=0.0000  <S**2>=0.000
      10 -> 16         0.10047
      13 -> 16        -0.14839
      13 -> 17        -0.39099
      13 -> 18         0.48315
      13 -> 22        -0.26223

 Excited State   7:      Singlet-A      9.2445 eV  134.12 nm  f=0.0807  <S**2>=0.000
      10 -> 14         0.62035
      13 -> 17         0.21313
      13 -> 18         0.17313

 Excited State   8:      Singlet-A      9.2957 eV  133.38 nm  f=0.0297  <S**2>=0.000
      10 -> 14        -0.28250
      13 -> 15         0.11067
      13 -> 17         0.49023
      13 -> 18         0.36063

 Excited State   9:      Singlet-A      9.7628 eV  127.00 nm  f=0.0044  <S**2>=0.000
      13 -> 19         0.67790

 Excited State  10:      Singlet-A      9.9984 eV  124.00 nm  f=0.0292  <S**2>=0.000
      11 -> 15        -0.16683
      11 -> 17         0.16862
      11 -> 18         0.14071
      12 -> 15        -0.28483
      12 -> 16         0.35158
      12 -> 17        -0.23652
      12 -> 18         0.28004

 Excited State  11:      Singlet-A     10.4430 eV  118.72 nm  f=0.1208  <S**2>=0.000
      11 -> 15        -0.20535
      11 -> 18         0.10766
      12 -> 15         0.59022
      12 -> 16         0.14008
      12 -> 17        -0.18028

 Excited State  12:      Singlet-A     10.5854 eV  117.13 nm  f=0.0070  <S**2>=0.000
      13 -> 18         0.25310
      13 -> 21         0.13099
      13 -> 22         0.62587

 Excited State  13:      Singlet-A     10.6378 eV  116.55 nm  f=0.0894  <S**2>=0.000
      13 -> 20        -0.46178
      13 -> 21         0.48234
      13 -> 22        -0.13918

 Excited State  14:      Singlet-A     10.8250 eV  114.53 nm  f=0.1299  <S**2>=0.000
      10 -> 14        -0.12942
      11 -> 15         0.16628
      12 -> 16         0.26013
      12 -> 19         0.11845
      13 -> 20         0.38625
      13 -> 21         0.39340

 Excited State  15:      Singlet-A     10.9209 eV  113.53 nm  f=0.1311  <S**2>=0.000
      11 -> 16         0.30168
      11 -> 17        -0.14063
      12 -> 16         0.40408
      12 -> 17         0.11802
      12 -> 18        -0.12079
      12 -> 19         0.14837
      13 -> 20        -0.29550
      13 -> 21        -0.22756

 The electronic state is 1-A.
 Alpha  occ. eigenvalues --   -1.90064  -1.15804  -0.92496  -0.81883  -0.78569
 Alpha  occ. eigenvalues --   -0.70242  -0.66707  -0.56761  -0.55622  -0.46756
 Alpha  occ. eigenvalues --   -0.45372  -0.41898  -0.29986
 Alpha virt. eigenvalues --    0.10179   0.19516   0.20386   0.27437   0.28918
 Alpha virt. eigenvalues --    0.30345   0.32306   0.32902   0.34846   0.41154
 Alpha virt. eigenvalues --    0.44688

 Mulliken charges:
               1
     1  C   -0.163627
     2  C   -2.015099
     3  O    3.299274
     4  C   -2.010678
     5  C   -0.169512
     6  H    0.207593
     7  H    0.333302
     8  H    0.312052
     9  H    0.206694
 Sum of Mulliken charges =   0.00000

 Dipole moment (field-independent basis, Debye):
    X=              2.2807    Y=            -10.7748    Z=              0.6949  Tot=             11.0355
 N-N= 1.033208812822D+02 E-N=-1.682734854632D+02  KE=-1.546153333688D+01
 Orbital energies and kinetic energies (alpha):
                                 1                 2
   1         O                -1.900642         -1.345798
   2         O                -1.158040         -1.039959
   3         O                -0.924957         -0.883701
   4         O                -0.818825         -0.580832
   5         O                -0.785691         -0.697639
   6         O                -0.702421         -0.589539
   7         O                -0.667071         -0.527557

 Normal termination of Gaussian 09 at Tue Dec 15 17:09:46 2015.
