 Gaussian 09, Revision D.01,
 Gaussian 09:  ES64L-G09RevD.01 24-Apr-2013

 ------------------------------------------------------------
 #P AM1(Input,print) CIS(Singlets,NStates=15) pop(full) force
 ------------------------------------------------------------

 -----------------
 AM1-Reparam Input
 -----------------
 Symbolic Z-matrix:
 Charge =  0 Multiplicity = 1

                         Standard orientation:
 ---------------------------------------------------------------------
 Center     Atomic      Atomic             Coordinates (Angstroms)
 Number     Number       Type             X           Y           Z
 ---------------------------------------------------------------------
      1          6           0       -1.019134    0.700298   -0.028078
      2          6           0       -0.896149   -0.702093    0.005899
      3          8           0        0.366618   -1.083516   -0.012352
      4          6           0        1.164285   -0.002440    0.015332
      5          6           0        0.363164    1.140054    0.027278
      6          1           0        0.743042    2.129363   -0.022659
      7          1           0        2.214252   -0.156025   -0.065589
      8          1           0       -1.697125   -1.438065    0.071687
      9          1           0       -1.866105    1.317940   -0.007204
 ---------------------------------------------------------------------

 SCF Done:  E(RAM1) =   1.78581482793     A.U. after   13 cycles

 Excitation energies and oscillator strengths:

 Excited State   1:      Singlet-A      5.7401 eV  216.00 nm  f=0.3483  <S**2>=0.000
      13 -> 14         0.69130
 This state for optimization and/or second-order correction.
 Total Energy, E(CIS) =   1.99676077887
 Copying the excited state density for this state as the 1-particle RhoCI density.

 Excited State   2:      Singlet-A      6.6950 eV  185.19 nm  f=0.0019  <S**2>=0.000
      12 -> 14         0.62355
      13 -> 15         0.29407

 Excited State   3:      Singlet-A      6.7424 eV  183.89 nm  f=0.0053  <S**2>=0.000
      12 -> 14        -0.31576
      13 -> 15         0.58436
      13 -> 17         0.16412

 Excited State   4:      Singlet-A      7.0160 eV  176.72 nm  f=0.0016  <S**2>=0.000
      13 -> 16         0.64597
      13 -> 18        -0.17196
      13 -> 19        -0.10682

 Excited State   5:      Singlet-A      7.7822 eV  159.32 nm  f=0.0044  <S**2>=0.000
      10 -> 14         0.56938
      11 -> 14         0.40723

 Excited State   6:      Singlet-A      8.3181 eV  149.05 nm  f=0.0028  <S**2>=0.000
      11 -> 15        -0.11047
      13 -> 15        -0.12369
      13 -> 17         0.32279
      13 -> 18         0.50116
      13 -> 21         0.31104

 Excited State   7:      Singlet-A      8.5803 eV  144.50 nm  f=0.0115  <S**2>=0.000
      11 -> 16         0.14307
      13 -> 16        -0.14236
      13 -> 17         0.56881
      13 -> 18        -0.29520
      13 -> 21        -0.12931

 Excited State   8:      Singlet-A      8.7993 eV  140.90 nm  f=0.1019  <S**2>=0.000
      10 -> 14        -0.39861
      11 -> 14         0.55340

 Excited State   9:      Singlet-A      9.1219 eV  135.92 nm  f=0.0104  <S**2>=0.000
       8 -> 15        -0.10938
       9 -> 15        -0.10969
      10 -> 15        -0.14869
      10 -> 16        -0.16561
      10 -> 17        -0.17353
      11 -> 16        -0.10512
      11 -> 17        -0.12477
      12 -> 15         0.38233
      12 -> 16        -0.20552
      12 -> 17         0.13474
      12 -> 18         0.28503
      12 -> 21         0.11756

 Excited State  10:      Singlet-A      9.1835 eV  135.01 nm  f=0.0006  <S**2>=0.000
      13 -> 19         0.66833

 Excited State  11:      Singlet-A      9.6430 eV  128.57 nm  f=0.0549  <S**2>=0.000
      10 -> 16        -0.14796
      11 -> 16        -0.11483
      12 -> 15         0.24936
      12 -> 16         0.54921
      12 -> 17         0.17867
      12 -> 18        -0.12150

 Excited State  12:      Singlet-A      9.7134 eV  127.64 nm  f=0.0199  <S**2>=0.000
      11 -> 15        -0.17288
      11 -> 16        -0.13529
      13 -> 18        -0.32808
      13 -> 21         0.53225

 Excited State  13:      Singlet-A      9.7783 eV  126.79 nm  f=0.1529  <S**2>=0.000
       9 -> 16        -0.10192
      10 -> 15         0.16909
      10 -> 16         0.13904
      10 -> 17         0.14516
      11 -> 15         0.25933
      11 -> 16         0.12124
      11 -> 17         0.12314
      12 -> 15         0.40026
      12 -> 16        -0.12685
      12 -> 19         0.17036
      13 -> 21         0.21054

 Excited State  14:      Singlet-A      9.9727 eV  124.32 nm  f=0.0712  <S**2>=0.000
      10 -> 15         0.29658
      11 -> 15        -0.24509
      13 -> 20         0.55513

 Excited State  15:      Singlet-A      9.9985 eV  124.00 nm  f=0.0206  <S**2>=0.000
       9 -> 15         0.18916
      10 -> 15         0.43187
      10 -> 19         0.13856
      11 -> 16        -0.18199
      12 -> 17         0.16053
      13 -> 20        -0.31310
      13 -> 21        -0.14604

 The electronic state is 1-A.
 Alpha  occ. eigenvalues --   -1.94701  -1.20040  -0.97608  -0.81721  -0.79959
 Alpha  occ. eigenvalues --   -0.68937  -0.67151  -0.53202  -0.49571  -0.42803
 Alpha  occ. eigenvalues --   -0.42392  -0.39137  -0.29215
 Alpha virt. eigenvalues --    0.12503   0.18611   0.19727   0.26082   0.27776
 Alpha virt. eigenvalues --    0.29643   0.31391   0.33273   0.38386   0.46627
 Alpha virt. eigenvalues --    0.52151

 Mulliken charges:
               1
     1  C   -0.100952
     2  C   -1.970907
     3  O    3.142305
     4  C   -1.949053
     5  C   -0.073234
     6  H    0.155268
     7  H    0.310765
     8  H    0.326647
     9  H    0.159162
 Sum of Mulliken charges =   0.00000

 Dipole moment (field-independent basis, Debye):
    X=              2.8305    Y=             -9.0754    Z=             -0.3438  Tot=              9.5128
 N-N= 1.040272705793D+02 E-N=-1.694999934960D+02  KE=-1.565417274281D+01
 Orbital energies and kinetic energies (alpha):
                                 1                 2
   1         O                -1.947013         -1.431025
   2         O                -1.200399         -1.070055
   3         O                -0.976077         -0.893653
   4         O                -0.817214         -0.623943
   5         O                -0.799587         -0.699265
   6         O                -0.689366         -0.566448
   7         O                -0.671512         -0.586573

 Normal termination of Gaussian 09 at Tue Dec 15 17:09:51 2015.
