 Gaussian 09, Revision D.01,
 Gaussian 09:  ES64L-G09RevD.01 24-Apr-2013

 -------------------------------------------------------
 #P B3LYP/3-21G CIS(Singlets,NStates=15) pop(full) force
 -------------------------------------------------------

 --------
 FuranDFT
 --------
 Symbolic Z-matrix:
 Charge =  0 Multiplicity = 1

                         Standard orientation:
 ---------------------------------------------------------------------
 Center     Atomic      Atomic             Coordinates (Angstroms)
 Number     Number       Type             X           Y           Z
 ---------------------------------------------------------------------
      1          6           0        0.269649    1.157506   -0.027083
      2          6           0        1.157473    0.128801    0.036511
      3          8           0        0.480125   -1.103581   -0.017696
      4          6           0       -0.879646   -0.711124    0.014942
      5          6           0       -1.066506    0.611417   -0.011165
      6          1           0       -1.941303    1.097651    0.039832
      7          1           0       -1.572960   -1.579756    0.011849
      8          1           0        2.206221    0.002054   -0.027439
      9          1           0        0.581217    2.189097    0.038100
 ---------------------------------------------------------------------

 SCF Done:  E(RB3LYP) =  -228.742688987     A.U. after   14 cycles

 Excitation energies and oscillator strengths:

 Excited State   1:      Singlet-A      7.0374 eV  176.18 nm  f=0.1657  <S**2>=0.000
      17 -> 19        -0.16421
      18 -> 19         0.63936
      18 -> 20        -0.18543
 This state for optimization and/or second-order correction.
 Total Energy, E(CIS) =  -228.484068980
 Copying the excited state density for this state as the 1-particle RhoCI density.

 Excited State   2:      Singlet-A      7.2172 eV  171.79 nm  f=0.0331  <S**2>=0.000
      17 -> 19         0.49998
      18 -> 19         0.23872
      18 -> 20         0.42133

 Excited State   3:      Singlet-A      8.6183 eV  143.86 nm  f=0.0006  <S**2>=0.000
      18 -> 21         0.68421
      18 -> 22        -0.14571

 Excited State   4:      Singlet-A      8.7761 eV  141.27 nm  f=0.0056  <S**2>=0.000
      16 -> 19         0.69604

 Excited State   5:      Singlet-A      9.2598 eV  133.89 nm  f=0.0006  <S**2>=0.000
      18 -> 21         0.14088
      18 -> 22         0.65382
      18 -> 23        -0.17072

 Excited State   6:      Singlet-A      9.3839 eV  132.12 nm  f=0.1865  <S**2>=0.000
      17 -> 19         0.20173
      17 -> 20         0.57581
      18 -> 20        -0.25203
      18 -> 23         0.12121

 Excited State   7:      Singlet-A      9.5144 eV  130.31 nm  f=0.0293  <S**2>=0.000
      15 -> 19        -0.10394
      17 -> 20        -0.21188
      17 -> 21        -0.14164
      18 -> 22         0.15634
      18 -> 23         0.60363
      18 -> 24         0.10529

 Excited State   8:      Singlet-A      9.6973 eV  127.85 nm  f=0.2694  <S**2>=0.000
      15 -> 19         0.37008
      17 -> 19         0.28977
      17 -> 20        -0.26312
      17 -> 21        -0.12993
      18 -> 20        -0.33646
      18 -> 23        -0.13243

 Excited State   9:      Singlet-A      9.8596 eV  125.75 nm  f=0.1352  <S**2>=0.000
      15 -> 19         0.56414
      17 -> 19        -0.19911
      17 -> 20         0.12995
      18 -> 20         0.22269
      18 -> 23         0.16744

 Excited State  10:      Singlet-A      9.9414 eV  124.72 nm  f=0.0136  <S**2>=0.000
      15 -> 19         0.12841
      17 -> 21         0.64996
      17 -> 22        -0.12475
      18 -> 23         0.15418

 Excited State  11:      Singlet-A     10.4146 eV  119.05 nm  f=0.0070  <S**2>=0.000
      12 -> 19        -0.10136
      13 -> 19         0.15531
      14 -> 19         0.25032
      16 -> 20         0.14772
      17 -> 22         0.57178
      18 -> 25         0.15863

 Excited State  12:      Singlet-A     10.4543 eV  118.60 nm  f=0.0015  <S**2>=0.000
      12 -> 19        -0.20185
      13 -> 19         0.21126
      14 -> 19         0.42964
      16 -> 20         0.22964
      17 -> 22        -0.35056
      18 -> 24        -0.18076

 Excited State  13:      Singlet-A     10.5463 eV  117.56 nm  f=0.0014  <S**2>=0.000
      12 -> 19         0.15673
      13 -> 19         0.37703
      14 -> 19        -0.16184
      16 -> 20         0.32841
      18 -> 24         0.40071

 Excited State  14:      Singlet-A     10.5826 eV  117.16 nm  f=0.0030  <S**2>=0.000
      12 -> 19        -0.22619
      13 -> 19        -0.17989
      14 -> 19         0.29787
      16 -> 20        -0.16549
      18 -> 24         0.51928

 Excited State  15:      Singlet-A     10.6803 eV  116.09 nm  f=0.0084  <S**2>=0.000
      16 -> 20        -0.14211
      17 -> 22        -0.14513
      18 -> 25         0.65508

 The electronic state is 1-A.
 Alpha  occ. eigenvalues --  -19.10704 -10.17872 -10.17414 -10.12985 -10.12342
 Alpha  occ. eigenvalues --   -1.09641  -0.81156  -0.74057  -0.60090  -0.57115
 Alpha  occ. eigenvalues --   -0.54362  -0.43396  -0.43270  -0.42791  -0.40093
 Alpha  occ. eigenvalues --   -0.36715  -0.27980  -0.23455
 Alpha virt. eigenvalues --    0.01383   0.07819   0.13205   0.14805   0.16618
 Alpha virt. eigenvalues --    0.19381   0.20049   0.22269   0.34549   0.41478
 Alpha virt. eigenvalues --    0.46249   0.67449   0.69995   0.70096   0.75326

 Mulliken charges:
               1
     1  C   -0.244936
     2  C    0.063040
     3  O   -0.457881
     4  C    0.075443
     5  C   -0.249022
     6  H    0.195557
     7  H    0.210352
     8  H    0.217825
     9  H    0.189622
 Sum of Mulliken charges =   0.00000

 Dipole moment (field-independent basis, Debye):
    X=             -0.3750    Y=              0.8210    Z=              0.0767  Tot=              0.9059
 Quadrupole moment (field-independent basis, Debye-Ang):
   XX=            -24.0168   YY=            -27.6988   ZZ=            -31.8001
   XY=              1.5268   XZ=             -0.1756   YZ=              0.1398

 Normal termination of Gaussian 09 at Tue Dec 15 16:20:30 2015.
