 Gaussian 09, Revision D.01,
 Gaussian 09:  ES64L-G09RevD.01 24-Apr-2013

 ------------------------------------------------------------
 #P AM1(Input,print) CIS(Singlets,NStates=15) pop(full) force
 ------------------------------------------------------------

 -----------------
 AM1-Reparam Input
 -----------------
 Symbolic Z-matrix:
 Charge =  0 Multiplicity = 1

                         Standard orientation:
 ---------------------------------------------------------------------
 Center     Atomic      Atomic             Coordinates (Angstroms)
 Number     Number       Type             X           Y           Z
 ---------------------------------------------------------------------
      1          6           0       -0.649419    0.961871   -0.002631
      2          6           0       -1.095568   -0.246318    0.001723
      3          8           0       -0.104229   -1.154401    0.000617
      4          6           0        1.085947   -0.418762   -0.000511
      5          6           0        0.768999    0.916622    0.000003
      6          1           0        1.440928    1.691179    0.031100
      7          1           0        2.021488   -0.928274   -0.019471
      8          1           0       -2.054341   -0.701881    0.012815
      9          1           0       -1.233998    1.893702   -0.020884
 ---------------------------------------------------------------------

 SCF Done:  E(RAM1) =   1.74955511232     A.U. after   14 cycles

 Excitation energies and oscillator strengths:

 Excited State   1:      Singlet-A      5.3541 eV  231.57 nm  f=0.3353  <S**2>=0.000
      13 -> 14         0.69414
 This state for optimization and/or second-order correction.
 Total Energy, E(CIS) =   1.94631621881
 Copying the excited state density for this state as the 1-particle RhoCI density.

 Excited State   2:      Singlet-A      6.0344 eV  205.46 nm  f=0.0012  <S**2>=0.000
      11 -> 15         0.11659
      13 -> 15         0.67059
      13 -> 17         0.12727

 Excited State   3:      Singlet-A      6.5945 eV  188.01 nm  f=0.0040  <S**2>=0.000
      11 -> 16        -0.11067
      13 -> 16         0.62855
      13 -> 17         0.20882
      13 -> 19         0.13820
      13 -> 20         0.13608

 Excited State   4:      Singlet-A      7.0408 eV  176.09 nm  f=0.0003  <S**2>=0.000
      12 -> 14         0.67560
      13 -> 20         0.16374

 Excited State   5:      Singlet-A      7.5015 eV  165.28 nm  f=0.0000  <S**2>=0.000
      12 -> 14        -0.17646
      13 -> 16        -0.13905
      13 -> 20         0.61774
      13 -> 21         0.21355

 Excited State   6:      Singlet-A      7.6766 eV  161.51 nm  f=0.0204  <S**2>=0.000
      10 -> 14        -0.10021
      13 -> 15        -0.13358
      13 -> 16        -0.15219
      13 -> 17         0.63469
      13 -> 18         0.10844
      13 -> 19        -0.11245

 Excited State   7:      Singlet-A      8.1737 eV  151.69 nm  f=0.0012  <S**2>=0.000
      10 -> 14         0.68428

 Excited State   8:      Singlet-A      8.3628 eV  148.26 nm  f=0.0009  <S**2>=0.000
      13 -> 16         0.13941
      13 -> 17        -0.12640
      13 -> 18         0.56090
      13 -> 19        -0.33411
      13 -> 21         0.11875

 Excited State   9:      Singlet-A      8.5779 eV  144.54 nm  f=0.0146  <S**2>=0.000
      13 -> 18         0.38428
      13 -> 19         0.54007
      13 -> 21        -0.19076

 Excited State  10:      Singlet-A      8.7318 eV  141.99 nm  f=0.0616  <S**2>=0.000
      11 -> 14         0.64633
      12 -> 15         0.19233

 Excited State  11:      Singlet-A      9.0931 eV  136.35 nm  f=0.0795  <S**2>=0.000
      13 -> 19         0.22613
      13 -> 20        -0.21138
      13 -> 21         0.62105

 Excited State  12:      Singlet-A      9.2404 eV  134.18 nm  f=0.1237  <S**2>=0.000
       8 -> 15        -0.15882
      10 -> 17        -0.18981
      11 -> 14        -0.18617
      12 -> 15         0.45781
      12 -> 16        -0.22390
      12 -> 18         0.16577
      12 -> 20        -0.22370

 Excited State  13:      Singlet-A      9.6363 eV  128.66 nm  f=0.0472  <S**2>=0.000
      10 -> 15         0.22961
      10 -> 17         0.20588
      11 -> 15         0.17170
      12 -> 15         0.40878
      12 -> 16         0.20857
      12 -> 17         0.18903
      12 -> 20         0.16524
      12 -> 21         0.15008

 Excited State  14:      Singlet-A      9.7103 eV  127.68 nm  f=0.0123  <S**2>=0.000
       7 -> 15        -0.13225
      11 -> 15         0.61300
      11 -> 16         0.14487
      11 -> 17         0.11942
      12 -> 15        -0.12640
      13 -> 15        -0.12471

 Excited State  15:      Singlet-A     10.0927 eV  122.84 nm  f=0.2793  <S**2>=0.000
       8 -> 16         0.17844
      10 -> 15        -0.13226
      10 -> 17        -0.11918
      10 -> 19         0.18685
      11 -> 14        -0.11661
      11 -> 16         0.13311
      12 -> 16         0.38082
      12 -> 17        -0.23611
      12 -> 18         0.17264
      12 -> 19         0.26778

 The electronic state is 1-A.
 Alpha  occ. eigenvalues --   -1.91567  -1.23610  -1.00403  -0.82364  -0.80845
 Alpha  occ. eigenvalues --   -0.69134  -0.63872  -0.53922  -0.51943  -0.43440
 Alpha  occ. eigenvalues --   -0.42213  -0.40014  -0.27233
 Alpha virt. eigenvalues --    0.13251   0.17293   0.20449   0.25509   0.27854
 Alpha virt. eigenvalues --    0.29166   0.29584   0.30214   0.35861   0.45055
 Alpha virt. eigenvalues --    0.49355

 Mulliken charges:
               1
     1  C   -0.148540
     2  C   -1.898049
     3  O    3.179107
     4  C   -1.948651
     5  C   -0.125798
     6  H    0.176439
     7  H    0.301509
     8  H    0.289428
     9  H    0.174556
 Sum of Mulliken charges =   0.00000

 Dipole moment (field-independent basis, Debye):
    X=             -1.4391    Y=            -10.5820    Z=             -0.0052  Tot=             10.6794
 N-N= 1.043649394247D+02 E-N=-1.700336929313D+02  KE=-1.578585563658D+01
 Orbital energies and kinetic energies (alpha):
                                 1                 2
   1         O                -1.915666         -1.380610
   2         O                -1.236099         -1.111459
   3         O                -1.004025         -0.928951
   4         O                -0.823645         -0.639772
   5         O                -0.808452         -0.697144
   6         O                -0.691344         -0.584899
   7         O                -0.638720         -0.518220

 Normal termination of Gaussian 09 at Tue Dec 15 17:06:53 2015.
