 Gaussian 09, Revision D.01,
 Gaussian 09:  ES64L-G09RevD.01 24-Apr-2013

 ------------------------------------------------------------
 #P AM1(Input,print) CIS(Singlets,NStates=15) pop(full) force
 ------------------------------------------------------------

 -----------------
 AM1-Reparam Input
 -----------------
 Symbolic Z-matrix:
 Charge =  0 Multiplicity = 1

                         Standard orientation:
 ---------------------------------------------------------------------
 Center     Atomic      Atomic             Coordinates (Angstroms)
 Number     Number       Type             X           Y           Z
 ---------------------------------------------------------------------
      1          6           0        0.760338    0.887249   -0.009021
      2          6           0        1.077972   -0.418550    0.017701
      3          8           0       -0.077139   -1.163490   -0.014097
      4          6           0       -1.145988   -0.238772    0.027431
      5          6           0       -0.613710    0.982587   -0.024102
      6          1           0       -1.233499    1.867463    0.041784
      7          1           0       -2.067250   -0.683119   -0.020846
      8          1           0        1.969513   -0.900513   -0.005957
      9          1           0        1.476681    1.749002    0.025739
 ---------------------------------------------------------------------

 SCF Done:  E(RAM1) =   1.76595430375     A.U. after   13 cycles

 Excitation energies and oscillator strengths:

 Excited State   1:      Singlet-A      5.5861 eV  221.95 nm  f=0.3304  <S**2>=0.000
      13 -> 14         0.68975
 This state for optimization and/or second-order correction.
 Total Energy, E(CIS) =   1.97124072504
 Copying the excited state density for this state as the 1-particle RhoCI density.

 Excited State   2:      Singlet-A      7.2364 eV  171.34 nm  f=0.0012  <S**2>=0.000
      12 -> 14         0.69864

 Excited State   3:      Singlet-A      7.3781 eV  168.04 nm  f=0.0057  <S**2>=0.000
      13 -> 15         0.66105
      13 -> 17        -0.13288

 Excited State   4:      Singlet-A      7.5540 eV  164.13 nm  f=0.0007  <S**2>=0.000
      13 -> 15        -0.10301
      13 -> 16         0.65476
      13 -> 19        -0.15107

 Excited State   5:      Singlet-A      7.7894 eV  159.17 nm  f=0.0050  <S**2>=0.000
      11 -> 14         0.69207

 Excited State   6:      Singlet-A      9.0037 eV  137.70 nm  f=0.0003  <S**2>=0.000
      13 -> 17        -0.24275
      13 -> 18         0.58972
      13 -> 22         0.24801

 Excited State   7:      Singlet-A      9.2974 eV  133.35 nm  f=0.0061  <S**2>=0.000
      13 -> 15         0.11623
      13 -> 17         0.62956
      13 -> 18         0.23250

 Excited State   8:      Singlet-A      9.5839 eV  129.37 nm  f=0.0651  <S**2>=0.000
      10 -> 14         0.65469
      13 -> 20        -0.16127

 Excited State   9:      Singlet-A      9.9277 eV  124.89 nm  f=0.0399  <S**2>=0.000
       9 -> 15         0.10913
      11 -> 15        -0.21437
      11 -> 16        -0.19784
      11 -> 17         0.29471
      12 -> 15        -0.25506
      12 -> 16         0.18842
      12 -> 18         0.32778
      13 -> 14        -0.10870
      13 -> 19        -0.15116

 Excited State  10:      Singlet-A      9.9415 eV  124.71 nm  f=0.0057  <S**2>=0.000
      13 -> 16         0.10344
      13 -> 18         0.16477
      13 -> 19         0.62816

 Excited State  11:      Singlet-A     10.5034 eV  118.04 nm  f=0.1855  <S**2>=0.000
      11 -> 16         0.24981
      12 -> 16         0.60101
      12 -> 17        -0.10195
      12 -> 19        -0.12139

 Excited State  12:      Singlet-A     10.5409 eV  117.62 nm  f=0.1329  <S**2>=0.000
      10 -> 14        -0.10092
      11 -> 15        -0.40865
      11 -> 17         0.10685
      11 -> 19        -0.10239
      12 -> 15         0.47624
      12 -> 17        -0.11621
      13 -> 20        -0.16160

 Excited State  13:      Singlet-A     10.6592 eV  116.32 nm  f=0.0653  <S**2>=0.000
      10 -> 14         0.13768
      11 -> 15        -0.15850
      11 -> 16         0.12123
      13 -> 20         0.61014
      13 -> 21         0.17848

 Excited State  14:      Singlet-A     10.7443 eV  115.39 nm  f=0.0668  <S**2>=0.000
      13 -> 18         0.14248
      13 -> 19        -0.12477
      13 -> 20        -0.18749
      13 -> 21         0.54691
      13 -> 22        -0.29880

 Excited State  15:      Singlet-A     10.9330 eV  113.40 nm  f=0.0291  <S**2>=0.000
      13 -> 18        -0.17092
      13 -> 21         0.32983
      13 -> 22         0.54038

 The electronic state is 1-A.
 Alpha  occ. eigenvalues --   -1.90537  -1.19156  -0.93702  -0.81402  -0.79922
 Alpha  occ. eigenvalues --   -0.70317  -0.67832  -0.57131  -0.55524  -0.46883
 Alpha  occ. eigenvalues --   -0.43022  -0.41544  -0.30281
 Alpha virt. eigenvalues --    0.11905   0.20438   0.20962   0.27428   0.28731
 Alpha virt. eigenvalues --    0.31243   0.31776   0.33234   0.36474   0.40740
 Alpha virt. eigenvalues --    0.43981

 Mulliken charges:
               1
     1  C   -0.188540
     2  C   -2.029372
     3  O    3.305078
     4  C   -1.998061
     5  C   -0.155222
     6  H    0.210209
     7  H    0.311995
     8  H    0.332850
     9  H    0.211062
 Sum of Mulliken charges =   0.00000

 Dipole moment (field-independent basis, Debye):
    X=             -0.5428    Y=            -11.0119    Z=             -0.5755  Tot=             11.0403
 N-N= 1.040899799667D+02 E-N=-1.695577704645D+02  KE=-1.554521693459D+01
 Orbital energies and kinetic energies (alpha):
                                 1                 2
   1         O                -1.905365         -1.352652
   2         O                -1.191559         -1.063482
   3         O                -0.937021         -0.905171
   4         O                -0.814022         -0.570687
   5         O                -0.799225         -0.705463
   6         O                -0.703166         -0.589984
   7         O                -0.678320         -0.546640

 Normal termination of Gaussian 09 at Tue Dec 15 17:09:38 2015.
