 Gaussian 09, Revision D.01,
 Gaussian 09:  ES64L-G09RevD.01 24-Apr-2013

 ----------------------------
 #P AM1(Input,print) Opt Freq
 ----------------------------

 -----------------
 AM1-Reparam Input
 -----------------
 Symbolic Z-matrix:
 Charge =  0 Multiplicity = 1

 SCF Done:  E(RAM1) =   1.82078340677     A.U. after   13 cycles
 SCF Done:  E(RAM1) =   1.76338780240     A.U. after   11 cycles
 SCF Done:  E(RAM1) =   1.75246676224     A.U. after   11 cycles
 SCF Done:  E(RAM1) =   1.75262281934     A.U. after   11 cycles
 SCF Done:  E(RAM1) =   1.75214281089     A.U. after    8 cycles
 SCF Done:  E(RAM1) =   1.75210154791     A.U. after   10 cycles
 SCF Done:  E(RAM1) =   1.75202218836     A.U. after   10 cycles
 SCF Done:  E(RAM1) =   1.75202008245     A.U. after    9 cycles
 SCF Done:  E(RAM1) =   1.75202007318     A.U. after    9 cycles
 SCF Done:  E(RAM1) =   1.75201860393     A.U. after    9 cycles
 Optimization completed.
    -- Stationary point found.
 Normal termination of Gaussian 09 at Tue Dec  1 17:37:45 2015.

 -------------------------------------------------------------
 #P Geom=AllCheck Guess=TCheck SCRF=Check GenChk RAM1/ZDO Freq
 -------------------------------------------------------------

 Structure from the checkpoint file:  "/home/Applications/g09/scratch/Gau-23878.chk"
 -----------------
 AM1-Reparam Input
 -----------------
 Charge =  0 Multiplicity = 1

                         Standard orientation:
 ---------------------------------------------------------------------
 Center     Atomic      Atomic             Coordinates (Angstroms)
 Number     Number       Type             X           Y           Z
 ---------------------------------------------------------------------
      1          6           0        0.679327    0.911258    0.000022
      2          6           0        1.080066   -0.324040   -0.000006
      3          8           0        0.000579   -1.141097    0.000010
      4          6           0       -1.079742   -0.325086    0.000028
      5          6           0       -0.680241    0.910684    0.000086
      6          1           0       -1.304602    1.794450   -0.000353
      7          1           0       -2.056740   -0.750068   -0.000244
      8          1           0        2.057440   -0.748113   -0.000182
      9          1           0        1.302815    1.795603   -0.000080
 ---------------------------------------------------------------------

 SCF Done:  E(RAM1) =   1.75201860393     A.U. after    2 cycles

 The electronic state is 1-A.
 Alpha  occ. eigenvalues --   -1.58329  -1.12503  -0.93850  -0.86504  -0.81479
 Alpha  occ. eigenvalues --   -0.73503  -0.71372  -0.58534  -0.56182  -0.53705
 Alpha  occ. eigenvalues --   -0.51305  -0.48210  -0.40834
 Alpha virt. eigenvalues --    0.02918   0.07858   0.12699   0.13968   0.19243
 Alpha virt. eigenvalues --    0.20924   0.21526   0.39831   0.49349   0.60333
 Alpha virt. eigenvalues --    0.69780

 Mulliken charges:
               1
     1  C   -0.098906
     2  C    0.356059
     3  O   -0.287436
     4  C    0.356055
     5  C   -0.098867
     6  H   -0.023018
     7  H   -0.090441
     8  H   -0.090447
     9  H   -0.022999
 Sum of Mulliken charges =   0.00000

 Dipole moment (field-independent basis, Debye):
    X=             -0.0002    Y=              0.4412    Z=              0.0001  Tot=              0.4412
 N-N= 1.049804906442D+02 E-N=-1.735453411880D+02  KE=-1.318541203267D+01
  Exact polarizability:  35.607  -0.001  36.505   0.001   0.000   6.386
 Approx polarizability:  28.077  -0.003  33.537   0.000   0.000   5.004
 Leave Link  601 at Tue Dec  1 17:37:45 2015, MaxMem=    33554432 cpu:         0.0
 (Enter /home/Applications/g09/g09/l701.exe)
 Compute integral second derivatives.
 ... and contract with generalized density number  0.
 Leave Link  701 at Tue Dec  1 17:37:45 2015, MaxMem=    33554432 cpu:         0.0
 (Enter /home/Applications/g09/g09/l702.exe)
 L702 exits ... SP integral derivatives will be done elsewhere.

                      1                      2                      3
                      A                      A                      A
 Frequencies --    649.4779               657.4079               773.5693
 Red. masses --      2.1602                 1.7730                 7.1202
 Frc consts  --      0.5369                 0.4515                 2.5104
 IR Inten    --      3.4128                 0.0001                 4.2979

                      4                      5                      6
                      A                      A                      A
 Frequencies --    837.9723               992.1657              1130.9745
 Red. masses --      7.7038                 1.1755                 1.0454
 Frc consts  --      3.1872                 0.6818                 0.7878
 IR Inten    --      0.0066                 3.6560                 5.8264

                      7                      8                      9
                      A                      A                      A
 Frequencies --   1132.3197              1155.3958              1171.1875
 Red. masses --      1.2949                 1.0973                 1.8059
 Frc consts  --      0.9782                 0.8630                 1.4595
 IR Inten    --      0.0000                 9.8669                33.0963

                     10                     11                     12
                      A                      A                      A
 Frequencies --   1183.6719              1250.8921              1340.2886
 Red. masses --      1.9282                 1.0811                 1.1695
 Frc consts  --      1.5917                 0.9967                 1.2378
 IR Inten    --      0.0005                 0.7423                 2.8353

                     13                     14                     15
                      A                      A                      A
 Frequencies --   1558.5816              1641.4516              1771.6753
 Red. masses --      7.9943                10.2128                 6.8512
 Frc consts  --     11.4416                16.2126                12.6703
 IR Inten    --     30.8194                 2.6668                36.6077

                     16                     17                     18
                      A                      A                      A
 Frequencies --   1945.7226              2016.5653              3275.7974
 Red. masses --      9.5588                 8.4784                 1.0779
 Frc consts  --     21.3214                20.3136                 6.8152
 IR Inten    --     52.4699                 2.2122                84.7639

                     19                     20                     21
                      A                      A                      A
 Frequencies --   3292.6181              3387.5513              3389.1985
 Red. masses --      1.0859                 1.0789                 1.0815
 Frc consts  --      6.9363                 7.2944                 7.3195
 IR Inten    --    146.5042                59.8052                 7.0169

 - Thermochemistry -
 -------------------
 Temperature   298.150 Kelvin.  Pressure   1.00000 Atm.
 Atom     1 has atomic number  6 and mass  12.00000

 Molecular mass:    68.02621 amu.
 Principal axes and moments of inertia in atomic units:
                           1         2         3
     Eigenvalues --   181.53427 182.24776 363.78203
           X            0.99996   0.00872   0.00001
           Y           -0.00872   0.99996  -0.00001
           Z           -0.00001   0.00001   1.00000
 This molecule is an asymmetric top.
 Rotational symmetry number  1.
 Rotational temperatures (Kelvin)      0.47712     0.47525     0.23809
 Rotational constants (GHZ):           9.94160     9.90268     4.96105
 Zero-point vibrational energy     206681.7 (Joules/Mol)
                                   49.39812 (Kcal/Mol)
 Vibrational temperatures:    934.45   945.86  1112.99  1205.65  1427.50
          (Kelvin)           1627.22  1629.15  1662.35  1685.08  1703.04
                             1799.75  1928.37  2242.45  2361.68  2549.04
                             2799.46  2901.38  4713.14  4737.34  4873.92
                             4876.29

 Zero-point correction=                           0.078721 (Hartree/Particle)
 Thermal correction to Energy=                    0.082145
 Thermal correction to Enthalpy=                  0.083089
 Thermal correction to Gibbs Free Energy=         0.052615
 Sum of electronic and zero-point Energies=              1.830740
 Sum of electronic and thermal Energies=                 1.834164
 Sum of electronic and thermal Enthalpies=               1.835108
 Sum of electronic and thermal Free Energies=            1.804634

                     E (Thermal)             CV                S
                      KCal/Mol        Cal/Mol-Kelvin    Cal/Mol-Kelvin
 Total                   51.547             11.123             64.138
 Electronic               0.000              0.000              0.000
 Translational            0.889              2.981             38.570
 Rotational               0.889              2.981             24.002
 Vibrational             49.769              5.161              1.567

 Optimization completed.
    -- Stationary point found.
 Normal termination of Gaussian 09 at Tue Dec  1 17:37:46 2015.
