 Gaussian 09, Revision D.01,
 Gaussian 09:  ES64L-G09RevD.01 24-Apr-2013

 ------------------------------------------------------------
 #P AM1(Input,print) CIS(Singlets,NStates=15) pop(full) force
 ------------------------------------------------------------

 -----------------
 AM1-Reparam Input
 -----------------
 Symbolic Z-matrix:
 Charge =  0 Multiplicity = 1

                         Standard orientation:
 ---------------------------------------------------------------------
 Center     Atomic      Atomic             Coordinates (Angstroms)
 Number     Number       Type             X           Y           Z
 ---------------------------------------------------------------------
      1          6           0        0.675878    0.981242   -0.020475
      2          6           0        1.064960   -0.289038    0.002296
      3          8           0        0.104754   -1.110560   -0.010340
      4          6           0       -1.089262   -0.452070    0.017828
      5          6           0       -0.756986    0.920529   -0.005822
      6          1           0       -1.513018    1.690538    0.009793
      7          1           0       -1.987048   -0.944526   -0.002989
      8          1           0        2.122285   -0.706192    0.045864
      9          1           0        1.172203    1.880684    0.067091
 ---------------------------------------------------------------------

 SCF Done:  E(RAM1) =   2.69136044303     A.U. after   14 cycles

 Excitation energies and oscillator strengths:

 Excited State   1:      Singlet-A      5.3572 eV  231.43 nm  f=0.3515  <S**2>=0.000
      13 -> 14         0.69339
 This state for optimization and/or second-order correction.
 Total Energy, E(CIS) =   2.88823392895
 Copying the excited state density for this state as the 1-particle RhoCI density.

 Excited State   2:      Singlet-A      5.7532 eV  215.50 nm  f=0.0040  <S**2>=0.000
      11 -> 15         0.11936
      13 -> 15         0.67554
      13 -> 17         0.12329

 Excited State   3:      Singlet-A      6.7339 eV  184.12 nm  f=0.0033  <S**2>=0.000
       9 -> 14        -0.12979
      12 -> 14         0.52709
      13 -> 16         0.40527
      13 -> 18         0.12661

 Excited State   4:      Singlet-A      6.7821 eV  182.81 nm  f=0.0033  <S**2>=0.000
      12 -> 14        -0.42666
      13 -> 16         0.50712
      13 -> 17         0.10281
      13 -> 18         0.12397

 Excited State   5:      Singlet-A      7.6804 eV  161.43 nm  f=0.0080  <S**2>=0.000
      10 -> 14         0.10612
      13 -> 17        -0.35117
      13 -> 18         0.46785
      13 -> 20         0.14468
      13 -> 21        -0.30895

 Excited State   6:      Singlet-A      7.8592 eV  157.76 nm  f=0.0044  <S**2>=0.000
      10 -> 14         0.65708
      11 -> 14        -0.11280
      13 -> 18        -0.13927

 Excited State   7:      Singlet-A      8.0565 eV  153.89 nm  f=0.0058  <S**2>=0.000
      10 -> 14         0.15914
      11 -> 16         0.13110
      13 -> 16        -0.10630
      13 -> 17         0.52637
      13 -> 18         0.21728
      13 -> 19        -0.27321
      13 -> 20         0.14001
      13 -> 21        -0.10624

 Excited State   8:      Singlet-A      8.5282 eV  145.38 nm  f=0.0429  <S**2>=0.000
       8 -> 15         0.12485
      10 -> 15         0.10620
      11 -> 14         0.40804
      12 -> 15         0.52765

 Excited State   9:      Singlet-A      8.7118 eV  142.32 nm  f=0.0005  <S**2>=0.000
      11 -> 16         0.15689
      13 -> 16        -0.12481
      13 -> 17         0.19652
      13 -> 18         0.11370
      13 -> 19         0.62302

 Excited State  10:      Singlet-A      8.7625 eV  141.49 nm  f=0.1364  <S**2>=0.000
      11 -> 14         0.54438
      12 -> 15        -0.39061
      12 -> 17        -0.10915

 Excited State  11:      Singlet-A      9.0981 eV  136.28 nm  f=0.0006  <S**2>=0.000
       9 -> 14         0.13031
      11 -> 15        -0.13930
      13 -> 18         0.38524
      13 -> 20        -0.25989
      13 -> 21         0.47756

 Excited State  12:      Singlet-A      9.2002 eV  134.76 nm  f=0.0013  <S**2>=0.000
       9 -> 15         0.28725
      10 -> 15         0.19136
      10 -> 16         0.21814
      10 -> 17         0.22371
      11 -> 15        -0.27403
      12 -> 16         0.14678
      12 -> 18         0.24894
      12 -> 19        -0.12947
      12 -> 21        -0.10108

 Excited State  13:      Singlet-A      9.3729 eV  132.28 nm  f=0.0073  <S**2>=0.000
       7 -> 15        -0.13653
      10 -> 15         0.12664
      10 -> 16         0.12349
      10 -> 17         0.11117
      11 -> 15         0.57405
      12 -> 18         0.13191
      13 -> 15        -0.12472
      13 -> 21         0.13215

 Excited State  14:      Singlet-A      9.5208 eV  130.23 nm  f=0.0103  <S**2>=0.000
       9 -> 14         0.62430
      12 -> 14         0.15081
      13 -> 20        -0.12915
      13 -> 21        -0.20886

 Excited State  15:      Singlet-A      9.5496 eV  129.83 nm  f=0.0885  <S**2>=0.000
       9 -> 14         0.21260
      11 -> 16        -0.11898
      13 -> 20         0.59101
      13 -> 21         0.26912

 The electronic state is 1-A.
 Alpha  occ. eigenvalues --   -1.79208  -1.14017  -0.94372  -0.80479  -0.74704
 Alpha  occ. eigenvalues --   -0.66638  -0.65177  -0.55390  -0.48293  -0.44354
 Alpha  occ. eigenvalues --   -0.43599  -0.40251  -0.29218
 Alpha virt. eigenvalues --    0.11047   0.13900   0.19963   0.24352   0.26331
 Alpha virt. eigenvalues --    0.27530   0.29322   0.30549   0.51025   0.59119
 Alpha virt. eigenvalues --    0.64263

 Mulliken charges:
               1
     1  C   -0.096826
     2  C   -2.029162
     3  O    3.337599
     4  C   -2.026207
     5  C   -0.028218
     6  H    0.125911
     7  H    0.276473
     8  H    0.308236
     9  H    0.132194
 Sum of Mulliken charges =   0.00000

 Dipole moment (field-independent basis, Debye):
    X=              1.8979    Y=             -9.6585    Z=             -0.1778  Tot=              9.8448
 N-N= 1.043653837611D+02 E-N=-1.697140145224D+02  KE=-1.492005036688D+01
 Orbital energies and kinetic energies (alpha):
                                 1                 2
   1         O                -1.792082         -1.306525
   2         O                -1.140170         -0.998611
   3         O                -0.943721         -0.851609
   4         O                -0.804790         -0.591421
   5         O                -0.747037         -0.687139
   6         O                -0.666376         -0.573429
   7         O                -0.651766         -0.523808

 Normal termination of Gaussian 09 at Tue Dec 15 17:05:26 2015.
