 Gaussian 09, Revision D.01,
 Gaussian 09:  ES64L-G09RevD.01 24-Apr-2013

 ------------------------------------------------------------
 #P AM1(Input,print) CIS(Singlets,NStates=15) pop(full) force
 ------------------------------------------------------------

 -----------------
 AM1-Reparam Input
 -----------------
 Symbolic Z-matrix:
 Charge =  0 Multiplicity = 1

                         Standard orientation:
 ---------------------------------------------------------------------
 Center     Atomic      Atomic             Coordinates (Angstroms)
 Number     Number       Type             X           Y           Z
 ---------------------------------------------------------------------
      1          6           0       -0.539353    1.061019   -0.012649
      2          6           0       -1.170045   -0.182549    0.028961
      3          8           0       -0.201308   -1.090727   -0.017120
      4          6           0        1.014732   -0.522020   -0.001889
      5          6           0        0.911592    0.780923   -0.009582
      6          1           0        1.622497    1.557458    0.076031
      7          1           0        1.845513   -1.197540    0.044122
      8          1           0       -2.155868   -0.461706    0.015911
      9          1           0       -1.003236    2.003364   -0.028147
 ---------------------------------------------------------------------

 SCF Done:  E(RAM1) =  -5.68791105602     A.U. after   14 cycles

 Excitation energies and oscillator strengths:

 Excited State   1:      Singlet-A      6.0411 eV  205.24 nm  f=0.3537  <S**2>=0.000
      13 -> 14         0.69488
 This state for optimization and/or second-order correction.
 Total Energy, E(CIS) =  -5.46590650390
 Copying the excited state density for this state as the 1-particle RhoCI density.

 Excited State   2:      Singlet-A      7.1223 eV  174.08 nm  f=0.0029  <S**2>=0.000
      10 -> 14         0.25065
      11 -> 14         0.35647
      12 -> 14         0.55382

 Excited State   3:      Singlet-A      7.9807 eV  155.35 nm  f=0.0068  <S**2>=0.000
       8 -> 14        -0.11738
      10 -> 14         0.58218
      11 -> 14        -0.37879

 Excited State   4:      Singlet-A      8.1507 eV  152.11 nm  f=0.0005  <S**2>=0.000
      10 -> 14         0.28709
      11 -> 14         0.46161
      12 -> 14        -0.43365

 Excited State   5:      Singlet-A      8.8618 eV  139.91 nm  f=0.0015  <S**2>=0.000
      13 -> 15         0.67563
      13 -> 16        -0.10604
      13 -> 18         0.10105

 Excited State   6:      Singlet-A      9.4702 eV  130.92 nm  f=0.0037  <S**2>=0.000
      13 -> 15         0.10264
      13 -> 16         0.68764

 Excited State   7:      Singlet-A     10.0793 eV  123.01 nm  f=0.0044  <S**2>=0.000
       8 -> 14         0.10550
       9 -> 14         0.53251
      13 -> 17         0.44133

 Excited State   8:      Singlet-A     10.5303 eV  117.74 nm  f=0.0308  <S**2>=0.000
       8 -> 14         0.55639
       9 -> 14         0.18388
      13 -> 17        -0.36998

 Excited State   9:      Singlet-A     10.8435 eV  114.34 nm  f=0.0987  <S**2>=0.000
       8 -> 14         0.39607
       9 -> 14        -0.39108
      12 -> 16         0.14199
      13 -> 17         0.39618

 Excited State  10:      Singlet-A     11.1766 eV  110.93 nm  f=0.0013  <S**2>=0.000
      13 -> 15        -0.10981
      13 -> 18         0.68029
      13 -> 19        -0.11205

 Excited State  11:      Singlet-A     11.6460 eV  106.46 nm  f=0.0130  <S**2>=0.000
       9 -> 15        -0.11566
      12 -> 15        -0.13157
      13 -> 18         0.10517
      13 -> 19         0.66599

 Excited State  12:      Singlet-A     11.8000 eV  105.07 nm  f=0.1114  <S**2>=0.000
      10 -> 15         0.15991
      11 -> 15         0.21152
      12 -> 15         0.60293
      12 -> 18         0.10511
      13 -> 19         0.12938

 Excited State  13:      Singlet-A     12.2337 eV  101.35 nm  f=0.4143  <S**2>=0.000
      10 -> 15         0.40276
      11 -> 15         0.21474
      11 -> 16        -0.19951
      11 -> 18         0.11742
      12 -> 15        -0.24339
      12 -> 16        -0.28942
      12 -> 18         0.17021

 Excited State  14:      Singlet-A     12.3028 eV  100.78 nm  f=0.3753  <S**2>=0.000
      10 -> 16         0.20824
      11 -> 15         0.39796
      12 -> 15        -0.11264
      12 -> 16         0.48165

 Excited State  15:      Singlet-A     12.8211 eV   96.70 nm  f=0.7901  <S**2>=0.000
      10 -> 15         0.20287
      10 -> 16        -0.25511
      10 -> 18        -0.15045
      11 -> 15         0.26967
      11 -> 16         0.38698
      12 -> 18        -0.26572
      13 -> 20        -0.12812

 The electronic state is 1-A.
 Alpha  occ. eigenvalues --   -3.81436  -1.26282  -0.99810  -0.95075  -0.92104
 Alpha  occ. eigenvalues --   -0.87203  -0.81187  -0.71604  -0.67417  -0.62744
 Alpha  occ. eigenvalues --   -0.62270  -0.56906  -0.48805
 Alpha virt. eigenvalues --   -0.05487   0.08074   0.10349   0.12922   0.18157
 Alpha virt. eigenvalues --    0.18693   0.23974   0.29413   0.39755   0.48338
 Alpha virt. eigenvalues --    0.53344

 Mulliken charges:
               1
     1  C   -0.295042
     2  C   -1.544903
     3  O    3.035470
     4  C   -1.515323
     5  C   -0.225403
     6  H    0.142145
     7  H    0.133225
     8  H    0.125044
     9  H    0.144787
 Sum of Mulliken charges =   0.00000

 Dipole moment (field-independent basis, Debye):
    X=             -1.3018    Y=            -10.0723    Z=             -0.2977  Tot=             10.1605
 N-N= 1.054389776526D+02 E-N=-1.722337412809D+02  KE=-2.336317540031D+01
 Orbital energies and kinetic energies (alpha):
                                 1                 2
   1         O                -3.814360         -3.066470
   2         O                -1.262820         -1.095518
   3         O                -0.998096         -0.774602
   4         O                -0.950749         -0.844007
   5         O                -0.921043         -0.750317
   6         O                -0.872033         -0.819030
   7         O                -0.811873         -0.810683

 Normal termination of Gaussian 09 at Fri Dec 11 13:41:39 2015.
