 Gaussian 09, Revision D.01,
 Gaussian 09:  ES64L-G09RevD.01 24-Apr-2013

 ------------------------------------------------------------
 #P AM1(Input,print) CIS(Singlets,NStates=15) pop(full) force
 ------------------------------------------------------------

 -----------------
 AM1-Reparam Input
 -----------------
 Symbolic Z-matrix:
 Charge =  0 Multiplicity = 1

                         Standard orientation:
 ---------------------------------------------------------------------
 Center     Atomic      Atomic             Coordinates (Angstroms)
 Number     Number       Type             X           Y           Z
 ---------------------------------------------------------------------
      1          6           0        0.891225    0.800723    0.015921
      2          6           0        1.016608   -0.509661    0.031629
      3          8           0       -0.214954   -1.150807   -0.014098
      4          6           0       -1.141199   -0.136255   -0.007561
      5          6           0       -0.532356    1.050949   -0.024795
      6          1           0       -1.111574    2.035757    0.060398
      7          1           0       -2.156911   -0.506916    0.075583
      8          1           0        1.919511   -1.151118   -0.050373
      9          1           0        1.662937    1.594196   -0.063994
 ---------------------------------------------------------------------

 SCF Done:  E(RAM1) =   2.13229046352     A.U. after   13 cycles

 Excitation energies and oscillator strengths:

 Excited State   1:      Singlet-A      5.3310 eV  232.57 nm  f=0.3406  <S**2>=0.000
      13 -> 14         0.69397
 This state for optimization and/or second-order correction.
 Total Energy, E(CIS) =   2.32820023240
 Copying the excited state density for this state as the 1-particle RhoCI density.

 Excited State   2:      Singlet-A      6.2171 eV  199.42 nm  f=0.0002  <S**2>=0.000
      10 -> 16        -0.10988
      13 -> 15         0.65080
      13 -> 16        -0.18711
      13 -> 19        -0.14406

 Excited State   3:      Singlet-A      6.2637 eV  197.94 nm  f=0.0069  <S**2>=0.000
      10 -> 15        -0.10726
      13 -> 15         0.18240
      13 -> 16         0.64952
      13 -> 17        -0.14319

 Excited State   4:      Singlet-A      7.1536 eV  173.32 nm  f=0.0006  <S**2>=0.000
      12 -> 14         0.69895

 Excited State   5:      Singlet-A      7.9120 eV  156.70 nm  f=0.0064  <S**2>=0.000
      11 -> 14        -0.25622
      13 -> 17         0.43897
      13 -> 18        -0.36673
      13 -> 19        -0.18828
      13 -> 22        -0.22794

 Excited State   6:      Singlet-A      7.9365 eV  156.22 nm  f=0.0045  <S**2>=0.000
      11 -> 14        -0.32391
      13 -> 17         0.34531
      13 -> 18         0.41111
      13 -> 19         0.19137
      13 -> 22         0.21621

 Excited State   7:      Singlet-A      8.1411 eV  152.29 nm  f=0.0046  <S**2>=0.000
      11 -> 14         0.56553
      13 -> 17         0.39519

 Excited State   8:      Singlet-A      8.7927 eV  141.01 nm  f=0.0004  <S**2>=0.000
      13 -> 18        -0.36292
      13 -> 19         0.58312

 Excited State   9:      Singlet-A      8.9952 eV  137.83 nm  f=0.0283  <S**2>=0.000
      10 -> 14         0.60505
      12 -> 16         0.16291
      13 -> 20         0.27694

 Excited State  10:      Singlet-A      9.4344 eV  131.42 nm  f=0.0079  <S**2>=0.000
      12 -> 15         0.10495
      13 -> 18        -0.21319
      13 -> 19        -0.21282
      13 -> 21        -0.27571
      13 -> 22         0.54644

 Excited State  11:      Singlet-A      9.4836 eV  130.74 nm  f=0.0787  <S**2>=0.000
       8 -> 16         0.13785
       9 -> 16        -0.10885
      11 -> 17         0.16291
      12 -> 15         0.55037
      12 -> 16        -0.15642
      12 -> 18        -0.19039
      12 -> 19        -0.12309
      13 -> 22        -0.13940

 Excited State  12:      Singlet-A      9.6346 eV  128.69 nm  f=0.0992  <S**2>=0.000
      10 -> 15        -0.11461
      13 -> 20         0.18723
      13 -> 21         0.59166
      13 -> 22         0.25631

 Excited State  13:      Singlet-A      9.8228 eV  126.22 nm  f=0.0365  <S**2>=0.000
      10 -> 14        -0.15701
      11 -> 15        -0.19795
      12 -> 15        -0.13139
      12 -> 16        -0.24572
      13 -> 20         0.54276
      13 -> 21        -0.17213

 Excited State  14:      Singlet-A      9.9169 eV  125.02 nm  f=0.1510  <S**2>=0.000
      10 -> 14        -0.27184
      11 -> 15         0.19272
      12 -> 15         0.22434
      12 -> 16         0.45487
      12 -> 17        -0.12567
      13 -> 20         0.25828

 Excited State  15:      Singlet-A     10.0449 eV  123.43 nm  f=0.2334  <S**2>=0.000
       8 -> 15        -0.11778
      11 -> 16         0.35349
      11 -> 17        -0.29803
      12 -> 15         0.16315
      12 -> 16        -0.26955
      12 -> 17        -0.14591
      12 -> 18         0.29222
      12 -> 22         0.10229

 The electronic state is 1-A.
 Alpha  occ. eigenvalues --   -1.93233  -1.18951  -0.92997  -0.79926  -0.77904
 Alpha  occ. eigenvalues --   -0.68558  -0.65752  -0.54300  -0.53256  -0.44234
 Alpha  occ. eigenvalues --   -0.43242  -0.40406  -0.27469
 Alpha virt. eigenvalues --    0.12603   0.17948   0.18115   0.26054   0.27663
 Alpha virt. eigenvalues --    0.30629   0.30891   0.31717   0.33370   0.39570
 Alpha virt. eigenvalues --    0.43159

 Mulliken charges:
               1
     1  C   -0.139146
     2  C   -1.863436
     3  O    3.201287
     4  C   -1.852892
     5  C   -0.177530
     6  H    0.158291
     7  H    0.251203
     8  H    0.268422
     9  H    0.153803
 Sum of Mulliken charges =   0.00000

 Dipole moment (field-independent basis, Debye):
    X=             -1.9137    Y=            -11.2094    Z=             -0.3409  Tot=             11.3767
 N-N= 1.038657557626D+02 E-N=-1.689740914823D+02  KE=-1.528826688419D+01
 Orbital energies and kinetic energies (alpha):
                                 1                 2
   1         O                -1.932333         -1.349113
   2         O                -1.189514         -1.049203
   3         O                -0.929974         -0.885915
   4         O                -0.799260         -0.562126
   5         O                -0.779041         -0.683446
   6         O                -0.685578         -0.574782
   7         O                -0.657524         -0.532089

 Normal termination of Gaussian 09 at Tue Dec 15 17:08:49 2015.
