 Gaussian 09, Revision D.01,
 Gaussian 09:  ES64L-G09RevD.01 24-Apr-2013

 -------------------------------------------------------
 #P B3LYP/3-21G CIS(Singlets,NStates=15) pop(full) force
 -------------------------------------------------------

 --------
 FuranDFT
 --------
 Symbolic Z-matrix:
 Charge =  0 Multiplicity = 1

                         Standard orientation:
 ---------------------------------------------------------------------
 Center     Atomic      Atomic             Coordinates (Angstroms)
 Number     Number       Type             X           Y           Z
 ---------------------------------------------------------------------
      1          6           0        0.840675    0.877418   -0.029393
      2          6           0        1.038816   -0.456998    0.034124
      3          8           0       -0.116515   -1.147392   -0.019207
      4          6           0       -1.156456   -0.208652   -0.009037
      5          6           0       -0.596202    1.016042    0.020733
      6          1           0       -1.148709    1.900270    0.001793
      7          1           0       -2.129475   -0.596731    0.043148
      8          1           0        1.885026   -1.071493    0.022402
      9          1           0        1.564279    1.580225   -0.012250
 ---------------------------------------------------------------------

 SCF Done:  E(RB3LYP) =  -228.742885887     A.U. after   14 cycles

 Excitation energies and oscillator strengths:

 Excited State   1:      Singlet-A      7.2386 eV  171.28 nm  f=0.0481  <S**2>=0.000
      17 -> 19         0.45750
      18 -> 19         0.32554
      18 -> 20         0.41074
 This state for optimization and/or second-order correction.
 Total Energy, E(CIS) =  -228.476873203
 Copying the excited state density for this state as the 1-particle RhoCI density.

 Excited State   2:      Singlet-A      7.3615 eV  168.42 nm  f=0.1700  <S**2>=0.000
      17 -> 19        -0.24761
      18 -> 19         0.60084
      18 -> 20        -0.22431

 Excited State   3:      Singlet-A      8.7484 eV  141.72 nm  f=0.0050  <S**2>=0.000
      16 -> 19         0.70118

 Excited State   4:      Singlet-A      9.0326 eV  137.26 nm  f=0.0006  <S**2>=0.000
      18 -> 21         0.66940
      18 -> 22        -0.20794

 Excited State   5:      Singlet-A      9.4541 eV  131.14 nm  f=0.1455  <S**2>=0.000
      17 -> 20         0.67699

 Excited State   6:      Singlet-A      9.5401 eV  129.96 nm  f=0.0420  <S**2>=0.000
      17 -> 19        -0.12311
      18 -> 20         0.14324
      18 -> 21         0.19858
      18 -> 22         0.62763

 Excited State   7:      Singlet-A      9.7618 eV  127.01 nm  f=0.3481  <S**2>=0.000
      15 -> 19         0.11542
      17 -> 19        -0.34334
      17 -> 21        -0.10379
      18 -> 20         0.38843
      18 -> 22        -0.10323
      18 -> 23         0.37920

 Excited State   8:      Singlet-A      9.9091 eV  125.12 nm  f=0.1814  <S**2>=0.000
      15 -> 19         0.18036
      17 -> 19         0.23141
      17 -> 21        -0.11160
      18 -> 20        -0.26151
      18 -> 22         0.19057
      18 -> 23         0.51526

 Excited State   9:      Singlet-A     10.1199 eV  122.51 nm  f=0.0016  <S**2>=0.000
      15 -> 19         0.59644
      16 -> 20        -0.13793
      17 -> 21         0.30166
      18 -> 23        -0.11783

 Excited State  10:      Singlet-A     10.2143 eV  121.38 nm  f=0.0014  <S**2>=0.000
      15 -> 19        -0.23993
      16 -> 20         0.12839
      17 -> 21         0.58221
      17 -> 22        -0.16730
      18 -> 23         0.21409

 Excited State  11:      Singlet-A     10.4169 eV  119.02 nm  f=0.0010  <S**2>=0.000
      14 -> 19         0.32198
      15 -> 19         0.17745
      16 -> 20         0.58591

 Excited State  12:      Singlet-A     10.6079 eV  116.88 nm  f=0.0012  <S**2>=0.000
      17 -> 21         0.16435
      17 -> 22         0.65008
      18 -> 24        -0.16063

 Excited State  13:      Singlet-A     10.8148 eV  114.64 nm  f=0.0009  <S**2>=0.000
      17 -> 21         0.11542
      17 -> 22         0.15065
      18 -> 24         0.66333

 Excited State  14:      Singlet-A     10.8700 eV  114.06 nm  f=0.0010  <S**2>=0.000
      12 -> 19        -0.12262
      14 -> 19         0.58702
      16 -> 20        -0.31215
      17 -> 23        -0.14060

 Excited State  15:      Singlet-A     11.0912 eV  111.79 nm  f=0.0033  <S**2>=0.000
      12 -> 19         0.13163
      17 -> 23        -0.42547
      17 -> 25         0.12904
      18 -> 25         0.50636

 The electronic state is 1-A.
 Alpha  occ. eigenvalues --  -19.10641 -10.17129 -10.17071 -10.12301 -10.11781
 Alpha  occ. eigenvalues --   -1.11818  -0.80467  -0.75219  -0.60781  -0.57585
 Alpha  occ. eigenvalues --   -0.54776  -0.45069  -0.44240  -0.42922  -0.40450
 Alpha  occ. eigenvalues --   -0.35876  -0.27563  -0.23457
 Alpha virt. eigenvalues --    0.02208   0.07960   0.14709   0.15931   0.17684
 Alpha virt. eigenvalues --    0.20297   0.21678   0.23296   0.35684   0.41903
 Alpha virt. eigenvalues --    0.47183   0.68444   0.70049   0.70396   0.75233

 Mulliken charges:
               1
     1  C   -0.250327
     2  C    0.106357
     3  O   -0.484486
     4  C    0.072715
     5  C   -0.258312
     6  H    0.188745
     7  H    0.220046
     8  H    0.218528
     9  H    0.186732
 Sum of Mulliken charges =   0.00000

 Dipole moment (field-independent basis, Debye):
    X=              0.0426    Y=              0.6897    Z=              0.0772  Tot=              0.6953
 Quadrupole moment (field-independent basis, Debye-Ang):
   XX=            -23.3979   YY=            -28.1743   ZZ=            -31.6115
   XY=             -0.4026   XZ=             -0.0959   YZ=             -0.0883

 Normal termination of Gaussian 09 at Tue Dec 15 16:28:10 2015.
