 Gaussian 09, Revision D.01,
 Gaussian 09:  ES64L-G09RevD.01 24-Apr-2013

 ------------------------------------------------------------
 #P AM1(Input,print) CIS(Singlets,NStates=15) pop(full) force
 ------------------------------------------------------------

 -----------------
 AM1-Reparam Input
 -----------------
 Symbolic Z-matrix:
 Charge =  0 Multiplicity = 1

                         Standard orientation:
 ---------------------------------------------------------------------
 Center     Atomic      Atomic             Coordinates (Angstroms)
 Number     Number       Type             X           Y           Z
 ---------------------------------------------------------------------
      1          6           0       -0.947164    0.716686   -0.010814
      2          6           0       -1.014519   -0.569908    0.008926
      3          8           0        0.305405   -1.133132   -0.007615
      4          6           0        1.159974   -0.111578   -0.002272
      5          6           0        0.462598    1.147134    0.014043
      6          1           0        0.936790    2.101913   -0.021668
      7          1           0        2.235390   -0.305277    0.012470
      8          1           0       -1.786927   -1.281373    0.020675
      9          1           0       -1.793824    1.455788   -0.009853
 ---------------------------------------------------------------------

 SCF Done:  E(RAM1) =   2.53448564832     A.U. after   14 cycles

 Excitation energies and oscillator strengths:

 Excited State   1:      Singlet-A      5.1709 eV  239.77 nm  f=0.3604  <S**2>=0.000
      13 -> 14         0.69733
 This state for optimization and/or second-order correction.
 Total Energy, E(CIS) =   2.72451312035
 Copying the excited state density for this state as the 1-particle RhoCI density.

 Excited State   2:      Singlet-A      6.0457 eV  205.08 nm  f=0.0026  <S**2>=0.000
      13 -> 15         0.65511
      13 -> 17        -0.21238
      13 -> 19        -0.10710

 Excited State   3:      Singlet-A      6.6154 eV  187.42 nm  f=0.0014  <S**2>=0.000
      11 -> 16         0.10505
      13 -> 16         0.65695
      13 -> 19         0.16788

 Excited State   4:      Singlet-A      6.6686 eV  185.92 nm  f=0.0003  <S**2>=0.000
      12 -> 14         0.69286

 Excited State   5:      Singlet-A      7.6361 eV  162.37 nm  f=0.0004  <S**2>=0.000
      13 -> 15         0.15649
      13 -> 17         0.46018
      13 -> 18         0.34326
      13 -> 19         0.18367
      13 -> 20        -0.21908
      13 -> 21         0.19758

 Excited State   6:      Singlet-A      7.9853 eV  155.27 nm  f=0.0094  <S**2>=0.000
      10 -> 14         0.57033
      11 -> 14         0.13545
      13 -> 17        -0.18833
      13 -> 18         0.25413
      13 -> 19         0.15261

 Excited State   7:      Singlet-A      8.1038 eV  153.00 nm  f=0.0033  <S**2>=0.000
      10 -> 14         0.35692
      13 -> 15         0.11887
      13 -> 17         0.42252
      13 -> 18        -0.34275
      13 -> 19        -0.10488
      13 -> 21        -0.10769

 Excited State   8:      Singlet-A      8.6164 eV  143.89 nm  f=0.0011  <S**2>=0.000
      13 -> 16        -0.10157
      13 -> 18        -0.35741
      13 -> 19         0.55522
      13 -> 20        -0.14486

 Excited State   9:      Singlet-A      8.7691 eV  141.39 nm  f=0.0481  <S**2>=0.000
      10 -> 14        -0.14532
      11 -> 14         0.61940
      12 -> 16        -0.14592
      12 -> 17        -0.15407

 Excited State  10:      Singlet-A      9.2134 eV  134.57 nm  f=0.0086  <S**2>=0.000
      13 -> 18         0.19807
      13 -> 19         0.26713
      13 -> 20         0.55690
      13 -> 21        -0.23954

 Excited State  11:      Singlet-A      9.3928 eV  132.00 nm  f=0.1185  <S**2>=0.000
       8 -> 15         0.11056
      10 -> 16         0.11518
      10 -> 17        -0.11070
      10 -> 19         0.10408
      11 -> 14        -0.21885
      12 -> 15         0.46569
      12 -> 16        -0.20919
      12 -> 17        -0.22245
      12 -> 18        -0.14941
      12 -> 19        -0.12143

 Excited State  12:      Singlet-A      9.7402 eV  127.29 nm  f=0.0889  <S**2>=0.000
       9 -> 14        -0.13057
      11 -> 15        -0.22791
      13 -> 18        -0.11422
      13 -> 20         0.29629
      13 -> 21         0.55254

 Excited State  13:      Singlet-A      9.7792 eV  126.78 nm  f=0.0911  <S**2>=0.000
      11 -> 14         0.10014
      12 -> 15         0.24225
      12 -> 16         0.60324
      12 -> 17        -0.11221

 Excited State  14:      Singlet-A      9.8799 eV  125.49 nm  f=0.1641  <S**2>=0.000
       9 -> 15        -0.11952
      10 -> 15         0.32588
      10 -> 17        -0.19982
      11 -> 14        -0.11332
      11 -> 15         0.31000
      12 -> 15        -0.27107
      12 -> 18        -0.25491
      13 -> 21         0.11461

 Excited State  15:      Singlet-A      9.8952 eV  125.30 nm  f=0.0401  <S**2>=0.000
       7 -> 15         0.13802
      10 -> 15        -0.24185
      11 -> 15         0.52901
      12 -> 15         0.12376
      12 -> 18         0.12953
      13 -> 15         0.12008
      13 -> 21         0.17996

 The electronic state is 1-A.
 Alpha  occ. eigenvalues --   -1.72280  -1.14076  -0.94603  -0.80371  -0.75947
 Alpha  occ. eigenvalues --   -0.66908  -0.63375  -0.55262  -0.49838  -0.44370
 Alpha  occ. eigenvalues --   -0.44121  -0.39979  -0.27810
 Alpha virt. eigenvalues --    0.11288   0.17260   0.19493   0.25015   0.27813
 Alpha virt. eigenvalues --    0.28701   0.31234   0.32305   0.38265   0.47381
 Alpha virt. eigenvalues --    0.52006

 Mulliken charges:
               1
     1  C    0.017343
     2  C   -1.865264
     3  O    3.228959
     4  C   -1.970369
     5  C   -0.160419
     6  H    0.124911
     7  H    0.275582
     8  H    0.239806
     9  H    0.109453
 Sum of Mulliken charges =   0.00000

 Dipole moment (field-independent basis, Debye):
    X=              2.6658    Y=            -10.6036    Z=             -0.1437  Tot=             10.9345
 N-N= 1.030370996332D+02 E-N=-1.674626228651D+02  KE=-1.496380134235D+01
 Orbital energies and kinetic energies (alpha):
                                 1                 2
   1         O                -1.722798         -1.205240
   2         O                -1.140763         -1.001312
   3         O                -0.946028         -0.864692
   4         O                -0.803707         -0.610208
   5         O                -0.759470         -0.690144
   6         O                -0.669078         -0.559229
   7         O                -0.633754         -0.513259

 Normal termination of Gaussian 09 at Tue Dec 15 17:06:13 2015.
