 Gaussian 09, Revision D.01,
 Gaussian 09:  ES64L-G09RevD.01 24-Apr-2013

 ------------------------------------------------------------
 #P AM1(Input,print) CIS(Singlets,NStates=15) pop(full) force
 ------------------------------------------------------------

 -----------------
 AM1-Reparam Input
 -----------------
 Symbolic Z-matrix:
 Charge =  0 Multiplicity = 1

                         Standard orientation:
 ---------------------------------------------------------------------
 Center     Atomic      Atomic             Coordinates (Angstroms)
 Number     Number       Type             X           Y           Z
 ---------------------------------------------------------------------
      1          6           0       -0.539353    1.061019   -0.012649
      2          6           0       -1.170045   -0.182549    0.028961
      3          8           0       -0.201308   -1.090727   -0.017120
      4          6           0        1.014732   -0.522020   -0.001889
      5          6           0        0.911592    0.780923   -0.009582
      6          1           0        1.622497    1.557458    0.076031
      7          1           0        1.845513   -1.197540    0.044122
      8          1           0       -2.155868   -0.461706    0.015911
      9          1           0       -1.003236    2.003364   -0.028147
 ---------------------------------------------------------------------

 SCF Done:  E(RAM1) =  -4.48297767367     A.U. after   14 cycles

 Excitation energies and oscillator strengths:

 Excited State   1:      Singlet-A      6.0458 eV  205.07 nm  f=0.3833  <S**2>=0.000
      13 -> 14         0.69481
 This state for optimization and/or second-order correction.
 Total Energy, E(CIS) =  -4.26079746049
 Copying the excited state density for this state as the 1-particle RhoCI density.

 Excited State   2:      Singlet-A      7.1963 eV  172.29 nm  f=0.0005  <S**2>=0.000
      13 -> 15        -0.42674
      13 -> 16         0.46333
      13 -> 17        -0.12835
      13 -> 18         0.23168
      13 -> 19         0.11256

 Excited State   3:      Singlet-A      7.4307 eV  166.85 nm  f=0.0225  <S**2>=0.000
      13 -> 15         0.50230
      13 -> 16         0.46539
      13 -> 17         0.14020

 Excited State   4:      Singlet-A      8.2877 eV  149.60 nm  f=0.0008  <S**2>=0.000
      11 -> 14         0.63963
      12 -> 14         0.22757
      13 -> 18         0.10727

 Excited State   5:      Singlet-A      8.7461 eV  141.76 nm  f=0.0018  <S**2>=0.000
      11 -> 14        -0.13798
      12 -> 15         0.12073
      13 -> 15         0.15586
      13 -> 16        -0.15034
      13 -> 17        -0.25945
      13 -> 18         0.57117

 Excited State   6:      Singlet-A      9.2810 eV  133.59 nm  f=0.1405  <S**2>=0.000
      11 -> 14        -0.23408
      12 -> 14         0.63907
      13 -> 22         0.10364

 Excited State   7:      Singlet-A      9.5467 eV  129.87 nm  f=0.0168  <S**2>=0.000
      10 -> 14         0.13326
      12 -> 16         0.12845
      13 -> 15        -0.12904
      13 -> 17         0.58467
      13 -> 18         0.26867
      13 -> 19        -0.10482
      13 -> 20        -0.11295

 Excited State   8:      Singlet-A      9.7871 eV  126.68 nm  f=0.0042  <S**2>=0.000
       8 -> 14        -0.11221
      10 -> 14         0.67329
      13 -> 17        -0.11316

 Excited State   9:      Singlet-A     10.1494 eV  122.16 nm  f=0.0013  <S**2>=0.000
      13 -> 16        -0.11801
      13 -> 19         0.66009

 Excited State  10:      Singlet-A     10.4935 eV  118.15 nm  f=0.0011  <S**2>=0.000
      12 -> 15        -0.12927
      12 -> 16        -0.13011
      13 -> 19         0.15740
      13 -> 20        -0.30848
      13 -> 21         0.57681

 Excited State  11:      Singlet-A     10.6490 eV  116.43 nm  f=0.0733  <S**2>=0.000
      12 -> 16         0.14807
      13 -> 20         0.58114
      13 -> 21         0.34010

 Excited State  12:      Singlet-A     10.9524 eV  113.20 nm  f=0.0031  <S**2>=0.000
      12 -> 15         0.50823
      12 -> 16         0.34643
      12 -> 17         0.15608
      13 -> 18        -0.12868
      13 -> 20        -0.12000
      13 -> 21         0.12224

 Excited State  13:      Singlet-A     11.0999 eV  111.70 nm  f=0.0912  <S**2>=0.000
      10 -> 17        -0.10991
      11 -> 15        -0.35260
      11 -> 16         0.40351
      11 -> 17        -0.10397
      11 -> 18         0.28811
      11 -> 19         0.10917
      12 -> 15        -0.10881
      12 -> 16         0.15885

 Excited State  14:      Singlet-A     11.6322 eV  106.59 nm  f=0.0082  <S**2>=0.000
      11 -> 15        -0.10898
      11 -> 16        -0.29856
      12 -> 15        -0.36107
      12 -> 16         0.40923
      12 -> 18        -0.11099
      13 -> 17        -0.12586
      13 -> 20        -0.11245

 Excited State  15:      Singlet-A     11.6960 eV  106.01 nm  f=0.0060  <S**2>=0.000
      10 -> 16         0.20399
      11 -> 15         0.47664
      11 -> 16         0.27677
      11 -> 17         0.10902
      12 -> 16         0.27765

 The electronic state is 1-A.
 Alpha  occ. eigenvalues --   -3.84870  -1.25712  -0.94998  -0.92285  -0.90579
 Alpha  occ. eigenvalues --   -0.87190  -0.81392  -0.68185  -0.66542  -0.61138
 Alpha  occ. eigenvalues --   -0.56749  -0.55652  -0.41091
 Alpha virt. eigenvalues --    0.01817   0.11264   0.12468   0.17608   0.19491
 Alpha virt. eigenvalues --    0.20417   0.22283   0.22964   0.28756   0.36306
 Alpha virt. eigenvalues --    0.46839

 Mulliken charges:
               1
     1  C   -0.152409
     2  C   -1.419234
     3  O    2.891287
     4  C   -1.395288
     5  C   -0.083550
     6  H    0.015223
     7  H    0.065275
     8  H    0.060838
     9  H    0.017857
 Sum of Mulliken charges =   0.00000

 Dipole moment (field-independent basis, Debye):
    X=             -1.4199    Y=            -10.5061    Z=             -0.3276  Tot=             10.6067
 N-N= 1.066530323629D+02 E-N=-1.732542467177D+02  KE=-2.289015070043D+01
 Orbital energies and kinetic energies (alpha):
                                 1                 2
   1         O                -3.848698         -3.053368
   2         O                -1.257117         -1.117735
   3         O                -0.949977         -0.849224
   4         O                -0.922849         -0.919182
   5         O                -0.905788         -0.858834
   6         O                -0.871900         -0.775663
   7         O                -0.813917         -0.726541

 Normal termination of Gaussian 09 at Fri Dec 11 13:41:31 2015.
