 Gaussian 09, Revision D.01,
 Gaussian 09:  ES64L-G09RevD.01 24-Apr-2013

 ------------------------------------------------------------
 #P AM1(Input,print) CIS(Singlets,NStates=15) pop(full) force
 ------------------------------------------------------------

 -----------------
 AM1-Reparam Input
 -----------------
 Symbolic Z-matrix:
 Charge =  0 Multiplicity = 1

                         Standard orientation:
 ---------------------------------------------------------------------
 Center     Atomic      Atomic             Coordinates (Angstroms)
 Number     Number       Type             X           Y           Z
 ---------------------------------------------------------------------
      1          6           0       -1.130919    0.287243   -0.029313
      2          6           0       -0.637332   -0.884118    0.006210
      3          8           0        0.735099   -0.927321   -0.005206
      4          6           0        1.033423    0.377811   -0.009964
      5          6           0       -0.047682    1.198774    0.038390
      6          1           0        0.041450    2.270713   -0.035986
      7          1           0        2.146735    0.537052   -0.008008
      8          1           0       -1.150029   -1.903191    0.061767
      9          1           0       -2.223890    0.635741   -0.008065
 ---------------------------------------------------------------------

 SCF Done:  E(RAM1) =   2.64234219688     A.U. after   14 cycles

 Excitation energies and oscillator strengths:

 Excited State   1:      Singlet-A      5.0793 eV  244.10 nm  f=0.3437  <S**2>=0.000
      13 -> 14         0.69828
 This state for optimization and/or second-order correction.
 Total Energy, E(CIS) =   2.82900157110
 Copying the excited state density for this state as the 1-particle RhoCI density.

 Excited State   2:      Singlet-A      5.6795 eV  218.30 nm  f=0.0001  <S**2>=0.000
      13 -> 15         0.67713
      13 -> 17        -0.10394
      13 -> 19        -0.13050

 Excited State   3:      Singlet-A      6.0997 eV  203.26 nm  f=0.0033  <S**2>=0.000
      10 -> 15        -0.10119
      13 -> 16         0.68187
      13 -> 18        -0.10664

 Excited State   4:      Singlet-A      6.4768 eV  191.43 nm  f=0.0008  <S**2>=0.000
      12 -> 14         0.69832

 Excited State   5:      Singlet-A      7.4431 eV  166.58 nm  f=0.0047  <S**2>=0.000
      11 -> 14         0.68919
      13 -> 17        -0.10818

 Excited State   6:      Singlet-A      7.6439 eV  162.20 nm  f=0.0004  <S**2>=0.000
      11 -> 14         0.10860
      13 -> 17         0.64311
      13 -> 18        -0.17555
      13 -> 21         0.11538

 Excited State   7:      Singlet-A      8.5867 eV  144.39 nm  f=0.0685  <S**2>=0.000
      10 -> 14         0.62958
      12 -> 15         0.18972
      12 -> 16        -0.11558
      12 -> 17        -0.14509

 Excited State   8:      Singlet-A      8.7343 eV  141.95 nm  f=0.0280  <S**2>=0.000
      10 -> 14         0.14537
      10 -> 15        -0.25815
      12 -> 15        -0.19951
      13 -> 17         0.12699
      13 -> 18         0.57588

 Excited State   9:      Singlet-A      8.8546 eV  140.02 nm  f=0.1556  <S**2>=0.000
       9 -> 16         0.14807
      10 -> 14        -0.22360
      12 -> 15         0.52162
      12 -> 16        -0.12381
      12 -> 17        -0.14728
      13 -> 18         0.23176

 Excited State  10:      Singlet-A      9.0460 eV  137.06 nm  f=0.0006  <S**2>=0.000
      10 -> 16        -0.18944
      13 -> 17        -0.14622
      13 -> 19         0.64447

 Excited State  11:      Singlet-A      9.3223 eV  133.00 nm  f=0.1164  <S**2>=0.000
      11 -> 16         0.24101
      11 -> 18        -0.17684
      12 -> 16         0.52880
      12 -> 17        -0.28075

 Excited State  12:      Singlet-A      9.5274 eV  130.13 nm  f=0.1397  <S**2>=0.000
      11 -> 15         0.51005
      11 -> 16         0.26891
      11 -> 18        -0.15577
      12 -> 15        -0.13427
      12 -> 16        -0.21820
      12 -> 17        -0.12518

 Excited State  13:      Singlet-A      9.6147 eV  128.95 nm  f=0.0107  <S**2>=0.000
      10 -> 15         0.54834
      10 -> 16         0.19575
      12 -> 17         0.12127
      13 -> 15         0.11615
      13 -> 18         0.21797
      13 -> 19         0.12689

 Excited State  14:      Singlet-A      9.7933 eV  126.60 nm  f=0.0508  <S**2>=0.000
       8 -> 16         0.16586
       9 -> 15         0.25864
      10 -> 14         0.11000
      10 -> 15        -0.20546
      11 -> 15         0.29184
      11 -> 16        -0.12957
      11 -> 19        -0.14519
      12 -> 15         0.17875
      12 -> 16         0.23433
      12 -> 17         0.26981
      12 -> 19        -0.10876

 Excited State  15:      Singlet-A     10.0144 eV  123.81 nm  f=0.0089  <S**2>=0.000
      10 -> 15        -0.16781
      10 -> 16         0.59701
      12 -> 17        -0.12417
      13 -> 19         0.14912

 The electronic state is 1-A.
 Alpha  occ. eigenvalues --   -1.85054  -1.13989  -0.86645  -0.79051  -0.73738
 Alpha  occ. eigenvalues --   -0.65945  -0.63577  -0.53647  -0.52471  -0.43824
 Alpha  occ. eigenvalues --   -0.42917  -0.40075  -0.28008
 Alpha virt. eigenvalues --    0.10956   0.15758   0.17126   0.26140   0.28606
 Alpha virt. eigenvalues --    0.30381   0.37628   0.42662   0.48739   0.57298
 Alpha virt. eigenvalues --    0.59690

 Mulliken charges:
               1
     1  C   -0.163188
     2  C   -1.965606
     3  O    3.416221
     4  C   -1.979857
     5  C   -0.224753
     6  H    0.181548
     7  H    0.264087
     8  H    0.283615
     9  H    0.187934
 Sum of Mulliken charges =   0.00000

 Dipole moment (field-independent basis, Debye):
    X=              7.3806    Y=             -9.9338    Z=             -0.0106  Tot=             12.3755
 N-N= 1.043517822598D+02 E-N=-1.704842744889D+02  KE=-1.435577153406D+01
 Orbital energies and kinetic energies (alpha):
                                 1                 2
   1         O                -1.850544         -1.257367
   2         O                -1.139887         -0.990187
   3         O                -0.866453         -0.802936
   4         O                -0.790509         -0.519385
   5         O                -0.737376         -0.598335
   6         O                -0.659451         -0.532231
   7         O                -0.635768         -0.507544

 Normal termination of Gaussian 09 at Tue Dec 15 17:07:32 2015.
