 Gaussian 09, Revision D.01,
 Gaussian 09:  ES64L-G09RevD.01 24-Apr-2013

 ------------------------------------------------------------
 #P AM1(Input,print) CIS(Singlets,NStates=15) pop(full) force
 ------------------------------------------------------------

 -----------------
 AM1-Reparam Input
 -----------------
 Symbolic Z-matrix:
 Charge =  0 Multiplicity = 1

                         Standard orientation:
 ---------------------------------------------------------------------
 Center     Atomic      Atomic             Coordinates (Angstroms)
 Number     Number       Type             X           Y           Z
 ---------------------------------------------------------------------
      1          6           0        1.010083    0.697276   -0.032860
      2          6           0        0.930391   -0.687172    0.030939
      3          8           0       -0.399434   -1.105088   -0.013396
      4          6           0       -1.135891   -0.028866    0.008723
      5          6           0       -0.380748    1.193153    0.008364
      6          1           0       -0.733018    2.149220   -0.013539
      7          1           0       -2.233786   -0.150229    0.002140
      8          1           0        1.729140   -1.456914   -0.030691
      9          1           0        1.890128    1.252281    0.058256
 ---------------------------------------------------------------------

 SCF Done:  E(RAM1) =   2.49016965699     A.U. after   14 cycles

 Excitation energies and oscillator strengths:

 Excited State   1:      Singlet-A      5.3100 eV  233.49 nm  f=0.3669  <S**2>=0.000
      13 -> 14         0.69663
 This state for optimization and/or second-order correction.
 Total Energy, E(CIS) =   2.68530980381
 Copying the excited state density for this state as the 1-particle RhoCI density.

 Excited State   2:      Singlet-A      6.2474 eV  198.46 nm  f=0.0033  <S**2>=0.000
      11 -> 15         0.10431
      13 -> 15         0.65841
      13 -> 17         0.20965

 Excited State   3:      Singlet-A      6.7668 eV  183.22 nm  f=0.0018  <S**2>=0.000
      11 -> 16        -0.12283
      13 -> 16         0.65238
      13 -> 18        -0.21505

 Excited State   4:      Singlet-A      6.8531 eV  180.92 nm  f=0.0007  <S**2>=0.000
       9 -> 14         0.13034
      12 -> 14         0.69191

 Excited State   5:      Singlet-A      7.9113 eV  156.72 nm  f=0.0041  <S**2>=0.000
      10 -> 14         0.38553
      13 -> 15        -0.12758
      13 -> 17         0.30404
      13 -> 18         0.34223
      13 -> 19        -0.19289
      13 -> 20         0.18630
      13 -> 21        -0.17902

 Excited State   6:      Singlet-A      7.9631 eV  155.70 nm  f=0.0029  <S**2>=0.000
      10 -> 14         0.56504
      11 -> 14         0.10852
      13 -> 17        -0.11282
      13 -> 18        -0.29554
      13 -> 19         0.12774
      13 -> 21         0.15457

 Excited State   7:      Singlet-A      8.3288 eV  148.86 nm  f=0.0141  <S**2>=0.000
      11 -> 16         0.12304
      13 -> 15        -0.13397
      13 -> 16        -0.10218
      13 -> 17         0.56679
      13 -> 18        -0.25755
      13 -> 19         0.16202
      13 -> 21         0.11979

 Excited State   8:      Singlet-A      8.5262 eV  145.42 nm  f=0.1143  <S**2>=0.000
      10 -> 14        -0.13114
      11 -> 14         0.67845

 Excited State   9:      Singlet-A      8.9161 eV  139.06 nm  f=0.0001  <S**2>=0.000
      11 -> 16        -0.11407
      13 -> 16         0.10692
      13 -> 18         0.30112
      13 -> 19         0.59644

 Excited State  10:      Singlet-A      9.4853 eV  130.71 nm  f=0.0684  <S**2>=0.000
       8 -> 15         0.14617
       9 -> 15         0.10316
      10 -> 16        -0.16212
      10 -> 17        -0.14176
      10 -> 18         0.11014
      12 -> 15         0.46665
      12 -> 16        -0.19949
      12 -> 17         0.15763
      12 -> 18         0.18763
      13 -> 21         0.10909

 Excited State  11:      Singlet-A      9.5049 eV  130.44 nm  f=0.0018  <S**2>=0.000
      11 -> 15        -0.21178
      13 -> 18        -0.24954
      13 -> 19         0.16955
      13 -> 20         0.46354
      13 -> 21        -0.30539

 Excited State  12:      Singlet-A      9.5904 eV  129.28 nm  f=0.0049  <S**2>=0.000
       7 -> 15        -0.13895
      11 -> 15         0.60501
      13 -> 15        -0.13384
      13 -> 20         0.23954

 Excited State  13:      Singlet-A      9.7217 eV  127.53 nm  f=0.0008  <S**2>=0.000
       9 -> 14         0.67604
      12 -> 14        -0.12566

 Excited State  14:      Singlet-A      9.8291 eV  126.14 nm  f=0.0385  <S**2>=0.000
       9 -> 15        -0.20341
      10 -> 15         0.37186
      10 -> 17         0.19418
      12 -> 15         0.39568
      12 -> 16         0.18238
      12 -> 19         0.13124
      13 -> 20        -0.10061
      13 -> 21        -0.11785

 Excited State  15:      Singlet-A      9.9434 eV  124.69 nm  f=0.0921  <S**2>=0.000
      11 -> 16        -0.17188
      12 -> 16         0.20904
      13 -> 19        -0.11688
      13 -> 20         0.35342
      13 -> 21         0.50383

 The electronic state is 1-A.
 Alpha  occ. eigenvalues --   -1.72852  -1.13474  -0.93298  -0.81070  -0.74938
 Alpha  occ. eigenvalues --   -0.67583  -0.63382  -0.54746  -0.49308  -0.45392
 Alpha  occ. eigenvalues --   -0.43408  -0.41566  -0.29233
 Alpha virt. eigenvalues --    0.10389   0.16216   0.18645   0.25113   0.27346
 Alpha virt. eigenvalues --    0.28708   0.31100   0.31321   0.40804   0.49900
 Alpha virt. eigenvalues --    0.54565

 Mulliken charges:
               1
     1  C    0.003704
     2  C   -1.926851
     3  O    3.222032
     4  C   -1.969969
     5  C   -0.096792
     6  H    0.118529
     7  H    0.277764
     8  H    0.259870
     9  H    0.111714
 Sum of Mulliken charges =   0.00000

 Dipole moment (field-independent basis, Debye):
    X=             -3.6555    Y=             -9.6748    Z=             -0.5636  Tot=             10.3577
 N-N= 1.030127928603D+02 E-N=-1.674773281189D+02  KE=-1.496292287913D+01
 Orbital energies and kinetic energies (alpha):
                                 1                 2
   1         O                -1.728517         -1.222140
   2         O                -1.134742         -1.010109
   3         O                -0.932978         -0.844964
   4         O                -0.810704         -0.624375
   5         O                -0.749381         -0.677162
   6         O                -0.675830         -0.577929
   7         O                -0.633819         -0.507691

 Normal termination of Gaussian 09 at Tue Dec 15 17:06:14 2015.
