 Gaussian 09, Revision D.01,
 Gaussian 09:  ES64L-G09RevD.01 24-Apr-2013

 ------------------------------------------------------------
 #P AM1(Input,print) CIS(Singlets,NStates=15) pop(full) force
 ------------------------------------------------------------

 -----------------
 AM1-Reparam Input
 -----------------
 Symbolic Z-matrix:
 Charge =  0 Multiplicity = 1

                         Standard orientation:
 ---------------------------------------------------------------------
 Center     Atomic      Atomic             Coordinates (Angstroms)
 Number     Number       Type             X           Y           Z
 ---------------------------------------------------------------------
      1          6           0       -0.665865    0.957278    0.014724
      2          6           0       -1.132175   -0.269605   -0.006172
      3          8           0       -0.098945   -1.117611    0.002424
      4          6           0        1.108963   -0.423892   -0.004289
      5          6           0        0.776661    0.915995   -0.001533
      6          1           0        1.541009    1.678498   -0.014108
      7          1           0        2.043037   -1.016907    0.012523
      8          1           0       -2.092149   -0.719377   -0.010107
      9          1           0       -1.225847    1.920021   -0.024073
 ---------------------------------------------------------------------

 SCF Done:  E(RAM1) =   2.11014125560     A.U. after   13 cycles

 Excitation energies and oscillator strengths:

 Excited State   1:      Singlet-A      5.3907 eV  230.00 nm  f=0.3552  <S**2>=0.000
      13 -> 14         0.69542
 This state for optimization and/or second-order correction.
 Total Energy, E(CIS) =   2.30824456569
 Copying the excited state density for this state as the 1-particle RhoCI density.

 Excited State   2:      Singlet-A      6.4417 eV  192.47 nm  f=0.0019  <S**2>=0.000
      10 -> 15         0.10705
      13 -> 15         0.66963
      13 -> 17        -0.11494

 Excited State   3:      Singlet-A      6.7213 eV  184.47 nm  f=0.0009  <S**2>=0.000
      10 -> 16        -0.10883
      13 -> 16         0.65116
      13 -> 17        -0.15642
      13 -> 19        -0.14629

 Excited State   4:      Singlet-A      7.1391 eV  173.67 nm  f=0.0005  <S**2>=0.000
      12 -> 14         0.69947

 Excited State   5:      Singlet-A      7.9192 eV  156.56 nm  f=0.0023  <S**2>=0.000
      11 -> 14         0.31584
      13 -> 16         0.14330
      13 -> 17         0.37470
      13 -> 18        -0.37013
      13 -> 19         0.11147
      13 -> 21         0.27517

 Excited State   6:      Singlet-A      8.0053 eV  154.88 nm  f=0.0050  <S**2>=0.000
      11 -> 14         0.60297
      13 -> 18         0.28126
      13 -> 21        -0.17437

 Excited State   7:      Singlet-A      8.3558 eV  148.38 nm  f=0.0072  <S**2>=0.000
      11 -> 14        -0.15477
      13 -> 15         0.11465
      13 -> 17         0.54947
      13 -> 18         0.31572
      13 -> 19        -0.13151
      13 -> 21        -0.14696

 Excited State   8:      Singlet-A      9.0114 eV  137.59 nm  f=0.0703  <S**2>=0.000
      10 -> 14         0.64511
      12 -> 15         0.12030
      13 -> 19        -0.11985
      13 -> 22        -0.14892

 Excited State   9:      Singlet-A      9.0342 eV  137.24 nm  f=0.0045  <S**2>=0.000
      10 -> 14         0.13134
      13 -> 18         0.30296
      13 -> 19         0.58999
      13 -> 21         0.10780

 Excited State  10:      Singlet-A      9.5119 eV  130.35 nm  f=0.0049  <S**2>=0.000
      13 -> 18         0.27688
      13 -> 19        -0.23770
      13 -> 21         0.58145

 Excited State  11:      Singlet-A      9.7194 eV  127.56 nm  f=0.0660  <S**2>=0.000
       8 -> 15        -0.11998
      11 -> 17         0.17428
      12 -> 15         0.48884
      12 -> 16        -0.27070
      12 -> 17         0.10718
      12 -> 18        -0.23679
      12 -> 19         0.10945

 Excited State  12:      Singlet-A      9.8179 eV  126.28 nm  f=0.0941  <S**2>=0.000
      13 -> 20         0.67150
      13 -> 21         0.10481

 Excited State  13:      Singlet-A      9.9253 eV  124.92 nm  f=0.0858  <S**2>=0.000
       9 -> 15         0.11677
      11 -> 15         0.26123
      11 -> 17        -0.20854
      11 -> 18        -0.11353
      12 -> 15         0.40889
      12 -> 16         0.20107
      12 -> 17        -0.22252
      12 -> 18         0.19865

 Excited State  14:      Singlet-A     10.2887 eV  120.50 nm  f=0.2167  <S**2>=0.000
      10 -> 14        -0.10062
      11 -> 15        -0.11271
      11 -> 16        -0.39256
      11 -> 17         0.14949
      12 -> 16         0.46490
      12 -> 18        -0.15553
      13 -> 22        -0.12203

 Excited State  15:      Singlet-A     10.3481 eV  119.81 nm  f=0.0627  <S**2>=0.000
      10 -> 14         0.13543
      11 -> 16        -0.15971
      13 -> 22         0.65142

 The electronic state is 1-A.
 Alpha  occ. eigenvalues --   -1.94508  -1.18714  -0.94398  -0.81310  -0.77968
 Alpha  occ. eigenvalues --   -0.69132  -0.66576  -0.56893  -0.54376  -0.45326
 Alpha  occ. eigenvalues --   -0.44589  -0.41916  -0.29289
 Alpha virt. eigenvalues --    0.10964   0.17208   0.18636   0.24898   0.26905
 Alpha virt. eigenvalues --    0.29287   0.30432   0.31162   0.31724   0.39501
 Alpha virt. eigenvalues --    0.44631

 Mulliken charges:
               1
     1  C   -0.183505
     2  C   -1.873915
     3  O    3.227270
     4  C   -1.897684
     5  C   -0.145261
     6  H    0.165400
     7  H    0.268030
     8  H    0.270600
     9  H    0.169065
 Sum of Mulliken charges =   0.00000

 Dipole moment (field-independent basis, Debye):
    X=             -1.1810    Y=            -10.3403    Z=              0.0835  Tot=             10.4079
 N-N= 1.040917560565D+02 E-N=-1.691480385105D+02  KE=-1.531530850036D+01
 Orbital energies and kinetic energies (alpha):
                                 1                 2
   1         O                -1.945081         -1.368706
   2         O                -1.187141         -1.031870
   3         O                -0.943977         -0.878594
   4         O                -0.813095         -0.582509
   5         O                -0.779684         -0.679083
   6         O                -0.691318         -0.581924
   7         O                -0.665761         -0.527220

 Normal termination of Gaussian 09 at Tue Dec 15 17:09:18 2015.
