 Gaussian 09, Revision D.01,
 Gaussian 09:  ES64L-G09RevD.01 24-Apr-2013

 ------------------------------------------------------------
 #P AM1(Input,print) CIS(Singlets,NStates=15) pop(full) force
 ------------------------------------------------------------

 -----------------
 AM1-Reparam Input
 -----------------
 Symbolic Z-matrix:
 Charge =  0 Multiplicity = 1

                         Standard orientation:
 ---------------------------------------------------------------------
 Center     Atomic      Atomic             Coordinates (Angstroms)
 Number     Number       Type             X           Y           Z
 ---------------------------------------------------------------------
      1          6           0       -0.580822    0.998465   -0.038253
      2          6           0       -1.094022   -0.221458    0.050986
      3          8           0       -0.151048   -1.125212   -0.037750
      4          6           0        1.033067   -0.491337    0.032976
      5          6           0        0.801596    0.893040    0.012313
      6          1           0        1.655578    1.614624   -0.044816
      7          1           0        1.897739   -1.124745   -0.014281
      8          1           0       -2.165750   -0.502364   -0.007960
      9          1           0       -1.138090    1.941924    0.020924
 ---------------------------------------------------------------------

 SCF Done:  E(RAM1) =  0.341876368969E-01 A.U. after   13 cycles

 Excitation energies and oscillator strengths:

 Excited State   1:      Singlet-A      4.4134 eV  280.93 nm  f=0.0997  <S**2>=0.000
      12 -> 15         0.19489
      13 -> 14         0.66996
 This state for optimization and/or second-order correction.
 Total Energy, E(CIS) =  0.196376004141
 Copying the excited state density for this state as the 1-particle RhoCI density.

 Excited State   2:      Singlet-A      4.7761 eV  259.59 nm  f=0.0013  <S**2>=0.000
      13 -> 16         0.68052
      13 -> 20         0.10668
      13 -> 22        -0.10777

 Excited State   3:      Singlet-A      5.0145 eV  247.25 nm  f=0.0148  <S**2>=0.000
      12 -> 14        -0.38881
      13 -> 15         0.58431

 Excited State   4:      Singlet-A      5.7630 eV  215.14 nm  f=0.0019  <S**2>=0.000
      12 -> 18         0.16737
      12 -> 21         0.11819
      13 -> 17         0.20625
      13 -> 18         0.50661
      13 -> 21         0.25698
      13 -> 22         0.15155
      13 -> 23         0.18215

 Excited State   5:      Singlet-A      6.1541 eV  201.47 nm  f=0.0053  <S**2>=0.000
      12 -> 16        -0.11243
      12 -> 19        -0.14234
      12 -> 20         0.11053
      12 -> 22         0.16193
      12 -> 23        -0.11470
      13 -> 17         0.21342
      13 -> 18        -0.10882
      13 -> 19         0.40967
      13 -> 20        -0.17671
      13 -> 22        -0.26450
      13 -> 23         0.20339

 Excited State   6:      Singlet-A      6.1689 eV  200.98 nm  f=0.0018  <S**2>=0.000
       7 -> 16        -0.16392
      12 -> 16         0.63860
      12 -> 20         0.11085
      12 -> 22        -0.10416

 Excited State   7:      Singlet-A      6.2306 eV  198.99 nm  f=0.3287  <S**2>=0.000
       9 -> 16        -0.10188
      11 -> 14        -0.10388
      12 -> 14         0.53514
      13 -> 15         0.35895

 Excited State   8:      Singlet-A      6.5244 eV  190.03 nm  f=0.0597  <S**2>=0.000
      12 -> 15        -0.38317
      13 -> 14         0.10324
      13 -> 17         0.41469
      13 -> 18        -0.12907
      13 -> 19        -0.30713
      13 -> 21        -0.10437

 Excited State   9:      Singlet-A      6.5634 eV  188.90 nm  f=0.1060  <S**2>=0.000
      12 -> 15         0.53577
      13 -> 14        -0.14566
      13 -> 17         0.30587
      13 -> 19        -0.22789

 Excited State  10:      Singlet-A      6.9891 eV  177.40 nm  f=0.0247  <S**2>=0.000
       9 -> 14        -0.25582
      10 -> 14        -0.16303
      10 -> 15         0.11035
      11 -> 14         0.52504
      11 -> 15         0.24824
      12 -> 14         0.10330

 Excited State  11:      Singlet-A      7.1388 eV  173.68 nm  f=0.0011  <S**2>=0.000
      12 -> 17        -0.26812
      12 -> 18         0.18322
      12 -> 19         0.28914
      12 -> 20        -0.10940
      12 -> 21         0.11149
      12 -> 23        -0.10901
      13 -> 18        -0.27032
      13 -> 19         0.14769
      13 -> 20        -0.12587
      13 -> 21         0.17485
      13 -> 22         0.32278

 Excited State  12:      Singlet-A      7.2528 eV  170.95 nm  f=0.0014  <S**2>=0.000
      10 -> 14         0.34673
      10 -> 15        -0.17338
      12 -> 17         0.25674
      12 -> 18        -0.11907
      12 -> 19         0.20452
      12 -> 20         0.10296
      12 -> 23         0.10629
      13 -> 17         0.16709
      13 -> 18        -0.12115
      13 -> 19         0.26371
      13 -> 20         0.23198

 Excited State  13:      Singlet-A      7.3060 eV  169.70 nm  f=0.0032  <S**2>=0.000
      10 -> 14         0.38484
      10 -> 15        -0.27258
      11 -> 14         0.22444
      11 -> 15         0.14235
      12 -> 17        -0.19346
      12 -> 18         0.16210
      12 -> 20        -0.10794
      12 -> 23        -0.14592
      13 -> 19        -0.11152
      13 -> 22        -0.14937

 Excited State  14:      Singlet-A      7.5616 eV  163.97 nm  f=0.0031  <S**2>=0.000
      12 -> 17         0.10773
      12 -> 19        -0.21104
      12 -> 20         0.10953
      12 -> 21        -0.15968
      12 -> 22         0.21888
      12 -> 23         0.22653
      13 -> 17        -0.15155
      13 -> 18        -0.16607
      13 -> 20        -0.15530
      13 -> 22         0.32556
      13 -> 23         0.28977

 Excited State  15:      Singlet-A      7.5761 eV  163.65 nm  f=0.0064  <S**2>=0.000
      12 -> 17         0.17260
      12 -> 18         0.35560
      12 -> 19         0.16803
      12 -> 20        -0.10107
      12 -> 22         0.15541
      13 -> 17        -0.15346
      13 -> 18        -0.15253
      13 -> 20         0.27706
      13 -> 22        -0.23190
      13 -> 23         0.15356
      13 -> 24         0.12989

 The electronic state is 1-A.
 Alpha  occ. eigenvalues --   -1.60580  -1.24660  -1.10003  -0.83032  -0.80984
 Alpha  occ. eigenvalues --   -0.69044  -0.62097  -0.56689  -0.50886  -0.49778
 Alpha  occ. eigenvalues --   -0.49199  -0.39726  -0.34184
 Alpha virt. eigenvalues --    0.03237   0.06708   0.09527   0.14066   0.14630
 Alpha virt. eigenvalues --    0.15305   0.17853   0.18442   0.19009   0.20700
 Alpha virt. eigenvalues --    0.23056

 Mulliken charges:
               1
     1  C   -0.213621
     2  C   -0.110075
     3  O   -0.041020
     4  C   -0.140247
     5  C   -0.196341
     6  H    0.166394
     7  H    0.190542
     8  H    0.190542
     9  H    0.153825
 Sum of Mulliken charges =   0.00000

 Dipole moment (field-independent basis, Debye):
    X=              0.0453    Y=              0.2161    Z=             -0.1002  Tot=              0.2425
 N-N= 1.040980886961D+02 E-N=-1.720931958119D+02  KE=-1.661735631332D+01
 Orbital energies and kinetic energies (alpha):
                                 1                 2
   1         O                -1.605804         -1.340036
   2         O                -1.246599         -1.058818
   3         O                -1.100029         -0.957032
   4         O                -0.830317         -0.705250
   5         O                -0.809838         -0.715859
   6         O                -0.690436         -0.605564
   7         O                -0.620974         -0.499207

 Normal termination of Gaussian 09 at Tue Dec 15 16:26:27 2015.
