 Gaussian 09, Revision D.01,
 Gaussian 09:  ES64L-G09RevD.01 24-Apr-2013

 ------------------------------------------------------------
 #P AM1(Input,print) CIS(Singlets,NStates=15) pop(full) force
 ------------------------------------------------------------

 -----------------
 AM1-Reparam Input
 -----------------
 Symbolic Z-matrix:
 Charge =  0 Multiplicity = 1

                         Standard orientation:
 ---------------------------------------------------------------------
 Center     Atomic      Atomic             Coordinates (Angstroms)
 Number     Number       Type             X           Y           Z
 ---------------------------------------------------------------------
      1          6           0        0.700864    0.934248    0.006277
      2          6           0        1.108697   -0.337469   -0.004001
      3          8           0       -0.050307   -1.160973    0.005780
      4          6           0       -1.054767   -0.310436   -0.002874
      5          6           0       -0.677206    0.937314   -0.016136
      6          1           0       -1.415149    1.774369    0.062262
      7          1           0       -2.004087   -0.779762   -0.004379
      8          1           0        2.035659   -0.859894    0.004256
      9          1           0        1.320507    1.811136   -0.007975
 ---------------------------------------------------------------------

 SCF Done:  E(RAM1) =   1.78842412556     A.U. after   14 cycles

 Excitation energies and oscillator strengths:

 Excited State   1:      Singlet-A      5.5821 eV  222.11 nm  f=0.3297  <S**2>=0.000
      11 -> 17         0.10150
      13 -> 14         0.69030
 This state for optimization and/or second-order correction.
 Total Energy, E(CIS) =   1.99356098995
 Copying the excited state density for this state as the 1-particle RhoCI density.

 Excited State   2:      Singlet-A      6.7186 eV  184.54 nm  f=0.0014  <S**2>=0.000
      10 -> 15         0.10906
      13 -> 15         0.68022
      13 -> 17        -0.11148

 Excited State   3:      Singlet-A      7.2070 eV  172.03 nm  f=0.0005  <S**2>=0.000
      12 -> 14         0.70158

 Excited State   4:      Singlet-A      7.5741 eV  163.70 nm  f=0.0025  <S**2>=0.000
      10 -> 16        -0.11801
      13 -> 16         0.66214
      13 -> 17        -0.10981
      13 -> 19         0.11896

 Excited State   5:      Singlet-A      7.8769 eV  157.40 nm  f=0.0060  <S**2>=0.000
      11 -> 14         0.69431
      13 -> 16        -0.10178

 Excited State   6:      Singlet-A      8.9338 eV  138.78 nm  f=0.0054  <S**2>=0.000
      13 -> 15         0.11421
      13 -> 17         0.45047
      13 -> 18         0.46756
      13 -> 19         0.14495
      13 -> 22         0.17170

 Excited State   7:      Singlet-A      9.0065 eV  137.66 nm  f=0.0035  <S**2>=0.000
      13 -> 16         0.10865
      13 -> 17         0.50381
      13 -> 18        -0.43403
      13 -> 22        -0.17138

 Excited State   8:      Singlet-A      9.5542 eV  129.77 nm  f=0.0507  <S**2>=0.000
      10 -> 14         0.62094
      11 -> 15        -0.12575
      12 -> 16        -0.11445
      12 -> 18        -0.14073
      13 -> 20        -0.12374

 Excited State   9:      Singlet-A      9.6774 eV  128.12 nm  f=0.0077  <S**2>=0.000
       9 -> 15         0.15280
      11 -> 16        -0.12006
      11 -> 17         0.19434
      12 -> 15         0.55083
      12 -> 16        -0.12426
      12 -> 18        -0.21573

 Excited State  10:      Singlet-A      9.8717 eV  125.60 nm  f=0.0010  <S**2>=0.000
      13 -> 18        -0.16551
      13 -> 19         0.65945

 Excited State  11:      Singlet-A      9.9927 eV  124.08 nm  f=0.1404  <S**2>=0.000
       9 -> 15        -0.12779
      10 -> 14         0.18737
      11 -> 15         0.52308
      11 -> 17        -0.22732
      12 -> 15         0.23007
      12 -> 18         0.13472

 Excited State  12:      Singlet-A     10.6053 eV  116.91 nm  f=0.1833  <S**2>=0.000
      11 -> 16        -0.23396
      12 -> 16         0.60651
      12 -> 19         0.11637

 Excited State  13:      Singlet-A     10.6986 eV  115.89 nm  f=0.0775  <S**2>=0.000
      13 -> 18         0.13199
      13 -> 21         0.59397
      13 -> 22        -0.28879

 Excited State  14:      Singlet-A     10.7192 eV  115.67 nm  f=0.0889  <S**2>=0.000
       9 -> 15         0.17208
      10 -> 14         0.20618
      11 -> 15        -0.25369
      11 -> 16         0.19016
      11 -> 19         0.20721
      12 -> 15         0.21932
      12 -> 16         0.13616
      12 -> 18         0.33414
      13 -> 20         0.13666

 Excited State  15:      Singlet-A     10.9121 eV  113.62 nm  f=0.0159  <S**2>=0.000
      10 -> 15         0.47189
      13 -> 18        -0.16178
      13 -> 21         0.18670
      13 -> 22         0.40521

 The electronic state is 1-A.
 Alpha  occ. eigenvalues --   -1.91852  -1.20227  -0.93808  -0.82021  -0.78757
 Alpha  occ. eigenvalues --   -0.70201  -0.68929  -0.55976  -0.54592  -0.46599
 Alpha  occ. eigenvalues --   -0.42776  -0.40936  -0.29714
 Alpha virt. eigenvalues --    0.12534   0.17622   0.21426   0.27451   0.29277
 Alpha virt. eigenvalues --    0.31583   0.33451   0.33858   0.37399   0.42521
 Alpha virt. eigenvalues --    0.45465

 Mulliken charges:
               1
     1  C   -0.113347
     2  C   -1.996831
     3  O    3.288464
     4  C   -2.004750
     5  C   -0.234401
     6  H    0.211453
     7  H    0.332281
     8  H    0.316715
     9  H    0.200416
 Sum of Mulliken charges =   0.00000

 Dipole moment (field-independent basis, Debye):
    X=             -1.1974    Y=            -11.2173    Z=              0.2104  Tot=             11.2830
 N-N= 1.045773335581D+02 E-N=-1.704737003533D+02  KE=-1.557635784284D+01
 Orbital energies and kinetic energies (alpha):
                                 1                 2
   1         O                -1.918522         -1.379657
   2         O                -1.202269         -1.075551
   3         O                -0.938083         -0.902068
   4         O                -0.820209         -0.568645
   5         O                -0.787570         -0.693592
   6         O                -0.702009         -0.586655
   7         O                -0.689289         -0.550586

 Normal termination of Gaussian 09 at Tue Dec 15 17:09:47 2015.
