 Gaussian 09, Revision D.01,
 Gaussian 09:  ES64L-G09RevD.01 24-Apr-2013

 ------------------------------------------------------------
 #P AM1(Input,print) CIS(Singlets,NStates=15) pop(full) force
 ------------------------------------------------------------

 -----------------
 AM1-Reparam Input
 -----------------
 Symbolic Z-matrix:
 Charge =  0 Multiplicity = 1

                         Standard orientation:
 ---------------------------------------------------------------------
 Center     Atomic      Atomic             Coordinates (Angstroms)
 Number     Number       Type             X           Y           Z
 ---------------------------------------------------------------------
      1          6           0       -0.758455    0.927988   -0.011958
      2          6           0       -1.090365   -0.318593    0.029877
      3          8           0        0.016607   -1.170386   -0.037171
      4          6           0        1.068205   -0.332823    0.042094
      5          6           0        0.758371    0.984817   -0.009150
      6          1           0        1.365174    1.773344   -0.016099
      7          1           0        2.037449   -0.902824   -0.007160
      8          1           0       -2.057556   -0.851726    0.034843
      9          1           0       -1.344462    1.775963   -0.019400
 ---------------------------------------------------------------------

 SCF Done:  E(RAM1) =   1.14674610525     A.U. after   13 cycles

 Excitation energies and oscillator strengths:

 Excited State   1:      Singlet-A      5.1568 eV  240.43 nm  f=0.2282  <S**2>=0.000
      12 -> 15        -0.11413
      13 -> 14         0.68543
 This state for optimization and/or second-order correction.
 Total Energy, E(CIS) =   1.33625549123
 Copying the excited state density for this state as the 1-particle RhoCI density.

 Excited State   2:      Singlet-A      6.0097 eV  206.31 nm  f=0.0027  <S**2>=0.000
      13 -> 15        -0.34501
      13 -> 16         0.56996
      13 -> 18        -0.19411

 Excited State   3:      Singlet-A      6.3467 eV  195.35 nm  f=0.0145  <S**2>=0.000
      12 -> 14        -0.12016
      13 -> 15        -0.31644
      13 -> 16        -0.24883
      13 -> 17         0.52543
      13 -> 19         0.17298

 Excited State   4:      Singlet-A      6.5819 eV  188.37 nm  f=0.0335  <S**2>=0.000
      12 -> 14         0.28100
      13 -> 15         0.43171
      13 -> 16         0.22154
      13 -> 17         0.39916
      13 -> 19         0.10075

 Excited State   5:      Singlet-A      6.9930 eV  177.30 nm  f=0.0009  <S**2>=0.000
       9 -> 14        -0.10051
      11 -> 14         0.68905

 Excited State   6:      Singlet-A      7.6984 eV  161.05 nm  f=0.0001  <S**2>=0.000
      13 -> 16         0.15006
      13 -> 18         0.57358
      13 -> 19         0.29826
      13 -> 23        -0.11932

 Excited State   7:      Singlet-A      7.9457 eV  156.04 nm  f=0.2566  <S**2>=0.000
      11 -> 18        -0.10072
      12 -> 14         0.60475
      13 -> 15        -0.24527
      13 -> 16        -0.11123

 Excited State   8:      Singlet-A      8.1396 eV  152.32 nm  f=0.0000  <S**2>=0.000
      10 -> 14        -0.12908
      13 -> 17        -0.12705
      13 -> 18        -0.18713
      13 -> 19         0.45942
      13 -> 20         0.42068

 Excited State   9:      Singlet-A      8.2580 eV  150.14 nm  f=0.0070  <S**2>=0.000
       9 -> 15         0.14301
      10 -> 14         0.59795
      11 -> 15         0.24383
      13 -> 19         0.13927

 Excited State  10:      Singlet-A      8.5780 eV  144.54 nm  f=0.0353  <S**2>=0.000
      11 -> 16         0.21811
      11 -> 18        -0.12455
      12 -> 15         0.57171

 Excited State  11:      Singlet-A      8.6604 eV  143.16 nm  f=0.0078  <S**2>=0.000
      10 -> 14        -0.12780
      12 -> 16         0.46045
      13 -> 18        -0.13691
      13 -> 19         0.18367
      13 -> 20        -0.34540
      13 -> 21         0.20495

 Excited State  12:      Singlet-A      8.7236 eV  142.12 nm  f=0.0206  <S**2>=0.000
       9 -> 15         0.18362
       9 -> 16         0.11660
      10 -> 14        -0.27738
      11 -> 15         0.54020
      11 -> 16         0.11084
      12 -> 16        -0.10138

 Excited State  13:      Singlet-A      8.8872 eV  139.51 nm  f=0.0033  <S**2>=0.000
      12 -> 16         0.36159
      12 -> 17         0.35527
      13 -> 18         0.19136
      13 -> 19        -0.17996
      13 -> 20         0.28214
      13 -> 21        -0.14796

 Excited State  14:      Singlet-A      9.0544 eV  136.93 nm  f=0.0003  <S**2>=0.000
      12 -> 16        -0.17844
      12 -> 17         0.31584
      13 -> 20         0.12991
      13 -> 21         0.55602

 Excited State  15:      Singlet-A      9.2826 eV  133.57 nm  f=0.0002  <S**2>=0.000
      12 -> 16        -0.23159
      12 -> 17         0.42049
      13 -> 17        -0.11161
      13 -> 18        -0.13173
      13 -> 19         0.20400
      13 -> 20        -0.25014
      13 -> 21        -0.26226
      13 -> 22        -0.17404

 The electronic state is 1-A.
 Alpha  occ. eigenvalues --   -1.81426  -1.18982  -0.98625  -0.88076  -0.79731
 Alpha  occ. eigenvalues --   -0.74438  -0.71033  -0.59243  -0.55487  -0.53530
 Alpha  occ. eigenvalues --   -0.48844  -0.47572  -0.36110
 Alpha virt. eigenvalues --    0.03431   0.09216   0.09579   0.11206   0.18151
 Alpha virt. eigenvalues --    0.19259   0.21603   0.22222   0.26614   0.28187
 Alpha virt. eigenvalues --    0.28310

 Mulliken charges:
               1
     1  C   -0.104290
     2  C   -1.198294
     3  O    2.082299
     4  C   -1.197417
     5  C   -0.163701
     6  H    0.092379
     7  H    0.197386
     8  H    0.194779
     9  H    0.096859
 Sum of Mulliken charges =   0.00000

 Dipole moment (field-independent basis, Debye):
    X=              0.0961    Y=             -7.8833    Z=             -0.6660  Tot=              7.9120
 N-N= 1.042635135781D+02 E-N=-1.710069182858D+02  KE=-1.496467154856D+01
 Orbital energies and kinetic energies (alpha):
                                 1                 2
   1         O                -1.814256         -1.231481
   2         O                -1.189824         -0.976305
   3         O                -0.986248         -0.831058
   4         O                -0.880763         -0.625673
   5         O                -0.797313         -0.666633
   6         O                -0.744376         -0.592330
   7         O                -0.710335         -0.511633

 Normal termination of Gaussian 09 at Tue Dec 15 17:05:29 2015.
