 Gaussian 09, Revision D.01,
 Gaussian 09:  ES64L-G09RevD.01 24-Apr-2013

 ------------------------------------------------------------
 #P AM1(Input,print) CIS(Singlets,NStates=15) pop(full) force
 ------------------------------------------------------------

 -----------------
 AM1-Reparam Input
 -----------------
 Symbolic Z-matrix:
 Charge =  0 Multiplicity = 1

                         Standard orientation:
 ---------------------------------------------------------------------
 Center     Atomic      Atomic             Coordinates (Angstroms)
 Number     Number       Type             X           Y           Z
 ---------------------------------------------------------------------
      1          6           0        0.998752    0.679922   -0.001949
      2          6           0        0.970490   -0.617294   -0.003461
      3          8           0       -0.401906   -1.116253   -0.007436
      4          6           0       -1.112923    0.025511    0.003450
      5          6           0       -0.424883    1.084749   -0.002005
      6          1           0       -0.759060    2.137273    0.008006
      7          1           0       -2.161964   -0.160181    0.024412
      8          1           0        1.666415   -1.403271    0.051075
      9          1           0        1.881249    1.318878   -0.000214
 ---------------------------------------------------------------------

 SCF Done:  E(RAM1) =   1.89879625228     A.U. after   14 cycles

 Excitation energies and oscillator strengths:

 Excited State   1:      Singlet-A      5.0653 eV  244.77 nm  f=0.3516  <S**2>=0.000
      13 -> 14         0.69552
 This state for optimization and/or second-order correction.
 Total Energy, E(CIS) =   2.08494239440
 Copying the excited state density for this state as the 1-particle RhoCI density.

 Excited State   2:      Singlet-A      5.6457 eV  219.61 nm  f=0.0012  <S**2>=0.000
      13 -> 15         0.68669
      13 -> 18         0.10758

 Excited State   3:      Singlet-A      6.4623 eV  191.86 nm  f=0.0023  <S**2>=0.000
      13 -> 16         0.66822
      13 -> 17        -0.16704

 Excited State   4:      Singlet-A      7.1734 eV  172.84 nm  f=0.0002  <S**2>=0.000
      12 -> 14         0.70228

 Excited State   5:      Singlet-A      7.6192 eV  162.73 nm  f=0.0001  <S**2>=0.000
      13 -> 16         0.14017
      13 -> 17         0.33135
      13 -> 18         0.56303
      13 -> 22        -0.20125

 Excited State   6:      Singlet-A      8.2227 eV  150.78 nm  f=0.0144  <S**2>=0.000
      11 -> 14         0.41654
      13 -> 17         0.46878
      13 -> 18        -0.27978

 Excited State   7:      Singlet-A      8.3899 eV  147.78 nm  f=0.0000  <S**2>=0.000
      11 -> 14         0.56283
      13 -> 17        -0.34031
      13 -> 18         0.19869
      13 -> 19        -0.12195

 Excited State   8:      Singlet-A      9.0476 eV  137.03 nm  f=0.0003  <S**2>=0.000
      13 -> 18         0.12091
      13 -> 19         0.67270

 Excited State   9:      Singlet-A      9.1660 eV  135.26 nm  f=0.0320  <S**2>=0.000
      10 -> 14         0.57347
      12 -> 15        -0.27627
      13 -> 20        -0.19967

 Excited State  10:      Singlet-A      9.2274 eV  134.36 nm  f=0.0928  <S**2>=0.000
       8 -> 16        -0.11507
      10 -> 14         0.20806
      11 -> 17        -0.11370
      12 -> 15         0.51013
      12 -> 16        -0.23885
      12 -> 18         0.24098

 Excited State  11:      Singlet-A      9.8033 eV  126.47 nm  f=0.0533  <S**2>=0.000
       9 -> 15         0.12431
      10 -> 14        -0.15050
      11 -> 15         0.31273
      11 -> 17        -0.17672
      11 -> 18         0.12737
      12 -> 15        -0.29991
      12 -> 16        -0.23532
      12 -> 17         0.26546
      12 -> 18         0.22876

 Excited State  12:      Singlet-A      9.9512 eV  124.59 nm  f=0.0370  <S**2>=0.000
      13 -> 18         0.13823
      13 -> 21        -0.46155
      13 -> 22         0.50017

 Excited State  13:      Singlet-A     10.1785 eV  121.81 nm  f=0.0615  <S**2>=0.000
      10 -> 15         0.13241
      13 -> 18         0.11336
      13 -> 21         0.50665
      13 -> 22         0.44374

 Excited State  14:      Singlet-A     10.2459 eV  121.01 nm  f=0.0766  <S**2>=0.000
      10 -> 14         0.18869
      12 -> 17        -0.12734
      13 -> 20         0.64459

 Excited State  15:      Singlet-A     10.3375 eV  119.94 nm  f=0.2012  <S**2>=0.000
      10 -> 14         0.12966
      11 -> 16         0.30064
      11 -> 17        -0.12669
      12 -> 16         0.51763
      12 -> 18         0.22287

 The electronic state is 1-A.
 Alpha  occ. eigenvalues --   -1.98998  -1.27980  -1.02170  -0.89265  -0.84974
 Alpha  occ. eigenvalues --   -0.77250  -0.74552  -0.61941  -0.60691  -0.52187
 Alpha  occ. eigenvalues --   -0.50588  -0.47030  -0.33206
 Alpha virt. eigenvalues --    0.05815   0.10257   0.13845   0.21274   0.21555
 Alpha virt. eigenvalues --    0.24468   0.26531   0.27543   0.29091   0.35516
 Alpha virt. eigenvalues --    0.39004

 Mulliken charges:
               1
     1  C   -0.073339
     2  C   -1.818645
     3  O    3.153496
     4  C   -1.829327
     5  C   -0.251315
     6  H    0.158998
     7  H    0.274263
     8  H    0.247519
     9  H    0.138350
 Sum of Mulliken charges =   0.00000

 Dipole moment (field-independent basis, Debye):
    X=             -4.4228    Y=            -11.2582    Z=              0.0370  Tot=             12.0959
 N-N= 1.057545975933D+02 E-N=-1.708237469723D+02  KE=-1.567118286367D+01
 Orbital energies and kinetic energies (alpha):
                                 1                 2
   1         O                -1.989979         -1.353211
   2         O                -1.279798         -1.060742
   3         O                -1.021696         -0.909985
   4         O                -0.892653         -0.584437
   5         O                -0.849738         -0.705852
   6         O                -0.772504         -0.579021
   7         O                -0.745521         -0.549325

 Normal termination of Gaussian 09 at Tue Dec 15 17:09:10 2015.
