 Gaussian 09, Revision D.01,
 Gaussian 09:  ES64L-G09RevD.01 24-Apr-2013

 ------------------------------------------------------------
 #P AM1(Input,print) CIS(Singlets,NStates=15) pop(full) force
 ------------------------------------------------------------

 -----------------
 AM1-Reparam Input
 -----------------
 Symbolic Z-matrix:
 Charge =  0 Multiplicity = 1

                         Standard orientation:
 ---------------------------------------------------------------------
 Center     Atomic      Atomic             Coordinates (Angstroms)
 Number     Number       Type             X           Y           Z
 ---------------------------------------------------------------------
      1          6           0        0.675878    0.981242   -0.020475
      2          6           0        1.064960   -0.289038    0.002296
      3          8           0        0.104754   -1.110560   -0.010340
      4          6           0       -1.089262   -0.452070    0.017828
      5          6           0       -0.756986    0.920529   -0.005822
      6          1           0       -1.513018    1.690538    0.009793
      7          1           0       -1.987048   -0.944526   -0.002989
      8          1           0        2.122285   -0.706192    0.045864
      9          1           0        1.172203    1.880684    0.067091
 ---------------------------------------------------------------------

 SCF Done:  E(RAM1) =   1.73222710142     A.U. after   13 cycles

 Excitation energies and oscillator strengths:

 Excited State   1:      Singlet-A      5.4947 eV  225.64 nm  f=0.3672  <S**2>=0.000
      13 -> 14         0.69365
 This state for optimization and/or second-order correction.
 Total Energy, E(CIS) =   1.93415212219
 Copying the excited state density for this state as the 1-particle RhoCI density.

 Excited State   2:      Singlet-A      6.8206 eV  181.78 nm  f=0.0026  <S**2>=0.000
      10 -> 15         0.10828
      13 -> 15         0.67901
      13 -> 17        -0.13080

 Excited State   3:      Singlet-A      6.9969 eV  177.20 nm  f=0.0013  <S**2>=0.000
      12 -> 14         0.69802

 Excited State   4:      Singlet-A      7.7261 eV  160.47 nm  f=0.0081  <S**2>=0.000
      11 -> 14        -0.18804
      13 -> 16         0.64244
      13 -> 18        -0.17473

 Excited State   5:      Singlet-A      7.9278 eV  156.39 nm  f=0.0043  <S**2>=0.000
      11 -> 14         0.67552
      13 -> 16         0.18243

 Excited State   6:      Singlet-A      8.8546 eV  140.02 nm  f=0.0060  <S**2>=0.000
      13 -> 16        -0.11091
      13 -> 17         0.50774
      13 -> 18        -0.38651
      13 -> 21        -0.23781

 Excited State   7:      Singlet-A      9.2397 eV  134.19 nm  f=0.1164  <S**2>=0.000
      10 -> 14         0.67978
      12 -> 15         0.12143

 Excited State   8:      Singlet-A      9.5108 eV  130.36 nm  f=0.0086  <S**2>=0.000
      10 -> 16        -0.11181
      13 -> 17         0.41139
      13 -> 18         0.44814
      13 -> 19        -0.27662
      13 -> 21         0.10105

 Excited State   9:      Singlet-A      9.7415 eV  127.27 nm  f=0.0748  <S**2>=0.000
       8 -> 15         0.11491
      10 -> 14        -0.11432
      11 -> 16        -0.13397
      12 -> 15         0.58812
      12 -> 16        -0.11438
      12 -> 17        -0.18077
      12 -> 18         0.13415

 Excited State  10:      Singlet-A     10.0774 eV  123.03 nm  f=0.0006  <S**2>=0.000
      10 -> 16        -0.15100
      13 -> 17         0.17014
      13 -> 18         0.17547
      13 -> 19         0.62542

 Excited State  11:      Singlet-A     10.1760 eV  121.84 nm  f=0.0488  <S**2>=0.000
       9 -> 15         0.14689
      11 -> 15         0.36865
      11 -> 16         0.22297
      11 -> 17        -0.19785
      11 -> 18        -0.10906
      12 -> 15         0.24623
      12 -> 16         0.18657
      12 -> 17         0.14514
      12 -> 18        -0.23933
      12 -> 19         0.10374

 Excited State  12:      Singlet-A     10.7220 eV  115.64 nm  f=0.1436  <S**2>=0.000
       9 -> 15         0.10185
      10 -> 15        -0.26157
      11 -> 15         0.11864
      11 -> 16        -0.32904
      11 -> 19         0.13633
      12 -> 16         0.40283
      12 -> 17        -0.17840
      12 -> 19        -0.10645
      13 -> 21         0.12999

 Excited State  13:      Singlet-A     10.7566 eV  115.26 nm  f=0.0367  <S**2>=0.000
       9 -> 14        -0.15842
      10 -> 15         0.43122
      11 -> 15        -0.10757
      11 -> 16        -0.15695
      12 -> 16         0.34521
      13 -> 18         0.12396
      13 -> 21        -0.23849

 Excited State  14:      Singlet-A     10.8036 eV  114.76 nm  f=0.0086  <S**2>=0.000
       9 -> 14         0.38497
      10 -> 15         0.26830
      11 -> 15        -0.11727
      13 -> 18        -0.13748
      13 -> 20         0.10054
      13 -> 21         0.43329

 Excited State  15:      Singlet-A     10.9180 eV  113.56 nm  f=0.0269  <S**2>=0.000
       9 -> 14         0.51811
      13 -> 18         0.10194
      13 -> 20        -0.25605
      13 -> 21        -0.35744

 The electronic state is 1-A.
 Alpha  occ. eigenvalues --   -1.93273  -1.18313  -0.93480  -0.83166  -0.78193
 Alpha  occ. eigenvalues --   -0.70706  -0.69659  -0.58438  -0.54862  -0.47685
 Alpha  occ. eigenvalues --   -0.46090  -0.43113  -0.31973
 Alpha virt. eigenvalues --    0.09270   0.15218   0.20826   0.26597   0.27799
 Alpha virt. eigenvalues --    0.29342   0.31795   0.34016   0.37307   0.45164
 Alpha virt. eigenvalues --    0.50162

 Mulliken charges:
               1
     1  C   -0.204997
     2  C   -2.046225
     3  O    3.301812
     4  C   -2.054770
     5  C   -0.125363
     6  H    0.210393
     7  H    0.334861
     8  H    0.367516
     9  H    0.216773
 Sum of Mulliken charges =   0.00000

 Dipole moment (field-independent basis, Debye):
    X=              1.8806    Y=             -9.4535    Z=             -0.1374  Tot=              9.6397
 N-N= 1.045470810024D+02 E-N=-1.703022384715D+02  KE=-1.554843885425D+01
 Orbital energies and kinetic energies (alpha):
                                 1                 2
   1         O                -1.932731         -1.418201
   2         O                -1.183133         -1.048377
   3         O                -0.934801         -0.881556
   4         O                -0.831664         -0.568991
   5         O                -0.781929         -0.701746
   6         O                -0.707059         -0.595108
   7         O                -0.696586         -0.540114

 Normal termination of Gaussian 09 at Tue Dec 15 17:09:49 2015.
