 Gaussian 09, Revision D.01,
 Gaussian 09:  ES64L-G09RevD.01 24-Apr-2013

 ------------------------------------------------------------
 #P AM1(Input,print) CIS(Singlets,NStates=15) pop(full) force
 ------------------------------------------------------------

 -----------------
 AM1-Reparam Input
 -----------------
 Symbolic Z-matrix:
 Charge =  0 Multiplicity = 1

                         Standard orientation:
 ---------------------------------------------------------------------
 Center     Atomic      Atomic             Coordinates (Angstroms)
 Number     Number       Type             X           Y           Z
 ---------------------------------------------------------------------
      1          6           0       -0.947164    0.716686   -0.010814
      2          6           0       -1.014519   -0.569908    0.008926
      3          8           0        0.305405   -1.133132   -0.007615
      4          6           0        1.159974   -0.111578   -0.002272
      5          6           0        0.462598    1.147134    0.014043
      6          1           0        0.936790    2.101913   -0.021668
      7          1           0        2.235390   -0.305277    0.012470
      8          1           0       -1.786927   -1.281373    0.020675
      9          1           0       -1.793824    1.455788   -0.009853
 ---------------------------------------------------------------------

 SCF Done:  E(RAM1) =   1.83093032175     A.U. after   14 cycles

 Excitation energies and oscillator strengths:

 Excited State   1:      Singlet-A      5.5079 eV  225.10 nm  f=0.3475  <S**2>=0.000
      13 -> 14         0.69387
 This state for optimization and/or second-order correction.
 Total Energy, E(CIS) =   2.03334023658
 Copying the excited state density for this state as the 1-particle RhoCI density.

 Excited State   2:      Singlet-A      6.2046 eV  199.83 nm  f=0.0024  <S**2>=0.000
      10 -> 15        -0.10041
      13 -> 15         0.65768
      13 -> 17        -0.19928
      13 -> 19        -0.11138

 Excited State   3:      Singlet-A      6.5639 eV  188.89 nm  f=0.0005  <S**2>=0.000
      12 -> 14         0.70150

 Excited State   4:      Singlet-A      6.7210 eV  184.47 nm  f=0.0011  <S**2>=0.000
      10 -> 16         0.11569
      13 -> 16         0.66897
      13 -> 19         0.12692

 Excited State   5:      Singlet-A      7.7944 eV  159.07 nm  f=0.0068  <S**2>=0.000
      11 -> 14        -0.42762
      13 -> 15         0.15640
      13 -> 17         0.49087
      13 -> 21         0.13214

 Excited State   6:      Singlet-A      7.9109 eV  156.73 nm  f=0.0003  <S**2>=0.000
      11 -> 14         0.54783
      13 -> 17         0.34978
      13 -> 18        -0.15560
      13 -> 19         0.12329
      13 -> 21         0.11973

 Excited State   7:      Singlet-A      8.1967 eV  151.26 nm  f=0.0077  <S**2>=0.000
      13 -> 16         0.12283
      13 -> 17         0.25589
      13 -> 18         0.54524
      13 -> 19        -0.17752
      13 -> 20         0.10278
      13 -> 21        -0.23556

 Excited State   8:      Singlet-A      8.7311 eV  142.00 nm  f=0.0013  <S**2>=0.000
      13 -> 17        -0.10857
      13 -> 18         0.29755
      13 -> 19         0.58796
      13 -> 20        -0.14053

 Excited State   9:      Singlet-A      8.7674 eV  141.41 nm  f=0.0095  <S**2>=0.000
       8 -> 16         0.11795
      10 -> 14         0.42264
      11 -> 16         0.13417
      11 -> 17        -0.14939
      12 -> 15         0.21395
      12 -> 16        -0.26331
      12 -> 17        -0.25705
      12 -> 18         0.17015

 Excited State  10:      Singlet-A      9.1602 eV  135.35 nm  f=0.0788  <S**2>=0.000
       8 -> 15         0.11674
       9 -> 15        -0.10905
      10 -> 14        -0.42691
      11 -> 18        -0.10959
      12 -> 15         0.45086
      12 -> 19        -0.14010
      13 -> 22        -0.11997

 Excited State  11:      Singlet-A      9.3680 eV  132.35 nm  f=0.0160  <S**2>=0.000
      13 -> 18        -0.21944
      13 -> 19         0.24675
      13 -> 20         0.45072
      13 -> 21        -0.40679

 Excited State  12:      Singlet-A      9.5184 eV  130.26 nm  f=0.1272  <S**2>=0.000
       9 -> 16         0.10320
      10 -> 14         0.15170
      11 -> 16         0.12103
      12 -> 15         0.13605
      12 -> 16         0.60922
      12 -> 17        -0.17028

 Excited State  13:      Singlet-A      9.6762 eV  128.13 nm  f=0.1593  <S**2>=0.000
       9 -> 15        -0.14626
      10 -> 14        -0.18686
      11 -> 15         0.43921
      11 -> 17        -0.23592
      11 -> 18        -0.10067
      12 -> 15        -0.29147
      12 -> 18         0.24081

 Excited State  14:      Singlet-A      9.7986 eV  126.53 nm  f=0.1194  <S**2>=0.000
       9 -> 15        -0.20599
      10 -> 14         0.20608
      10 -> 15         0.14062
      11 -> 15         0.27004
      11 -> 18        -0.12111
      11 -> 19        -0.17291
      12 -> 15         0.17596
      12 -> 17         0.30677
      12 -> 18        -0.22297
      12 -> 19        -0.12215
      13 -> 20        -0.13990
      13 -> 21        -0.12985

 Excited State  15:      Singlet-A      9.8076 eV  126.42 nm  f=0.0674  <S**2>=0.000
      10 -> 15        -0.27572
      11 -> 15         0.12393
      12 -> 17         0.10918
      13 -> 20         0.42343
      13 -> 21         0.38172

 The electronic state is 1-A.
 Alpha  occ. eigenvalues --   -1.93112  -1.19614  -0.97293  -0.80725  -0.79836
 Alpha  occ. eigenvalues --   -0.67655  -0.66810  -0.52499  -0.48864  -0.42610
 Alpha  occ. eigenvalues --   -0.41442  -0.37196  -0.26740
 Alpha virt. eigenvalues --    0.13813   0.18739   0.20794   0.26269   0.29119
 Alpha virt. eigenvalues --    0.30197   0.32933   0.34761   0.34942   0.43811
 Alpha virt. eigenvalues --    0.48383

 Mulliken charges:
               1
     1  C    0.000988
     2  C   -1.866372
     3  O    3.126896
     4  C   -1.956476
     5  C   -0.212414
     6  H    0.163550
     7  H    0.319364
     8  H    0.286999
     9  H    0.137466
 Sum of Mulliken charges =   0.00000

 Dipole moment (field-independent basis, Debye):
    X=              2.6083    Y=            -10.3773    Z=             -0.1419  Tot=             10.7010
 N-N= 1.034471125468D+02 E-N=-1.685475537109D+02  KE=-1.559687199963D+01
 Orbital energies and kinetic energies (alpha):
                                 1                 2
   1         O                -1.931122         -1.389218
   2         O                -1.196138         -1.068235
   3         O                -0.972932         -0.904504
   4         O                -0.807249         -0.616396
   5         O                -0.798362         -0.697826
   6         O                -0.676552         -0.562523
   7         O                -0.668098         -0.574447

 Normal termination of Gaussian 09 at Tue Dec 15 17:09:54 2015.
