 Gaussian 09, Revision D.01,
 Gaussian 09:  ES64L-G09RevD.01 24-Apr-2013

 ------------------------------------------------------------
 #P AM1(Input,print) CIS(Singlets,NStates=15) pop(full) force
 ------------------------------------------------------------

 -----------------
 AM1-Reparam Input
 -----------------
 Symbolic Z-matrix:
 Charge =  0 Multiplicity = 1

                         Standard orientation:
 ---------------------------------------------------------------------
 Center     Atomic      Atomic             Coordinates (Angstroms)
 Number     Number       Type             X           Y           Z
 ---------------------------------------------------------------------
      1          6           0        0.225668    1.175268    0.009621
      2          6           0        1.134246    0.127333   -0.014697
      3          8           0        0.512387   -1.068016    0.009717
      4          6           0       -0.839463   -0.714196   -0.009019
      5          6           0       -1.062685    0.545460   -0.011297
      6          1           0       -1.968830    1.034051    0.041291
      7          1           0       -1.511663   -1.649770    0.015622
      8          1           0        2.190800    0.169636    0.015316
      9          1           0        0.443995    2.187015    0.002382
 ---------------------------------------------------------------------

 SCF Done:  E(RAM1) =   2.16129237629     A.U. after   14 cycles

 Excitation energies and oscillator strengths:

 Excited State   1:      Singlet-A      5.4356 eV  228.10 nm  f=0.3472  <S**2>=0.000
      13 -> 14         0.69591
 This state for optimization and/or second-order correction.
 Total Energy, E(CIS) =   2.36104717355
 Copying the excited state density for this state as the 1-particle RhoCI density.

 Excited State   2:      Singlet-A      5.9887 eV  207.03 nm  f=0.0004  <S**2>=0.000
      11 -> 15         0.11092
      13 -> 15         0.68399

 Excited State   3:      Singlet-A      6.4198 eV  193.13 nm  f=0.0018  <S**2>=0.000
      11 -> 16        -0.10025
      13 -> 16         0.67057
      13 -> 17        -0.14962

 Excited State   4:      Singlet-A      7.1948 eV  172.33 nm  f=0.0002  <S**2>=0.000
      12 -> 14         0.70119

 Excited State   5:      Singlet-A      8.0643 eV  153.74 nm  f=0.0015  <S**2>=0.000
      13 -> 18         0.61370
      13 -> 21         0.12991
      13 -> 22        -0.27893

 Excited State   6:      Singlet-A      8.2323 eV  150.61 nm  f=0.0120  <S**2>=0.000
      10 -> 14         0.55699
      11 -> 14        -0.24930
      13 -> 17        -0.33139

 Excited State   7:      Singlet-A      8.4377 eV  146.94 nm  f=0.0051  <S**2>=0.000
      10 -> 14         0.31310
      11 -> 14        -0.14744
      13 -> 16         0.10271
      13 -> 17         0.58970

 Excited State   8:      Singlet-A      8.9249 eV  138.92 nm  f=0.0584  <S**2>=0.000
       8 -> 15         0.10822
      10 -> 14         0.23152
      11 -> 14         0.47966
      12 -> 15        -0.36570
      13 -> 20         0.16230

 Excited State   9:      Singlet-A      9.0980 eV  136.28 nm  f=0.0001  <S**2>=0.000
      13 -> 18         0.12238
      13 -> 19         0.66503
      13 -> 21        -0.10562

 Excited State  10:      Singlet-A      9.3658 eV  132.38 nm  f=0.1844  <S**2>=0.000
      10 -> 14         0.13912
      11 -> 14         0.33179
      12 -> 15         0.48993
      12 -> 16        -0.18675
      12 -> 18        -0.11568
      13 -> 20         0.18154

 Excited State  11:      Singlet-A      9.6539 eV  128.43 nm  f=0.0166  <S**2>=0.000
      13 -> 18         0.28558
      13 -> 21        -0.43390
      13 -> 22         0.44704

 Excited State  12:      Singlet-A      9.9075 eV  125.14 nm  f=0.0261  <S**2>=0.000
       9 -> 16         0.11639
      10 -> 15         0.18714
      10 -> 17        -0.15857
      11 -> 15        -0.21415
      12 -> 15         0.23498
      12 -> 16         0.39361
      12 -> 17        -0.13237
      12 -> 18         0.22662
      13 -> 20        -0.10423
      13 -> 22        -0.13227

 Excited State  13:      Singlet-A      9.9797 eV  124.24 nm  f=0.0837  <S**2>=0.000
      11 -> 16        -0.17811
      13 -> 18         0.10256
      13 -> 20        -0.20566
      13 -> 21         0.43840
      13 -> 22         0.40928

 Excited State  14:      Singlet-A     10.0688 eV  123.14 nm  f=0.0414  <S**2>=0.000
       7 -> 15        -0.10038
      10 -> 16         0.12227
      11 -> 14         0.12479
      11 -> 15         0.50829
      11 -> 16         0.19808
      13 -> 15        -0.11008
      13 -> 20        -0.29208
      13 -> 21        -0.15622

 Excited State  15:      Singlet-A     10.0886 eV  122.90 nm  f=0.0670  <S**2>=0.000
      10 -> 15         0.24173
      11 -> 14        -0.14874
      11 -> 15         0.26002
      11 -> 16         0.10022
      12 -> 16         0.16111
      13 -> 20         0.50330
      13 -> 21         0.10826

 The electronic state is 1-A.
 Alpha  occ. eigenvalues --   -1.93318  -1.20598  -0.93048  -0.80298  -0.78526
 Alpha  occ. eigenvalues --   -0.69598  -0.65891  -0.53848  -0.52897  -0.44321
 Alpha  occ. eigenvalues --   -0.43906  -0.40653  -0.27756
 Alpha virt. eigenvalues --    0.12883   0.16546   0.18914   0.27502   0.29019
 Alpha virt. eigenvalues --    0.30908   0.31520   0.32621   0.34237   0.40398
 Alpha virt. eigenvalues --    0.43568

 Mulliken charges:
               1
     1  C   -0.203942
     2  C   -1.897551
     3  O    3.193059
     4  C   -1.823751
     5  C   -0.090442
     6  H    0.145594
     7  H    0.249162
     8  H    0.273128
     9  H    0.154744
 Sum of Mulliken charges =   0.00000

 Dipole moment (field-independent basis, Debye):
    X=              4.5219    Y=            -10.6318    Z=              0.4012  Tot=             11.5605
 N-N= 1.043400237645D+02 E-N=-1.697017139223D+02  KE=-1.536261457708D+01
 Orbital energies and kinetic energies (alpha):
                                 1                 2
   1         O                -1.933184         -1.354100
   2         O                -1.205978         -1.075607
   3         O                -0.930477         -0.896320
   4         O                -0.802980         -0.560846
   5         O                -0.785257         -0.678951
   6         O                -0.695982         -0.594048
   7         O                -0.658908         -0.534156

 Normal termination of Gaussian 09 at Tue Dec 15 17:08:34 2015.
