 Gaussian 09, Revision D.01,
 Gaussian 09:  ES64L-G09RevD.01 24-Apr-2013

 ------------------------------------------------------------
 #P AM1(Input,print) CIS(Singlets,NStates=15) pop(full) force
 ------------------------------------------------------------

 -----------------
 AM1-Reparam Input
 -----------------
 Symbolic Z-matrix:
 Charge =  0 Multiplicity = 1

                         Standard orientation:
 ---------------------------------------------------------------------
 Center     Atomic      Atomic             Coordinates (Angstroms)
 Number     Number       Type             X           Y           Z
 ---------------------------------------------------------------------
      1          6           0        0.910887    0.802540   -0.001698
      2          6           0        0.997376   -0.549908    0.016192
      3          8           0       -0.229411   -1.131440    0.005287
      4          6           0       -1.140191   -0.141281   -0.031029
      5          6           0       -0.524155    1.083897    0.002240
      6          1           0       -0.998771    2.070282    0.039637
      7          1           0       -2.167242   -0.445418    0.063473
      8          1           0        1.798177   -1.214087   -0.038172
      9          1           0        1.739618    1.469259   -0.021473
 ---------------------------------------------------------------------

 SCF Done:  E(RAM1) =   2.10691008186     A.U. after   13 cycles

 Excitation energies and oscillator strengths:

 Excited State   1:      Singlet-A      5.4111 eV  229.13 nm  f=0.3577  <S**2>=0.000
      13 -> 14         0.69578
 This state for optimization and/or second-order correction.
 Total Energy, E(CIS) =   2.30576582158
 Copying the excited state density for this state as the 1-particle RhoCI density.

 Excited State   2:      Singlet-A      6.5563 eV  189.11 nm  f=0.0041  <S**2>=0.000
      13 -> 15         0.63992
      13 -> 16         0.20107
      13 -> 17        -0.15438

 Excited State   3:      Singlet-A      6.6342 eV  186.89 nm  f=0.0007  <S**2>=0.000
      13 -> 15        -0.19831
      13 -> 16         0.63718
      13 -> 19         0.15072

 Excited State   4:      Singlet-A      7.2121 eV  171.91 nm  f=0.0002  <S**2>=0.000
      12 -> 14         0.69953

 Excited State   5:      Singlet-A      8.1131 eV  152.82 nm  f=0.0009  <S**2>=0.000
      10 -> 14        -0.19493
      13 -> 16         0.11342
      13 -> 17         0.17063
      13 -> 18         0.50028
      13 -> 19        -0.18411
      13 -> 21        -0.33347

 Excited State   6:      Singlet-A      8.1553 eV  152.03 nm  f=0.0083  <S**2>=0.000
      10 -> 14         0.63604
      13 -> 17        -0.16183
      13 -> 18         0.18537
      13 -> 21        -0.10651

 Excited State   7:      Singlet-A      8.4591 eV  146.57 nm  f=0.0083  <S**2>=0.000
      10 -> 14         0.21740
      13 -> 15         0.11449
      13 -> 17         0.63400

 Excited State   8:      Singlet-A      8.9579 eV  138.41 nm  f=0.0940  <S**2>=0.000
      11 -> 14         0.67368
      13 -> 22         0.12889

 Excited State   9:      Singlet-A      9.0835 eV  136.49 nm  f=0.0005  <S**2>=0.000
      13 -> 18         0.28211
      13 -> 19         0.63019

 Excited State  10:      Singlet-A      9.5335 eV  130.05 nm  f=0.0068  <S**2>=0.000
      13 -> 18         0.32806
      13 -> 19        -0.14303
      13 -> 20        -0.26420
      13 -> 21         0.53629

 Excited State  11:      Singlet-A      9.8198 eV  126.26 nm  f=0.0535  <S**2>=0.000
       8 -> 15        -0.13517
       8 -> 16        -0.10750
      10 -> 15         0.10455
      10 -> 17        -0.19840
      12 -> 15        -0.31686
      12 -> 16         0.38655
      12 -> 18        -0.25400
      13 -> 20        -0.18994
      13 -> 21        -0.10437

 Excited State  12:      Singlet-A      9.8758 eV  125.54 nm  f=0.0953  <S**2>=0.000
      11 -> 15        -0.10017
      12 -> 15        -0.10285
      12 -> 16         0.13307
      13 -> 20         0.59195
      13 -> 21         0.26228

 Excited State  13:      Singlet-A     10.1967 eV  121.59 nm  f=0.0541  <S**2>=0.000
      10 -> 15         0.19429
      11 -> 14        -0.10532
      11 -> 15        -0.14929
      12 -> 15         0.53018
      12 -> 16         0.27199
      12 -> 17        -0.11206

 Excited State  14:      Singlet-A     10.2862 eV  120.53 nm  f=0.0028  <S**2>=0.000
       7 -> 15         0.10318
      11 -> 15         0.59027
      11 -> 16         0.23403
      12 -> 15         0.11246
      13 -> 15         0.12352

 Excited State  15:      Singlet-A     10.3576 eV  119.70 nm  f=0.2203  <S**2>=0.000
       9 -> 16        -0.10676
      10 -> 15        -0.25938
      10 -> 16        -0.32335
      10 -> 17         0.24572
      12 -> 16         0.38155
      12 -> 18         0.22814

 The electronic state is 1-A.
 Alpha  occ. eigenvalues --   -1.94349  -1.18157  -0.93654  -0.81399  -0.78359
 Alpha  occ. eigenvalues --   -0.69550  -0.66024  -0.55281  -0.54049  -0.45264
 Alpha  occ. eigenvalues --   -0.44788  -0.42130  -0.29092
 Alpha virt. eigenvalues --    0.11146   0.17820   0.18428   0.25952   0.27569
 Alpha virt. eigenvalues --    0.29440   0.30731   0.31800   0.32464   0.40656
 Alpha virt. eigenvalues --    0.44999

 Mulliken charges:
               1
     1  C   -0.132505
     2  C   -1.879244
     3  O    3.207668
     4  C   -1.886391
     5  C   -0.154242
     6  H    0.159548
     7  H    0.267320
     8  H    0.260517
     9  H    0.157330
 Sum of Mulliken charges =   0.00000

 Dipole moment (field-independent basis, Debye):
    X=             -2.0911    Y=            -10.4566    Z=              0.2542  Tot=             10.6666
 N-N= 1.040927923135D+02 E-N=-1.692003291303D+02  KE=-1.532951719400D+01
 Orbital energies and kinetic energies (alpha):
                                 1                 2
   1         O                -1.943486         -1.370064
   2         O                -1.181568         -1.040607
   3         O                -0.936540         -0.878283
   4         O                -0.813987         -0.577399
   5         O                -0.783594         -0.690049
   6         O                -0.695495         -0.582988
   7         O                -0.660242         -0.523995

 Normal termination of Gaussian 09 at Tue Dec 15 17:08:44 2015.
