 Gaussian 09, Revision D.01,
 Gaussian 09:  ES64L-G09RevD.01 24-Apr-2013

 ------------------------------------------------------------
 #P AM1(Input,print) CIS(Singlets,NStates=15) pop(full) force
 ------------------------------------------------------------

 -----------------
 AM1-Reparam Input
 -----------------
 Symbolic Z-matrix:
 Charge =  0 Multiplicity = 1

                         Standard orientation:
 ---------------------------------------------------------------------
 Center     Atomic      Atomic             Coordinates (Angstroms)
 Number     Number       Type             X           Y           Z
 ---------------------------------------------------------------------
      1          6           0        0.793690    0.909031   -0.010062
      2          6           0        1.055359   -0.510029    0.011774
      3          8           0       -0.149891   -1.129275   -0.013064
      4          6           0       -1.121935   -0.230682   -0.006400
      5          6           0       -0.571771    1.008855    0.009104
      6          1           0       -1.136870    2.020088    0.001615
      7          1           0       -2.183792   -0.585309    0.049894
      8          1           0        1.969325   -1.125736    0.039170
      9          1           0        1.618412    1.662100   -0.012663
 ---------------------------------------------------------------------

 SCF Done:  E(RAM1) =   1.35131695492     A.U. after   13 cycles

 Excitation energies and oscillator strengths:

 Excited State   1:      Singlet-A      6.4086 eV  193.47 nm  f=0.2994  <S**2>=0.000
      13 -> 14         0.69026
 This state for optimization and/or second-order correction.
 Total Energy, E(CIS) =   1.58682801554
 Copying the excited state density for this state as the 1-particle RhoCI density.

 Excited State   2:      Singlet-A      6.6175 eV  187.36 nm  f=0.0037  <S**2>=0.000
      12 -> 15         0.11967
      13 -> 15         0.63245
      13 -> 16         0.12161
      13 -> 17        -0.19952

 Excited State   3:      Singlet-A      7.0985 eV  174.66 nm  f=0.0006  <S**2>=0.000
      12 -> 15        -0.19079
      12 -> 16        -0.12744
      13 -> 15        -0.15037
      13 -> 16         0.59530
      13 -> 17        -0.18853
      13 -> 21        -0.10938

 Excited State   4:      Singlet-A      7.6918 eV  161.19 nm  f=0.0027  <S**2>=0.000
      11 -> 14         0.66833
      13 -> 17         0.14419

 Excited State   5:      Singlet-A      7.8416 eV  158.11 nm  f=0.0067  <S**2>=0.000
      10 -> 14        -0.13347
      11 -> 14        -0.12848
      12 -> 16        -0.19157
      13 -> 15         0.13653
      13 -> 16         0.16635
      13 -> 17         0.59912

 Excited State   6:      Singlet-A      8.2984 eV  149.41 nm  f=0.0014  <S**2>=0.000
      10 -> 14         0.66803
      11 -> 14        -0.12856
      13 -> 17         0.12596

 Excited State   7:      Singlet-A      8.4003 eV  147.60 nm  f=0.0049  <S**2>=0.000
      12 -> 15         0.21357
      13 -> 18         0.50514
      13 -> 22        -0.41027

 Excited State   8:      Singlet-A      8.4917 eV  146.01 nm  f=0.0734  <S**2>=0.000
      12 -> 14         0.66995
      13 -> 20         0.15099

 Excited State   9:      Singlet-A      8.8121 eV  140.70 nm  f=0.0007  <S**2>=0.000
      12 -> 15         0.41552
      12 -> 16         0.17104
      13 -> 16         0.12549
      13 -> 18        -0.37771
      13 -> 21        -0.16644
      13 -> 22        -0.24709

 Excited State  10:      Singlet-A      9.0429 eV  137.11 nm  f=0.0006  <S**2>=0.000
      12 -> 15        -0.14467
      13 -> 18        -0.26126
      13 -> 19         0.25093
      13 -> 20        -0.10880
      13 -> 21         0.50948
      13 -> 22        -0.23275

 Excited State  11:      Singlet-A      9.1511 eV  135.48 nm  f=0.0218  <S**2>=0.000
      12 -> 15         0.37695
      12 -> 16        -0.19487
      12 -> 17        -0.10659
      13 -> 15        -0.13624
      13 -> 16         0.14153
      13 -> 19         0.27645
      13 -> 20        -0.10382
      13 -> 21         0.11354
      13 -> 22         0.37136

 Excited State  12:      Singlet-A      9.3327 eV  132.85 nm  f=0.0420  <S**2>=0.000
      12 -> 16         0.36830
      13 -> 16         0.16479
      13 -> 19        -0.30236
      13 -> 20         0.16336
      13 -> 21         0.36586
      13 -> 22         0.19827

 Excited State  13:      Singlet-A      9.6333 eV  128.70 nm  f=0.1088  <S**2>=0.000
       8 -> 15         0.13066
      10 -> 15         0.24397
      10 -> 17        -0.23770
      10 -> 18        -0.14607
      11 -> 16        -0.21140
      11 -> 17         0.40723
      11 -> 18        -0.19403
      13 -> 20        -0.10977

 Excited State  14:      Singlet-A      9.6880 eV  127.98 nm  f=0.0241  <S**2>=0.000
      12 -> 15        -0.13363
      12 -> 16         0.41526
      13 -> 15         0.14908
      13 -> 16         0.13257
      13 -> 19         0.38706
      13 -> 20        -0.17421
      13 -> 21        -0.16667

 Excited State  15:      Singlet-A      9.8101 eV  126.38 nm  f=0.1393  <S**2>=0.000
       8 -> 15         0.10627
      11 -> 15         0.60128
      11 -> 18        -0.17072
      11 -> 19        -0.11632
      12 -> 14        -0.10702
      13 -> 20         0.14150

 The electronic state is 1-A.
 Alpha  occ. eigenvalues --   -1.90057  -1.18706  -0.94627  -0.78384  -0.77201
 Alpha  occ. eigenvalues --   -0.66618  -0.62545  -0.50929  -0.48116  -0.40458
 Alpha  occ. eigenvalues --   -0.38807  -0.36741  -0.27212
 Alpha virt. eigenvalues --    0.17322   0.20223   0.22601   0.26317   0.28840
 Alpha virt. eigenvalues --    0.31628   0.31827   0.32731   0.35232   0.41406
 Alpha virt. eigenvalues --    0.47772

 Mulliken charges:
               1
     1  C   -0.050160
     2  C   -1.619247
     3  O    2.817487
     4  C   -1.595839
     5  C   -0.036478
     6  H    0.062628
     7  H    0.180056
     8  H    0.170531
     9  H    0.071022
 Sum of Mulliken charges =   0.00000

 Dipole moment (field-independent basis, Debye):
    X=             -1.5846    Y=             -8.7033    Z=             -0.0713  Tot=              8.8466
 N-N= 1.034336785166D+02 E-N=-1.697164691327D+02  KE=-1.584026239142D+01
 Orbital energies and kinetic energies (alpha):
                                 1                 2
   1         O                -1.900567         -1.401221
   2         O                -1.187059         -1.065224
   3         O                -0.946268         -0.849459
   4         O                -0.783842         -0.631514
   5         O                -0.772012         -0.695955
   6         O                -0.666175         -0.628639
   7         O                -0.625445         -0.545499

 Normal termination of Gaussian 09 at Tue Dec 15 17:07:53 2015.
