 Gaussian 09, Revision D.01,
 Gaussian 09:  ES64L-G09RevD.01 24-Apr-2013

 ------------------------------------------------------------
 #P AM1(Input,print) CIS(Singlets,NStates=15) pop(full) force
 ------------------------------------------------------------

 -----------------
 AM1-Reparam Input
 -----------------
 Symbolic Z-matrix:
 Charge =  0 Multiplicity = 1

                         Standard orientation:
 ---------------------------------------------------------------------
 Center     Atomic      Atomic             Coordinates (Angstroms)
 Number     Number       Type             X           Y           Z
 ---------------------------------------------------------------------
      1          6           0        0.863239    0.784245   -0.020767
      2          6           0        1.033205   -0.481976    0.015390
      3          8           0       -0.225510   -1.153029    0.003608
      4          6           0       -1.105698   -0.133167   -0.010492
      5          6           0       -0.522442    1.046167   -0.000348
      6          1           0       -1.117619    1.976527    0.081247
      7          1           0       -2.183631   -0.462451   -0.015577
      8          1           0        1.851522   -1.191054    0.001046
      9          1           0        1.643985    1.609587    0.001716
 ---------------------------------------------------------------------

 SCF Done:  E(RAM1) =   2.11744646541     A.U. after   14 cycles

 Excitation energies and oscillator strengths:

 Excited State   1:      Singlet-A      5.2918 eV  234.30 nm  f=0.3265  <S**2>=0.000
      13 -> 14         0.69400
 This state for optimization and/or second-order correction.
 Total Energy, E(CIS) =   2.31191637465
 Copying the excited state density for this state as the 1-particle RhoCI density.

 Excited State   2:      Singlet-A      6.1830 eV  200.52 nm  f=0.0023  <S**2>=0.000
      13 -> 15         0.65849
      13 -> 17         0.19706

 Excited State   3:      Singlet-A      6.7465 eV  183.78 nm  f=0.0040  <S**2>=0.000
      12 -> 14        -0.39417
      13 -> 16         0.53557
      13 -> 18        -0.17332

 Excited State   4:      Singlet-A      6.7880 eV  182.65 nm  f=0.0001  <S**2>=0.000
      12 -> 14         0.57861
      13 -> 16         0.37580

 Excited State   5:      Singlet-A      7.6656 eV  161.74 nm  f=0.0112  <S**2>=0.000
      11 -> 14         0.61830
      13 -> 17         0.22576
      13 -> 18         0.14425
      13 -> 21        -0.14707

 Excited State   6:      Singlet-A      7.8017 eV  158.92 nm  f=0.0008  <S**2>=0.000
      11 -> 14        -0.32045
      13 -> 15        -0.14119
      13 -> 17         0.35221
      13 -> 18         0.36750
      13 -> 21        -0.30094

 Excited State   7:      Singlet-A      8.0897 eV  153.26 nm  f=0.0178  <S**2>=0.000
      13 -> 15        -0.11212
      13 -> 16        -0.13732
      13 -> 17         0.51132
      13 -> 18        -0.31115
      13 -> 19         0.18797
      13 -> 21         0.23867

 Excited State   8:      Singlet-A      8.7201 eV  142.18 nm  f=0.0013  <S**2>=0.000
      13 -> 16         0.13498
      13 -> 18         0.26482
      13 -> 19         0.61289
      13 -> 21         0.10616

 Excited State   9:      Singlet-A      8.9663 eV  138.28 nm  f=0.0418  <S**2>=0.000
      10 -> 14         0.62618
      12 -> 16        -0.15009
      12 -> 17         0.10648
      12 -> 18         0.10220
      13 -> 22        -0.11317

 Excited State  10:      Singlet-A      9.2810 eV  133.59 nm  f=0.0404  <S**2>=0.000
       9 -> 15         0.15399
      10 -> 14        -0.15850
      11 -> 16        -0.10396
      11 -> 17        -0.15070
      11 -> 18         0.11551
      12 -> 15         0.44354
      12 -> 16        -0.16780
      12 -> 17         0.14962
      12 -> 18         0.22555
      12 -> 21        -0.10333
      13 -> 18         0.12667
      13 -> 21         0.17727

 Excited State  11:      Singlet-A      9.3319 eV  132.86 nm  f=0.0042  <S**2>=0.000
      12 -> 15        -0.16410
      13 -> 18         0.32227
      13 -> 19        -0.21589
      13 -> 20         0.14191
      13 -> 21         0.51415

 Excited State  12:      Singlet-A      9.6269 eV  128.79 nm  f=0.0810  <S**2>=0.000
      13 -> 19         0.10175
      13 -> 20         0.67277
      13 -> 21        -0.10121

 Excited State  13:      Singlet-A      9.6815 eV  128.06 nm  f=0.1456  <S**2>=0.000
      10 -> 14         0.13458
      11 -> 15         0.50055
      11 -> 17         0.25688
      12 -> 15         0.26615
      12 -> 18        -0.13321
      12 -> 19         0.12486

 Excited State  14:      Singlet-A      9.9113 eV  125.09 nm  f=0.1682  <S**2>=0.000
      10 -> 14         0.10749
      11 -> 16        -0.15659
      11 -> 18         0.11994
      12 -> 15         0.12014
      12 -> 16         0.59903
      12 -> 17         0.12233

 Excited State  15:      Singlet-A     10.1316 eV  122.37 nm  f=0.1075  <S**2>=0.000
       9 -> 15         0.23192
      10 -> 14         0.15083
      11 -> 15        -0.23499
      11 -> 16         0.15792
      11 -> 19        -0.23729
      12 -> 15         0.23000
      12 -> 17        -0.23471
      12 -> 18        -0.17838
      12 -> 19         0.29445

 The electronic state is 1-A.
 Alpha  occ. eigenvalues --   -1.93822  -1.21645  -0.95601  -0.81338  -0.78573
 Alpha  occ. eigenvalues --   -0.68046  -0.65135  -0.53526  -0.52357  -0.43651
 Alpha  occ. eigenvalues --   -0.41479  -0.38931  -0.27149
 Alpha virt. eigenvalues --    0.13233   0.18135   0.20778   0.26531   0.29183
 Alpha virt. eigenvalues --    0.29877   0.32035   0.32488   0.34193   0.43792
 Alpha virt. eigenvalues --    0.46979

 Mulliken charges:
               1
     1  C   -0.169417
     2  C   -1.939291
     3  O    3.168720
     4  C   -1.985007
     5  C   -0.292161
     6  H    0.257394
     7  H    0.368107
     8  H    0.341962
     9  H    0.249692
 Sum of Mulliken charges =   0.00000

 Dipole moment (field-independent basis, Debye):
    X=             -2.5290    Y=            -11.0507    Z=              0.0811  Tot=             11.3367
 N-N= 1.046417456239D+02 E-N=-1.703257481091D+02  KE=-1.549780133598D+01
 Orbital energies and kinetic energies (alpha):
                                 1                 2
   1         O                -1.938222         -1.378333
   2         O                -1.216447         -1.085892
   3         O                -0.956008         -0.890132
   4         O                -0.813376         -0.583078
   5         O                -0.785734         -0.672576
   6         O                -0.680457         -0.561804
   7         O                -0.651348         -0.532892

 Normal termination of Gaussian 09 at Tue Dec 15 17:07:23 2015.
