 Gaussian 09, Revision D.01,
 Gaussian 09:  ES64L-G09RevD.01 24-Apr-2013

 ------------------------------------------------------------
 #P AM1(Input,print) CIS(Singlets,NStates=15) pop(full) force
 ------------------------------------------------------------

 -----------------
 AM1-Reparam Input
 -----------------
 Symbolic Z-matrix:
 Charge =  0 Multiplicity = 1

                         Standard orientation:
 ---------------------------------------------------------------------
 Center     Atomic      Atomic             Coordinates (Angstroms)
 Number     Number       Type             X           Y           Z
 ---------------------------------------------------------------------
      1          6           0       -0.244090    1.138976    0.015891
      2          6           0       -1.154905    0.138667   -0.008544
      3          8           0       -0.490985   -1.047759    0.008506
      4          6           0        0.834666   -0.734532   -0.013608
      5          6           0        1.090518    0.567164   -0.001785
      6          1           0        1.981054    1.088215   -0.020108
      7          1           0        1.450457   -1.651998    0.033422
      8          1           0       -2.169599    0.093377   -0.031228
      9          1           0       -0.491172    2.190821   -0.001858
 ---------------------------------------------------------------------

 SCF Done:  E(RAM1) =   1.83009015324     A.U. after   14 cycles

 Excitation energies and oscillator strengths:

 Excited State   1:      Singlet-A      5.3586 eV  231.37 nm  f=0.3575  <S**2>=0.000
      13 -> 14         0.69351
 This state for optimization and/or second-order correction.
 Total Energy, E(CIS) =   2.02701612935
 Copying the excited state density for this state as the 1-particle RhoCI density.

 Excited State   2:      Singlet-A      6.4240 eV  193.00 nm  f=0.0018  <S**2>=0.000
      13 -> 15         0.67580
      13 -> 17        -0.14714

 Excited State   3:      Singlet-A      6.8042 eV  182.22 nm  f=0.0045  <S**2>=0.000
      13 -> 16         0.67452
      13 -> 18         0.15703

 Excited State   4:      Singlet-A      7.3266 eV  169.22 nm  f=0.0002  <S**2>=0.000
      12 -> 14         0.70029

 Excited State   5:      Singlet-A      7.9844 eV  155.28 nm  f=0.0019  <S**2>=0.000
      13 -> 15         0.11230
      13 -> 17         0.53555
      13 -> 18         0.37656
      13 -> 21        -0.19859

 Excited State   6:      Singlet-A      8.4590 eV  146.57 nm  f=0.0068  <S**2>=0.000
      10 -> 14         0.66096
      11 -> 14        -0.21367

 Excited State   7:      Singlet-A      8.9711 eV  138.20 nm  f=0.0108  <S**2>=0.000
      11 -> 16         0.10676
      13 -> 17        -0.39969
      13 -> 18         0.50866
      13 -> 19         0.15153

 Excited State   8:      Singlet-A      9.1333 eV  135.75 nm  f=0.0981  <S**2>=0.000
      10 -> 14         0.21133
      11 -> 14         0.63165
      12 -> 15         0.12538

 Excited State   9:      Singlet-A      9.4533 eV  131.15 nm  f=0.0008  <S**2>=0.000
      11 -> 16        -0.10105
      13 -> 18        -0.11132
      13 -> 19         0.66724

 Excited State  10:      Singlet-A      9.6451 eV  128.55 nm  f=0.0211  <S**2>=0.000
       8 -> 16        -0.10149
       9 -> 15         0.11825
      10 -> 16        -0.15959
      10 -> 18        -0.16037
      12 -> 15         0.46546
      12 -> 16        -0.15248
      12 -> 17        -0.29563
      12 -> 18        -0.17979

 Excited State  11:      Singlet-A     10.1725 eV  121.88 nm  f=0.2335  <S**2>=0.000
       9 -> 16        -0.10337
      10 -> 16        -0.24156
      12 -> 15        -0.14327
      12 -> 16         0.51351
      12 -> 17        -0.24055
      12 -> 19        -0.15379

 Excited State  12:      Singlet-A     10.2805 eV  120.60 nm  f=0.0676  <S**2>=0.000
       8 -> 15        -0.10289
      10 -> 15         0.24437
      10 -> 17        -0.10123
      11 -> 14        -0.10979
      11 -> 15        -0.18080
      12 -> 15         0.35729
      12 -> 16         0.35905
      12 -> 17         0.17189
      12 -> 18         0.22395

 Excited State  13:      Singlet-A     10.3524 eV  119.76 nm  f=0.0126  <S**2>=0.000
      11 -> 15        -0.15707
      13 -> 17         0.11457
      13 -> 18         0.17827
      13 -> 20        -0.35508
      13 -> 21         0.53734

 Excited State  14:      Singlet-A     10.5125 eV  117.94 nm  f=0.0175  <S**2>=0.000
       7 -> 15        -0.10932
      10 -> 15         0.18768
      11 -> 15         0.54963
      13 -> 15        -0.10240
      13 -> 20         0.14547
      13 -> 21         0.28634

 Excited State  15:      Singlet-A     10.5224 eV  117.83 nm  f=0.0725  <S**2>=0.000
      11 -> 15        -0.17819
      11 -> 16        -0.23139
      13 -> 20         0.54970
      13 -> 21         0.26718

 The electronic state is 1-A.
 Alpha  occ. eigenvalues --   -2.00191  -1.27616  -1.01459  -0.90500  -0.85356
 Alpha  occ. eigenvalues --   -0.77200  -0.74889  -0.63503  -0.61925  -0.52930
 Alpha  occ. eigenvalues --   -0.52488  -0.49142  -0.36168
 Alpha virt. eigenvalues --    0.04358   0.10231   0.12526   0.19770   0.21071
 Alpha virt. eigenvalues --    0.23135   0.26039   0.27452   0.28832   0.37124
 Alpha virt. eigenvalues --    0.41918

 Mulliken charges:
               1
     1  C   -0.160005
     2  C   -1.870597
     3  O    3.163467
     4  C   -1.872189
     5  C   -0.098419
     6  H    0.140229
     7  H    0.276370
     8  H    0.266597
     9  H    0.154548
 Sum of Mulliken charges =   0.00000

 Dipole moment (field-independent basis, Debye):
    X=             -4.2240    Y=            -10.1016    Z=              0.2740  Tot=             10.9526
 N-N= 1.059176324843D+02 E-N=-1.710087001639D+02  KE=-1.569902523442D+01
 Orbital energies and kinetic energies (alpha):
                                 1                 2
   1         O                -2.001911         -1.381078
   2         O                -1.276164         -1.054758
   3         O                -1.014593         -0.886446
   4         O                -0.905000         -0.601033
   5         O                -0.853556         -0.701790
   6         O                -0.772002         -0.606357
   7         O                -0.748889         -0.545780

 Normal termination of Gaussian 09 at Tue Dec 15 17:09:02 2015.
