 Gaussian 09, Revision D.01,
 Gaussian 09:  ES64L-G09RevD.01 24-Apr-2013

 ------------------------------------------------------------
 #P AM1(Input,print) CIS(Singlets,NStates=15) pop(full) force
 ------------------------------------------------------------

 -----------------
 AM1-Reparam Input
 -----------------
 Symbolic Z-matrix:
 Charge =  0 Multiplicity = 1

                         Standard orientation:
 ---------------------------------------------------------------------
 Center     Atomic      Atomic             Coordinates (Angstroms)
 Number     Number       Type             X           Y           Z
 ---------------------------------------------------------------------
      1          6           0       -1.019760    0.708164   -0.025687
      2          6           0       -0.988633   -0.636175    0.046698
      3          8           0        0.370198   -1.136602   -0.036632
      4          6           0        1.185691    0.017817    0.028300
      5          6           0        0.420975    1.089536   -0.014464
      6          1           0        0.751393    2.181483    0.045415
      7          1           0        2.241335   -0.147917    0.023371
      8          1           0       -1.664749   -1.364004    0.025908
      9          1           0       -1.879206    1.347208   -0.010723
 ---------------------------------------------------------------------

 SCF Done:  E(RAM1) =  0.251871567421E-01 A.U. after   13 cycles

 Excitation energies and oscillator strengths:

 Excited State   1:      Singlet-A      4.5786 eV  270.79 nm  f=0.0728  <S**2>=0.000
      12 -> 15        -0.20292
      13 -> 14         0.66795
 This state for optimization and/or second-order correction.
 Total Energy, E(CIS) =  0.193448676147
 Copying the excited state density for this state as the 1-particle RhoCI density.

 Excited State   2:      Singlet-A      5.2384 eV  236.68 nm  f=0.0003  <S**2>=0.000
      12 -> 14         0.43928
      13 -> 15         0.44862
      13 -> 16        -0.29451

 Excited State   3:      Singlet-A      5.3178 eV  233.15 nm  f=0.0008  <S**2>=0.000
      12 -> 14         0.24690
      13 -> 15         0.18630
      13 -> 16         0.61124

 Excited State   4:      Singlet-A      5.6282 eV  220.29 nm  f=0.0015  <S**2>=0.000
       7 -> 16         0.20083
      12 -> 16         0.63481
      12 -> 22        -0.11694
      13 -> 16        -0.10450

 Excited State   5:      Singlet-A      6.1462 eV  201.72 nm  f=0.0061  <S**2>=0.000
      12 -> 20         0.22052
      12 -> 22         0.11473
      13 -> 17         0.13742
      13 -> 18         0.47214
      13 -> 20        -0.24260
      13 -> 23         0.17392
      13 -> 24         0.18399

 Excited State   6:      Singlet-A      6.2088 eV  199.69 nm  f=0.3717  <S**2>=0.000
      11 -> 16        -0.14205
      12 -> 14        -0.43486
      13 -> 15         0.48588

 Excited State   7:      Singlet-A      6.2416 eV  198.64 nm  f=0.0040  <S**2>=0.000
      12 -> 18         0.25955
      12 -> 19         0.11751
      12 -> 23         0.11508
      12 -> 24         0.12759
      13 -> 17        -0.25790
      13 -> 18         0.18078
      13 -> 19         0.25815
      13 -> 20         0.26596
      13 -> 22         0.29171
      13 -> 23         0.10705
      13 -> 24         0.10749

 Excited State   8:      Singlet-A      6.3391 eV  195.59 nm  f=0.0766  <S**2>=0.000
      12 -> 15         0.64423
      13 -> 14         0.18717

 Excited State   9:      Singlet-A      6.4368 eV  192.62 nm  f=0.0059  <S**2>=0.000
      11 -> 14         0.15450
      12 -> 17         0.13252
      12 -> 18         0.15586
      13 -> 17         0.57850
      13 -> 19         0.18263
      13 -> 20         0.11751

 Excited State  10:      Singlet-A      6.8473 eV  181.07 nm  f=0.0046  <S**2>=0.000
      12 -> 17         0.55298
      12 -> 18         0.16143
      12 -> 19         0.16730
      12 -> 24        -0.11693
      13 -> 19        -0.23507

 Excited State  11:      Singlet-A      7.0903 eV  174.87 nm  f=0.0011  <S**2>=0.000
       9 -> 15         0.10040
      10 -> 14         0.19956
      10 -> 15        -0.13225
      11 -> 14         0.61157
      11 -> 15        -0.12069
      13 -> 17        -0.11613

 Excited State  12:      Singlet-A      7.2616 eV  170.74 nm  f=0.0025  <S**2>=0.000
       8 -> 14         0.10317
       9 -> 14         0.17709
       9 -> 15         0.14477
      10 -> 14         0.41774
      10 -> 15         0.11374
      11 -> 14        -0.18272
      11 -> 15        -0.36323
      12 -> 18         0.11860
      12 -> 19        -0.12020
      13 -> 24        -0.10892

 Excited State  13:      Singlet-A      7.3905 eV  167.76 nm  f=0.0006  <S**2>=0.000
       9 -> 14        -0.12787
       9 -> 15        -0.10650
      10 -> 14        -0.19452
      12 -> 17        -0.22430
      12 -> 18         0.41093
      12 -> 21        -0.11485
      12 -> 23         0.19612
      12 -> 24        -0.15219
      13 -> 19        -0.25021
      13 -> 21         0.11899
      13 -> 22        -0.15640

 Excited State  14:      Singlet-A      7.5366 eV  164.51 nm  f=0.0019  <S**2>=0.000
       7 -> 16         0.12465
      11 -> 15         0.12467
      12 -> 19        -0.32049
      12 -> 22        -0.21646
      13 -> 18         0.36139
      13 -> 20         0.15454
      13 -> 21        -0.11319
      13 -> 22        -0.13179
      13 -> 24        -0.27828

 Excited State  15:      Singlet-A      7.6667 eV  161.72 nm  f=0.0026  <S**2>=0.000
       8 -> 14        -0.12041
       9 -> 15         0.15338
      10 -> 14         0.30970
      10 -> 15        -0.18501
      11 -> 15         0.38055
      12 -> 18         0.11023
      12 -> 23         0.10002
      12 -> 24        -0.13744
      13 -> 19         0.15912
      13 -> 20        -0.14875
      13 -> 22        -0.16505

 The electronic state is 1-A.
 Alpha  occ. eigenvalues --   -1.51088  -1.21640  -1.10955  -0.82195  -0.79866
 Alpha  occ. eigenvalues --   -0.67435  -0.57338  -0.55857  -0.52007  -0.50766
 Alpha  occ. eigenvalues --   -0.48298  -0.39428  -0.35669
 Alpha virt. eigenvalues --    0.02786   0.06264   0.09627   0.13419   0.13916
 Alpha virt. eigenvalues --    0.15777   0.17376   0.17753   0.19517   0.20545
 Alpha virt. eigenvalues --    0.21273

 Mulliken charges:
               1
     1  C   -0.183059
     2  C   -0.066304
     3  O   -0.151448
     4  C   -0.062144
     5  C   -0.215705
     6  H    0.156778
     7  H    0.185682
     8  H    0.169510
     9  H    0.166690
 Sum of Mulliken charges =   0.00000

 Dipole moment (field-independent basis, Debye):
    X=             -0.1965    Y=              0.8622    Z=              0.0939  Tot=              0.8892
 N-N= 1.025528660941D+02 E-N=-1.695642784084D+02  KE=-1.644024848738D+01
 Orbital energies and kinetic energies (alpha):
                                 1                 2
   1         O                -1.510885         -1.283421
   2         O                -1.216396         -1.028802
   3         O                -1.109550         -0.970950
   4         O                -0.821948         -0.734802
   5         O                -0.798664         -0.697256
   6         O                -0.674351         -0.597833
   7         O                -0.573376         -0.471943

 Normal termination of Gaussian 09 at Tue Dec 15 16:22:16 2015.
