 Gaussian 09, Revision D.01,
 Gaussian 09:  ES64L-G09RevD.01 24-Apr-2013

 ------------------------------------------------------------
 #P AM1(Input,print) CIS(Singlets,NStates=15) pop(full) force
 ------------------------------------------------------------

 -----------------
 AM1-Reparam Input
 -----------------
 Symbolic Z-matrix:
 Charge =  0 Multiplicity = 1

                         Standard orientation:
 ---------------------------------------------------------------------
 Center     Atomic      Atomic             Coordinates (Angstroms)
 Number     Number       Type             X           Y           Z
 ---------------------------------------------------------------------
      1          6           0        0.225668    1.175268    0.009621
      2          6           0        1.134246    0.127333   -0.014697
      3          8           0        0.512387   -1.068016    0.009717
      4          6           0       -0.839463   -0.714196   -0.009019
      5          6           0       -1.062685    0.545460   -0.011297
      6          1           0       -1.968830    1.034051    0.041291
      7          1           0       -1.511663   -1.649770    0.015622
      8          1           0        2.190800    0.169636    0.015316
      9          1           0        0.443995    2.187015    0.002382
 ---------------------------------------------------------------------

 SCF Done:  E(RAM1) =   1.89197067123     A.U. after   14 cycles

 Excitation energies and oscillator strengths:

 Excited State   1:      Singlet-A      5.5894 eV  221.82 nm  f=0.3256  <S**2>=0.000
      11 -> 17         0.10058
      13 -> 14         0.69151
 This state for optimization and/or second-order correction.
 Total Energy, E(CIS) =   2.09737750746
 Copying the excited state density for this state as the 1-particle RhoCI density.

 Excited State   2:      Singlet-A      5.9708 eV  207.65 nm  f=0.0009  <S**2>=0.000
      10 -> 15         0.11804
      13 -> 15         0.68286

 Excited State   3:      Singlet-A      6.4254 eV  192.96 nm  f=0.0024  <S**2>=0.000
      10 -> 16        -0.10543
      13 -> 16         0.66413
      13 -> 17        -0.17794

 Excited State   4:      Singlet-A      6.6650 eV  186.02 nm  f=0.0004  <S**2>=0.000
      12 -> 14         0.70216

 Excited State   5:      Singlet-A      7.8275 eV  158.39 nm  f=0.0073  <S**2>=0.000
      11 -> 14         0.67951
      13 -> 17        -0.14274

 Excited State   6:      Singlet-A      8.0526 eV  153.97 nm  f=0.0017  <S**2>=0.000
      13 -> 18         0.63796
      13 -> 22        -0.24114

 Excited State   7:      Singlet-A      8.2031 eV  151.14 nm  f=0.0109  <S**2>=0.000
      10 -> 16        -0.11411
      11 -> 14         0.14920
      13 -> 16         0.15146
      13 -> 17         0.65534

 Excited State   8:      Singlet-A      8.4736 eV  146.32 nm  f=0.1106  <S**2>=0.000
       8 -> 15        -0.17577
      10 -> 14        -0.23485
      11 -> 17         0.12942
      12 -> 15         0.55599
      12 -> 16        -0.12285
      12 -> 18        -0.16388

 Excited State   9:      Singlet-A      8.9238 eV  138.94 nm  f=0.0000  <S**2>=0.000
      13 -> 19         0.68440

 Excited State  10:      Singlet-A      9.0744 eV  136.63 nm  f=0.0626  <S**2>=0.000
       8 -> 16        -0.10596
      10 -> 14         0.53407
      12 -> 16        -0.32468
      12 -> 18        -0.16618
      13 -> 21         0.12346

 Excited State  11:      Singlet-A      9.2310 eV  134.31 nm  f=0.0583  <S**2>=0.000
       9 -> 15        -0.13869
      10 -> 14         0.23019
      11 -> 15         0.31344
      11 -> 17        -0.17931
      12 -> 15         0.34692
      12 -> 16         0.25635
      12 -> 17        -0.14881
      12 -> 18         0.20571

 Excited State  12:      Singlet-A      9.5833 eV  129.37 nm  f=0.0863  <S**2>=0.000
       9 -> 16         0.15519
      11 -> 16         0.39490
      11 -> 17        -0.21524
      12 -> 16        -0.39091
      12 -> 17         0.17111
      12 -> 18         0.19801

 Excited State  13:      Singlet-A      9.6814 eV  128.06 nm  f=0.0357  <S**2>=0.000
       8 -> 15         0.12388
      10 -> 14        -0.13135
      10 -> 15        -0.29031
      11 -> 15         0.30493
      12 -> 16        -0.12592
      12 -> 18        -0.12449
      13 -> 18         0.18254
      13 -> 20        -0.30440
      13 -> 22         0.28703

 Excited State  14:      Singlet-A      9.7115 eV  127.67 nm  f=0.0404  <S**2>=0.000
       8 -> 15         0.17437
       9 -> 15        -0.12132
      10 -> 14        -0.18251
      10 -> 15         0.13283
      11 -> 15         0.36857
      11 -> 19         0.10808
      12 -> 16        -0.17564
      12 -> 18        -0.13353
      13 -> 18        -0.14100
      13 -> 20         0.29075
      13 -> 22        -0.25632

 Excited State  15:      Singlet-A      9.8895 eV  125.37 nm  f=0.0116  <S**2>=0.000
      10 -> 15         0.55013
      10 -> 16         0.15108
      13 -> 15        -0.12009
      13 -> 20        -0.31821
      13 -> 22         0.14349

 The electronic state is 1-A.
 Alpha  occ. eigenvalues --   -1.93678  -1.22857  -0.97572  -0.80831  -0.80411
 Alpha  occ. eigenvalues --   -0.68753  -0.66916  -0.50419  -0.48708  -0.41688
 Alpha  occ. eigenvalues --   -0.40585  -0.36718  -0.26348
 Alpha virt. eigenvalues --    0.15055   0.17804   0.20190   0.28258   0.29898
 Alpha virt. eigenvalues --    0.31789   0.34179   0.35577   0.36809   0.45100
 Alpha virt. eigenvalues --    0.48554

 Mulliken charges:
               1
     1  C   -0.163904
     2  C   -1.932181
     3  O    3.109406
     4  C   -1.851879
     5  C   -0.041889
     6  H    0.140078
     7  H    0.275722
     8  H    0.312188
     9  H    0.152458
 Sum of Mulliken charges =   0.00000

 Dipole moment (field-independent basis, Debye):
    X=              4.3886    Y=            -10.1959    Z=              0.3997  Tot=             11.1075
 N-N= 1.043715184551D+02 E-N=-1.701594187109D+02  KE=-1.569000985760D+01
 Orbital energies and kinetic energies (alpha):
                                 1                 2
   1         O                -1.936782         -1.405132
   2         O                -1.228572         -1.106773
   3         O                -0.975719         -0.920087
   4         O                -0.808308         -0.617655
   5         O                -0.804107         -0.685280
   6         O                -0.687532         -0.579695
   7         O                -0.669155         -0.581864

 Normal termination of Gaussian 09 at Tue Dec 15 17:09:54 2015.
