 Gaussian 09, Revision D.01,
 Gaussian 09:  ES64L-G09RevD.01 24-Apr-2013

 ------------------------------------------------------------
 #P AM1(Input,print) CIS(Singlets,NStates=15) pop(full) force
 ------------------------------------------------------------

 -----------------
 AM1-Reparam Input
 -----------------
 Symbolic Z-matrix:
 Charge =  0 Multiplicity = 1

                         Standard orientation:
 ---------------------------------------------------------------------
 Center     Atomic      Atomic             Coordinates (Angstroms)
 Number     Number       Type             X           Y           Z
 ---------------------------------------------------------------------
      1          6           0        0.559627    1.015389   -0.006607
      2          6           0        1.137285   -0.187972   -0.011430
      3          8           0        0.185658   -1.112927   -0.013445
      4          6           0       -1.030920   -0.500435    0.009945
      5          6           0       -0.857226    0.843068    0.026187
      6          1           0       -1.665486    1.532788   -0.070999
      7          1           0       -1.887181   -1.162659   -0.006423
      8          1           0        2.129413   -0.494770    0.098703
      9          1           0        1.085399    2.007760   -0.022291
 ---------------------------------------------------------------------

 SCF Done:  E(RAM1) =   2.53712101824     A.U. after   13 cycles

 Excitation energies and oscillator strengths:

 Excited State   1:      Singlet-A      5.3286 eV  232.68 nm  f=0.3390  <S**2>=0.000
      13 -> 14         0.69431
 This state for optimization and/or second-order correction.
 Total Energy, E(CIS) =   2.73294494226
 Copying the excited state density for this state as the 1-particle RhoCI density.

 Excited State   2:      Singlet-A      6.4806 eV  191.32 nm  f=0.0065  <S**2>=0.000
      13 -> 15         0.64762
      13 -> 16         0.12648
      13 -> 17        -0.20926

 Excited State   3:      Singlet-A      6.5858 eV  188.26 nm  f=0.0002  <S**2>=0.000
      10 -> 15        -0.10194
      13 -> 15        -0.13464
      13 -> 16         0.64689
      13 -> 19         0.18465

 Excited State   4:      Singlet-A      6.8392 eV  181.28 nm  f=0.0006  <S**2>=0.000
       9 -> 14         0.12405
      12 -> 14         0.69301

 Excited State   5:      Singlet-A      7.7859 eV  159.24 nm  f=0.0061  <S**2>=0.000
      10 -> 14        -0.23740
      11 -> 14         0.56524
      13 -> 17         0.23834
      13 -> 18        -0.17678
      13 -> 21        -0.12910

 Excited State   6:      Singlet-A      7.8606 eV  157.73 nm  f=0.0004  <S**2>=0.000
      10 -> 14        -0.12281
      11 -> 14         0.30010
      13 -> 16        -0.10330
      13 -> 17        -0.29315
      13 -> 18         0.44772
      13 -> 20        -0.13651
      13 -> 21         0.25682

 Excited State   7:      Singlet-A      8.2968 eV  149.44 nm  f=0.0072  <S**2>=0.000
      10 -> 16        -0.10278
      13 -> 15         0.16616
      13 -> 17         0.54323
      13 -> 18         0.33835
      13 -> 21         0.14016

 Excited State   8:      Singlet-A      8.8545 eV  140.02 nm  f=0.0807  <S**2>=0.000
      10 -> 14         0.58977
      11 -> 14         0.24325
      13 -> 19        -0.23060

 Excited State   9:      Singlet-A      8.8613 eV  139.92 nm  f=0.0145  <S**2>=0.000
      10 -> 14         0.22348
      13 -> 16        -0.12402
      13 -> 18        -0.15669
      13 -> 19         0.60482

 Excited State  10:      Singlet-A      9.4002 eV  131.89 nm  f=0.0101  <S**2>=0.000
       8 -> 15         0.12970
       9 -> 16         0.10880
       9 -> 19         0.10132
      10 -> 17        -0.10432
      11 -> 15        -0.15924
      11 -> 17         0.19595
      12 -> 16         0.40082
      12 -> 17        -0.15790
      12 -> 18         0.26704
      13 -> 18        -0.13448
      13 -> 21         0.19613

 Excited State  11:      Singlet-A      9.4458 eV  131.26 nm  f=0.0112  <S**2>=0.000
       9 -> 14        -0.10042
      12 -> 16        -0.19821
      12 -> 18        -0.10331
      13 -> 18        -0.29429
      13 -> 19        -0.13658
      13 -> 20        -0.30278
      13 -> 21         0.44935

 Excited State  12:      Singlet-A      9.5715 eV  129.54 nm  f=0.1099  <S**2>=0.000
       9 -> 15        -0.10913
       9 -> 16         0.10067
      11 -> 15        -0.21819
      11 -> 17         0.10330
      12 -> 15         0.50944
      12 -> 16        -0.24861
      12 -> 17        -0.17867

 Excited State  13:      Singlet-A      9.7945 eV  126.59 nm  f=0.1312  <S**2>=0.000
      11 -> 15         0.26781
      11 -> 16         0.32512
      11 -> 17        -0.12084
      12 -> 15         0.31203
      12 -> 16         0.35682
      12 -> 18        -0.14404

 Excited State  14:      Singlet-A      9.8692 eV  125.63 nm  f=0.0520  <S**2>=0.000
       9 -> 14         0.47466
      13 -> 20        -0.45076
      13 -> 21        -0.19178

 Excited State  15:      Singlet-A      9.9130 eV  125.07 nm  f=0.0481  <S**2>=0.000
       9 -> 14         0.47733
      13 -> 20         0.37548
      13 -> 21         0.30246

 The electronic state is 1-A.
 Alpha  occ. eigenvalues --   -1.75757  -1.16099  -0.96982  -0.81691  -0.76533
 Alpha  occ. eigenvalues --   -0.67302  -0.65704  -0.56179  -0.50113  -0.44812
 Alpha  occ. eigenvalues --   -0.43997  -0.40909  -0.29348
 Alpha virt. eigenvalues --    0.10921   0.17794   0.17945   0.24655   0.26858
 Alpha virt. eigenvalues --    0.28409   0.30622   0.31532   0.40484   0.49327
 Alpha virt. eigenvalues --    0.54574

 Mulliken charges:
               1
     1  C   -0.097868
     2  C   -1.933378
     3  O    3.232689
     4  C   -1.930418
     5  C   -0.049640
     6  H    0.123173
     7  H    0.257758
     8  H    0.270453
     9  H    0.127231
 Sum of Mulliken charges =   0.00000

 Dipole moment (field-independent basis, Debye):
    X=              1.7011    Y=             -9.9811    Z=             -0.0593  Tot=             10.1252
 N-N= 1.042157627452D+02 E-N=-1.693753741828D+02  KE=-1.507339938817D+01
 Orbital energies and kinetic energies (alpha):
                                 1                 2
   1         O                -1.757570         -1.263336
   2         O                -1.160988         -1.004621
   3         O                -0.969817         -0.871480
   4         O                -0.816905         -0.617565
   5         O                -0.765327         -0.694471
   6         O                -0.673025         -0.564282
   7         O                -0.657038         -0.527542

 Normal termination of Gaussian 09 at Tue Dec 15 17:06:17 2015.
