 Gaussian 09, Revision D.01,
 Gaussian 09:  ES64L-G09RevD.01 24-Apr-2013

 -------------------------------------------------------
 #P B3LYP/3-21G CIS(Singlets,NStates=15) pop(full) force
 -------------------------------------------------------

 --------
 FuranDFT
 --------
 Symbolic Z-matrix:
 Charge =  0 Multiplicity = 1

                         Standard orientation:
 ---------------------------------------------------------------------
 Center     Atomic      Atomic             Coordinates (Angstroms)
 Number     Number       Type             X           Y           Z
 ---------------------------------------------------------------------
      1          6           0        0.742803    0.936896   -0.010631
      2          6           0        1.121547   -0.390514   -0.001570
      3          8           0       -0.036720   -1.126727   -0.003046
      4          6           0       -1.137069   -0.293390   -0.004775
      5          6           0       -0.695913    0.939560    0.009100
      6          1           0       -1.292563    1.819857   -0.003905
      7          1           0       -2.080019   -0.819037    0.021126
      8          1           0        2.038956   -0.905150    0.038451
      9          1           0        1.439177    1.762834    0.015956
 ---------------------------------------------------------------------

 SCF Done:  E(RB3LYP) =  -228.745506443     A.U. after   15 cycles

 Excitation energies and oscillator strengths:

 Excited State   1:      Singlet-A      7.3025 eV  169.78 nm  f=0.0087  <S**2>=0.000
      17 -> 19         0.52579
      18 -> 19        -0.12965
      18 -> 20         0.44104
 This state for optimization and/or second-order correction.
 Total Energy, E(CIS) =  -228.477145092
 Copying the excited state density for this state as the 1-particle RhoCI density.

 Excited State   2:      Singlet-A      7.4385 eV  166.68 nm  f=0.2223  <S**2>=0.000
      17 -> 19         0.13647
      18 -> 19         0.66635

 Excited State   3:      Singlet-A      8.4222 eV  147.21 nm  f=0.0035  <S**2>=0.000
      16 -> 19         0.70365

 Excited State   4:      Singlet-A      8.7989 eV  140.91 nm  f=0.0008  <S**2>=0.000
      18 -> 21         0.67509
      18 -> 22        -0.18616

 Excited State   5:      Singlet-A      9.3481 eV  132.63 nm  f=0.0082  <S**2>=0.000
      18 -> 21         0.17702
      18 -> 22         0.66040

 Excited State   6:      Singlet-A      9.4160 eV  131.67 nm  f=0.2485  <S**2>=0.000
      17 -> 19         0.23007
      17 -> 20         0.53741
      18 -> 20        -0.31506
      18 -> 22        -0.12351

 Excited State   7:      Singlet-A      9.6473 eV  128.52 nm  f=0.0127  <S**2>=0.000
      17 -> 21        -0.34700
      18 -> 23         0.58184

 Excited State   8:      Singlet-A      9.8355 eV  126.06 nm  f=0.0316  <S**2>=0.000
      15 -> 19         0.20470
      17 -> 21         0.54138
      17 -> 22        -0.11893
      18 -> 20        -0.11485
      18 -> 23         0.33564

 Excited State   9:      Singlet-A      9.9127 eV  125.08 nm  f=0.3887  <S**2>=0.000
      17 -> 19        -0.30316
      17 -> 20         0.38582
      17 -> 21         0.21006
      17 -> 22        -0.11085
      18 -> 20         0.36957

 Excited State  10:      Singlet-A     10.0319 eV  123.59 nm  f=0.0109  <S**2>=0.000
      15 -> 19         0.61133
      16 -> 20         0.23948
      17 -> 21        -0.10944
      18 -> 23        -0.16756

 Excited State  11:      Singlet-A     10.2737 eV  120.68 nm  f=0.0055  <S**2>=0.000
      14 -> 19        -0.25060
      15 -> 19        -0.19454
      16 -> 20         0.45895
      17 -> 21         0.10645
      17 -> 22         0.40429

 Excited State  12:      Singlet-A     10.3260 eV  120.07 nm  f=0.0041  <S**2>=0.000
      14 -> 19         0.18550
      15 -> 19         0.15178
      16 -> 20        -0.34858
      17 -> 22         0.54819

 Excited State  13:      Singlet-A     10.5853 eV  117.13 nm  f=0.0012  <S**2>=0.000
      18 -> 24         0.68800

 Excited State  14:      Singlet-A     10.7020 eV  115.85 nm  f=0.0017  <S**2>=0.000
      14 -> 19         0.58115
      16 -> 20         0.30188
      17 -> 23         0.23226

 Excited State  15:      Singlet-A     10.8620 eV  114.15 nm  f=0.0002  <S**2>=0.000
      14 -> 19        -0.19626
      16 -> 20        -0.10355
      17 -> 23         0.64865

 The electronic state is 1-A.
 Alpha  occ. eigenvalues --  -19.10062 -10.17566 -10.17216 -10.12557 -10.11959
 Alpha  occ. eigenvalues --   -1.11264  -0.80014  -0.75340  -0.59986  -0.57511
 Alpha  occ. eigenvalues --   -0.53870  -0.45440  -0.44074  -0.42110  -0.40136
 Alpha  occ. eigenvalues --   -0.34740  -0.27320  -0.23605
 Alpha virt. eigenvalues --    0.02204   0.08470   0.13501   0.14949   0.16880
 Alpha virt. eigenvalues --    0.19271   0.21889   0.22379   0.36007   0.42033
 Alpha virt. eigenvalues --    0.48681   0.67601   0.69873   0.70386   0.75682

 Mulliken charges:
               1
     1  C   -0.251715
     2  C    0.089592
     3  O   -0.494971
     4  C    0.105739
     5  C   -0.267846
     6  H    0.187545
     7  H    0.223020
     8  H    0.224040
     9  H    0.184595
 Sum of Mulliken charges =   0.00000

 Dipole moment (field-independent basis, Debye):
    X=              0.0309    Y=              0.6164    Z=              0.0756  Tot=              0.6218
 Quadrupole moment (field-independent basis, Debye-Ang):
   XX=            -23.0778   YY=            -28.2056   ZZ=            -31.7320
   XY=             -0.0831   XZ=              0.0850   YZ=             -0.0400

 Normal termination of Gaussian 09 at Tue Dec 15 16:19:41 2015.
