 Gaussian 09, Revision D.01,
 Gaussian 09:  ES64L-G09RevD.01 24-Apr-2013

 ------------------------------------------------------------
 #P AM1(Input,print) CIS(Singlets,NStates=15) pop(full) force
 ------------------------------------------------------------

 -----------------
 AM1-Reparam Input
 -----------------
 Symbolic Z-matrix:
 Charge =  0 Multiplicity = 1

                         Standard orientation:
 ---------------------------------------------------------------------
 Center     Atomic      Atomic             Coordinates (Angstroms)
 Number     Number       Type             X           Y           Z
 ---------------------------------------------------------------------
      1          6           0        1.167013   -0.258812   -0.004737
      2          6           0        0.108758   -1.117973   -0.004070
      3          8           0       -1.113809   -0.441459    0.003735
      4          6           0       -0.706110    0.856629    0.002176
      5          6           0        0.623408    0.998950   -0.000937
      6          1           0        1.147896    1.909734    0.006692
      7          1           0       -1.591595    1.537298   -0.015170
      8          1           0       -0.026602   -2.201753    0.001494
      9          1           0        2.222362   -0.586368    0.022516
 ---------------------------------------------------------------------

 SCF Done:  E(RAM1) =   1.76668002566     A.U. after   14 cycles

 Excitation energies and oscillator strengths:

 Excited State   1:      Singlet-A      5.7299 eV  216.38 nm  f=0.3316  <S**2>=0.000
      11 -> 17        -0.11013
      13 -> 14         0.68976
 This state for optimization and/or second-order correction.
 Total Energy, E(CIS) =   1.97725016134
 Copying the excited state density for this state as the 1-particle RhoCI density.

 Excited State   2:      Singlet-A      6.8750 eV  180.34 nm  f=0.0003  <S**2>=0.000
      10 -> 15         0.12782
      13 -> 15         0.68008

 Excited State   3:      Singlet-A      7.2790 eV  170.33 nm  f=0.0009  <S**2>=0.000
      10 -> 16        -0.13168
      13 -> 16         0.66940
      13 -> 17        -0.11437

 Excited State   4:      Singlet-A      7.3761 eV  168.09 nm  f=0.0001  <S**2>=0.000
      12 -> 14         0.70049

 Excited State   5:      Singlet-A      7.9390 eV  156.17 nm  f=0.0068  <S**2>=0.000
      11 -> 14         0.69980

 Excited State   6:      Singlet-A      9.1017 eV  136.22 nm  f=0.0127  <S**2>=0.000
      10 -> 15         0.10643
      13 -> 17         0.62124
      13 -> 18         0.23926
      13 -> 19        -0.11789
      13 -> 22        -0.11508

 Excited State   7:      Singlet-A      9.1840 eV  135.00 nm  f=0.0044  <S**2>=0.000
      10 -> 16         0.11976
      13 -> 16        -0.10559
      13 -> 17        -0.27147
      13 -> 18         0.58044
      13 -> 19        -0.11968
      13 -> 22        -0.20795

 Excited State   8:      Singlet-A      9.4907 eV  130.64 nm  f=0.0437  <S**2>=0.000
       9 -> 15         0.10357
      10 -> 14         0.64056
      12 -> 15        -0.17674
      13 -> 20        -0.13221

 Excited State   9:      Singlet-A      9.7301 eV  127.42 nm  f=0.0366  <S**2>=0.000
       9 -> 15        -0.15016
       9 -> 16        -0.12844
      10 -> 14         0.10735
      11 -> 16         0.10958
      11 -> 17        -0.19395
      12 -> 15         0.47977
      12 -> 16        -0.26586
      12 -> 18        -0.22030

 Excited State  10:      Singlet-A      9.8592 eV  125.75 nm  f=0.0006  <S**2>=0.000
      13 -> 18         0.18100
      13 -> 19         0.66560

 Excited State  11:      Singlet-A     10.0967 eV  122.80 nm  f=0.1283  <S**2>=0.000
       8 -> 15         0.11878
      10 -> 14        -0.12699
      11 -> 15         0.38727
      11 -> 16         0.14072
      11 -> 17        -0.22483
      12 -> 15        -0.38445
      12 -> 16        -0.17898
      12 -> 18        -0.17660

 Excited State  12:      Singlet-A     10.4763 eV  118.35 nm  f=0.1690  <S**2>=0.000
      11 -> 16         0.41124
      11 -> 17        -0.15901
      12 -> 16         0.48476
      12 -> 17        -0.10001

 Excited State  13:      Singlet-A     10.6083 eV  116.88 nm  f=0.0736  <S**2>=0.000
       8 -> 16         0.12146
       9 -> 15        -0.21204
       9 -> 16         0.10329
      10 -> 14         0.18854
      11 -> 15         0.36503
      11 -> 16        -0.22820
      11 -> 19         0.21527
      12 -> 15         0.12543
      12 -> 16         0.21613
      12 -> 17         0.14874
      13 -> 20         0.18118

 Excited State  14:      Singlet-A     10.6789 eV  116.10 nm  f=0.0151  <S**2>=0.000
       7 -> 15        -0.12579
      10 -> 15         0.62853
      13 -> 15        -0.14303
      13 -> 21         0.17886

 Excited State  15:      Singlet-A     10.8706 eV  114.05 nm  f=0.0755  <S**2>=0.000
       9 -> 14        -0.13366
      10 -> 15        -0.15781
      10 -> 16        -0.18737
      13 -> 21         0.63140

 The electronic state is 1-A.
 Alpha  occ. eigenvalues --   -1.90241  -1.19252  -0.90799  -0.81331  -0.78457
 Alpha  occ. eigenvalues --   -0.69156  -0.67288  -0.55412  -0.53415  -0.45284
 Alpha  occ. eigenvalues --   -0.42483  -0.40889  -0.29680
 Alpha virt. eigenvalues --    0.13285   0.17737   0.19815   0.28188   0.30139
 Alpha virt. eigenvalues --    0.31807   0.32925   0.34336   0.38313   0.42537
 Alpha virt. eigenvalues --    0.44582

 Mulliken charges:
               1
     1  C   -0.137788
     2  C   -1.998172
     3  O    3.274952
     4  C   -1.986531
     5  C   -0.176645
     6  H    0.200502
     7  H    0.314961
     8  H    0.311641
     9  H    0.197080
 Sum of Mulliken charges =   0.00000

 Dipole moment (field-independent basis, Debye):
    X=            -11.0679    Y=             -4.2104    Z=              0.0719  Tot=             11.8419
 N-N= 1.039326217826D+02 E-N=-1.695414264404D+02  KE=-1.551668461160D+01
 Orbital energies and kinetic energies (alpha):
                                 1                 2
   1         O                -1.902415         -1.355956
   2         O                -1.192516         -1.084456
   3         O                -0.907994         -0.886545
   4         O                -0.813314         -0.575319
   5         O                -0.784573         -0.670422
   6         O                -0.691561         -0.606270
   7         O                -0.672879         -0.546746

 Normal termination of Gaussian 09 at Tue Dec 15 17:09:33 2015.
