 Gaussian 09, Revision D.01,
 Gaussian 09:  ES64L-G09RevD.01 24-Apr-2013

 ------------------------------------------------------------
 #P AM1(Input,print) CIS(Singlets,NStates=15) pop(full) force
 ------------------------------------------------------------

 -----------------
 AM1-Reparam Input
 -----------------
 Symbolic Z-matrix:
 Charge =  0 Multiplicity = 1

                         Standard orientation:
 ---------------------------------------------------------------------
 Center     Atomic      Atomic             Coordinates (Angstroms)
 Number     Number       Type             X           Y           Z
 ---------------------------------------------------------------------
      1          6           0       -0.604638    1.068931   -0.015413
      2          6           0       -1.152340   -0.264023    0.032375
      3          8           0       -0.149541   -1.118586   -0.035039
      4          6           0        1.069541   -0.492961    0.036707
      5          6           0        0.853211    0.849429   -0.018215
      6          1           0        1.528250    1.653489    0.034645
      7          1           0        1.939498   -1.071980    0.000474
      8          1           0       -2.163899   -0.586992    0.032373
      9          1           0       -1.102162    1.985913    0.000107
 ---------------------------------------------------------------------

 SCF Done:  E(RAM1) =   1.36312696404     A.U. after   13 cycles

 Excitation energies and oscillator strengths:

 Excited State   1:      Singlet-A      5.8269 eV  212.78 nm  f=0.3380  <S**2>=0.000
      13 -> 14         0.69350
 This state for optimization and/or second-order correction.
 Total Energy, E(CIS) =   1.57726223737
 Copying the excited state density for this state as the 1-particle RhoCI density.

 Excited State   2:      Singlet-A      6.4394 eV  192.54 nm  f=0.0027  <S**2>=0.000
      13 -> 15         0.64773
      13 -> 17        -0.23692

 Excited State   3:      Singlet-A      6.9120 eV  179.38 nm  f=0.0006  <S**2>=0.000
      12 -> 15         0.12449
      13 -> 16         0.62055
      13 -> 18        -0.15651
      13 -> 22        -0.23804

 Excited State   4:      Singlet-A      7.1880 eV  172.49 nm  f=0.0015  <S**2>=0.000
       9 -> 14         0.10224
      11 -> 14         0.68685

 Excited State   5:      Singlet-A      7.8448 eV  158.05 nm  f=0.0006  <S**2>=0.000
      12 -> 15         0.18201
      13 -> 15        -0.11233
      13 -> 16         0.15956
      13 -> 17        -0.30152
      13 -> 18         0.21131
      13 -> 19         0.11250
      13 -> 20        -0.17651
      13 -> 21        -0.33534
      13 -> 22         0.34813

 Excited State   6:      Singlet-A      7.9593 eV  155.77 nm  f=0.0096  <S**2>=0.000
      10 -> 14        -0.11093
      12 -> 16         0.11733
      13 -> 15         0.17445
      13 -> 17         0.55418
      13 -> 18         0.23393
      13 -> 21        -0.19538
      13 -> 22         0.16115

 Excited State   7:      Singlet-A      8.3145 eV  149.12 nm  f=0.0788  <S**2>=0.000
      10 -> 14        -0.15976
      12 -> 14         0.64572
      13 -> 19         0.17016
      13 -> 20         0.11642

 Excited State   8:      Singlet-A      8.3859 eV  147.85 nm  f=0.0058  <S**2>=0.000
      10 -> 14         0.65786
      12 -> 14         0.13900
      13 -> 17         0.13742

 Excited State   9:      Singlet-A      8.7490 eV  141.71 nm  f=0.0072  <S**2>=0.000
      10 -> 14         0.13182
      12 -> 15         0.14167
      13 -> 16         0.11065
      13 -> 18         0.43918
      13 -> 19        -0.24220
      13 -> 20         0.35334
      13 -> 21         0.24841

 Excited State  10:      Singlet-A      8.7985 eV  140.91 nm  f=0.0010  <S**2>=0.000
      12 -> 15         0.23336
      13 -> 18        -0.40995
      13 -> 19        -0.14921
      13 -> 20         0.23976
      13 -> 22         0.41659

 Excited State  11:      Singlet-A      9.1532 eV  135.46 nm  f=0.0499  <S**2>=0.000
      12 -> 15        -0.32216
      12 -> 16         0.16888
      13 -> 16         0.15463
      13 -> 19         0.28108
      13 -> 21         0.37453
      13 -> 22         0.29952

 Excited State  12:      Singlet-A      9.2323 eV  134.29 nm  f=0.0294  <S**2>=0.000
      12 -> 15         0.46996
      12 -> 17        -0.10712
      13 -> 15         0.10930
      13 -> 16        -0.13901
      13 -> 19         0.32437
      13 -> 20        -0.14399
      13 -> 21         0.26675

 Excited State  13:      Singlet-A      9.5849 eV  129.35 nm  f=0.1304  <S**2>=0.000
      11 -> 15         0.16382
      12 -> 14        -0.19463
      13 -> 19         0.37645
      13 -> 20         0.44615
      13 -> 21        -0.21669

 Excited State  14:      Singlet-A      9.9412 eV  124.72 nm  f=0.0003  <S**2>=0.000
       7 -> 15        -0.10251
      12 -> 16         0.60490
      12 -> 21        -0.12823
      13 -> 15        -0.12556
      13 -> 16        -0.10870
      13 -> 23        -0.11173

 Excited State  15:      Singlet-A     10.0116 eV  123.84 nm  f=0.0910  <S**2>=0.000
       8 -> 15        -0.15279
      10 -> 15         0.15190
      10 -> 17        -0.23122
      11 -> 16         0.41927
      11 -> 17         0.16177
      11 -> 18        -0.25422
      11 -> 21         0.10669
      11 -> 22        -0.14628

 The electronic state is 1-A.
 Alpha  occ. eigenvalues --   -1.89612  -1.16462  -0.96130  -0.79080  -0.77651
 Alpha  occ. eigenvalues --   -0.67975  -0.61499  -0.52334  -0.48121  -0.42466
 Alpha  occ. eigenvalues --   -0.38868  -0.37755  -0.25830
 Alpha virt. eigenvalues --    0.15404   0.21244   0.23192   0.28065   0.30358
 Alpha virt. eigenvalues --    0.30886   0.31794   0.33034   0.33077   0.40713
 Alpha virt. eigenvalues --    0.47474

 Mulliken charges:
               1
     1  C   -0.108652
     2  C   -1.619827
     3  O    2.821902
     4  C   -1.572982
     5  C   -0.024453
     6  H    0.069594
     7  H    0.169822
     8  H    0.187906
     9  H    0.076691
 Sum of Mulliken charges =   0.00000

 Dipole moment (field-independent basis, Debye):
    X=             -1.0592    Y=             -8.6671    Z=             -0.8299  Tot=              8.7709
 N-N= 1.032924557856D+02 E-N=-1.693370508822D+02  KE=-1.584594080995D+01
 Orbital energies and kinetic energies (alpha):
                                 1                 2
   1         O                -1.896117         -1.389815
   2         O                -1.164621         -1.051584
   3         O                -0.961299         -0.861586
   4         O                -0.790801         -0.640721
   5         O                -0.776509         -0.712982
   6         O                -0.679755         -0.625236
   7         O                -0.614988         -0.530028

 Normal termination of Gaussian 09 at Tue Dec 15 17:07:58 2015.
