 Gaussian 09, Revision D.01,
 Gaussian 09:  ES64L-G09RevD.01 24-Apr-2013

 ------------------------------------------------------------
 #P AM1(Input,print) CIS(Singlets,NStates=15) pop(full) force
 ------------------------------------------------------------

 -----------------
 AM1-Reparam Input
 -----------------
 Symbolic Z-matrix:
 Charge =  0 Multiplicity = 1

                         Standard orientation:
 ---------------------------------------------------------------------
 Center     Atomic      Atomic             Coordinates (Angstroms)
 Number     Number       Type             X           Y           Z
 ---------------------------------------------------------------------
      1          6           0       -0.019172    1.188053   -0.031530
      2          6           0        1.098895    0.359700    0.031743
      3          8           0        0.727362   -0.947149    0.002160
      4          6           0       -0.659023   -0.891027   -0.032035
      5          6           0       -1.176731    0.335006    0.033046
      6          1           0       -2.218232    0.574251    0.032953
      7          1           0       -1.151457   -1.871327   -0.002203
      8          1           0        2.139430    0.634543   -0.023351
      9          1           0       -0.052447    2.289335   -0.032020
 ---------------------------------------------------------------------

 SCF Done:  E(RAM1) =   1.83355657792     A.U. after   13 cycles

 Excitation energies and oscillator strengths:

 Excited State   1:      Singlet-A      5.6187 eV  220.67 nm  f=0.3191  <S**2>=0.000
      13 -> 14         0.69036
 This state for optimization and/or second-order correction.
 Total Energy, E(CIS) =   2.04003832169
 Copying the excited state density for this state as the 1-particle RhoCI density.

 Excited State   2:      Singlet-A      6.3632 eV  194.84 nm  f=0.0006  <S**2>=0.000
      10 -> 15         0.12502
      13 -> 15         0.67260
      13 -> 17        -0.11209

 Excited State   3:      Singlet-A      6.6248 eV  187.15 nm  f=0.0027  <S**2>=0.000
      10 -> 16        -0.11481
      12 -> 14         0.11437
      13 -> 16         0.65335
      13 -> 17        -0.13760
      13 -> 19        -0.11357

 Excited State   4:      Singlet-A      6.6770 eV  185.69 nm  f=0.0025  <S**2>=0.000
      12 -> 14         0.69055
      13 -> 16        -0.10957

 Excited State   5:      Singlet-A      7.8292 eV  158.36 nm  f=0.0088  <S**2>=0.000
      10 -> 14         0.11373
      11 -> 14         0.66289
      13 -> 17        -0.18298

 Excited State   6:      Singlet-A      8.0749 eV  153.54 nm  f=0.0059  <S**2>=0.000
      11 -> 14         0.17472
      13 -> 15         0.10599
      13 -> 17         0.45185
      13 -> 18         0.42377
      13 -> 22        -0.19853

 Excited State   7:      Singlet-A      8.3218 eV  148.99 nm  f=0.0082  <S**2>=0.000
      10 -> 16        -0.12764
      13 -> 16         0.14948
      13 -> 17         0.46521
      13 -> 18        -0.43231
      13 -> 22         0.18156

 Excited State   8:      Singlet-A      8.7624 eV  141.50 nm  f=0.0594  <S**2>=0.000
       8 -> 15         0.17217
      10 -> 14         0.39255
      11 -> 16         0.10263
      11 -> 17        -0.14970
      12 -> 15         0.43986
      12 -> 18        -0.14338

 Excited State   9:      Singlet-A      8.9315 eV  138.82 nm  f=0.0013  <S**2>=0.000
      13 -> 18         0.17261
      13 -> 19         0.64937

 Excited State  10:      Singlet-A      8.9855 eV  137.98 nm  f=0.0474  <S**2>=0.000
       8 -> 16        -0.10436
      10 -> 14         0.49494
      11 -> 17         0.11577
      12 -> 15        -0.20950
      12 -> 16         0.23927
      12 -> 17         0.11252
      12 -> 18         0.20287
      13 -> 19        -0.12216

 Excited State  11:      Singlet-A      9.4958 eV  130.57 nm  f=0.0314  <S**2>=0.000
      10 -> 14        -0.17303
      11 -> 16         0.10204
      12 -> 15         0.25309
      12 -> 16         0.53726
      12 -> 17        -0.14005
      12 -> 18         0.13736

 Excited State  12:      Singlet-A      9.5562 eV  129.74 nm  f=0.1298  <S**2>=0.000
      10 -> 14        -0.10534
      11 -> 16        -0.14188
      11 -> 17         0.12710
      12 -> 15         0.23043
      12 -> 17         0.13275
      12 -> 18         0.18116
      13 -> 18         0.19103
      13 -> 20        -0.34574
      13 -> 22         0.34986

 Excited State  13:      Singlet-A      9.5889 eV  129.30 nm  f=0.1369  <S**2>=0.000
       9 -> 16         0.11855
      11 -> 15         0.17405
      11 -> 16         0.23483
      11 -> 17        -0.19245
      12 -> 15        -0.21298
      12 -> 16         0.18052
      12 -> 17        -0.15649
      12 -> 18        -0.18861
      13 -> 18         0.16702
      13 -> 20        -0.21586
      13 -> 22         0.29642

 Excited State  14:      Singlet-A      9.8393 eV  126.01 nm  f=0.0304  <S**2>=0.000
       8 -> 15         0.10405
       9 -> 15        -0.15666
      10 -> 16         0.18653
      11 -> 15         0.44000
      11 -> 19         0.14640
      12 -> 17         0.16570
      13 -> 20        -0.25308
      13 -> 22        -0.23822

 Excited State  15:      Singlet-A      9.8676 eV  125.65 nm  f=0.0669  <S**2>=0.000
       9 -> 15        -0.10732
      10 -> 16        -0.24912
      11 -> 15         0.28839
      11 -> 19         0.11192
      12 -> 16         0.10100
      12 -> 17         0.13976
      12 -> 18         0.11046
      13 -> 20         0.41952
      13 -> 22         0.23828

 The electronic state is 1-A.
 Alpha  occ. eigenvalues --   -1.92908  -1.20938  -0.96653  -0.80335  -0.79781
 Alpha  occ. eigenvalues --   -0.67837  -0.66625  -0.50477  -0.48873  -0.41388
 Alpha  occ. eigenvalues --   -0.40812  -0.37074  -0.26880
 Alpha virt. eigenvalues --    0.14595   0.19286   0.20184   0.27531   0.28980
 Alpha virt. eigenvalues --    0.31267   0.33033   0.35747   0.35954   0.45115
 Alpha virt. eigenvalues --    0.48856

 Mulliken charges:
               1
     1  C   -0.119216
     2  C   -1.932722
     3  O    3.115515
     4  C   -1.895155
     5  C   -0.062765
     6  H    0.143594
     7  H    0.291486
     8  H    0.313221
     9  H    0.146041
 Sum of Mulliken charges =   0.00000

 Dipole moment (field-independent basis, Debye):
    X=              6.2897    Y=             -8.7626    Z=             -0.0065  Tot=             10.7863
 N-N= 1.037675552690D+02 E-N=-1.692314141117D+02  KE=-1.562497444632D+01
 Orbital energies and kinetic energies (alpha):
                                 1                 2
   1         O                -1.929080         -1.396430
   2         O                -1.209376         -1.089544
   3         O                -0.966528         -0.908703
   4         O                -0.803351         -0.641146
   5         O                -0.797805         -0.661259
   6         O                -0.678374         -0.570240
   7         O                -0.666246         -0.580311

 Normal termination of Gaussian 09 at Tue Dec 15 17:09:57 2015.
