 Gaussian 09, Revision D.01,
 Gaussian 09:  ES64L-G09RevD.01 24-Apr-2013

 ------------------------------------------------------------
 #P AM1(Input,print) CIS(Singlets,NStates=15) pop(full) force
 ------------------------------------------------------------

 -----------------
 AM1-Reparam Input
 -----------------
 Symbolic Z-matrix:
 Charge =  0 Multiplicity = 1

                         Standard orientation:
 ---------------------------------------------------------------------
 Center     Atomic      Atomic             Coordinates (Angstroms)
 Number     Number       Type             X           Y           Z
 ---------------------------------------------------------------------
      1          6           0        0.742803    0.936896   -0.010631
      2          6           0        1.121547   -0.390514   -0.001570
      3          8           0       -0.036720   -1.126727   -0.003046
      4          6           0       -1.137069   -0.293390   -0.004775
      5          6           0       -0.695913    0.939560    0.009100
      6          1           0       -1.292563    1.819857   -0.003905
      7          1           0       -2.080019   -0.819037    0.021126
      8          1           0        2.038956   -0.905150    0.038451
      9          1           0        1.439177    1.762834    0.015956
 ---------------------------------------------------------------------

 SCF Done:  E(RAM1) =   2.59698912868     A.U. after   13 cycles

 Excitation energies and oscillator strengths:

 Excited State   1:      Singlet-A      4.9826 eV  248.84 nm  f=0.3660  <S**2>=0.000
      13 -> 14         0.69922
 This state for optimization and/or second-order correction.
 Total Energy, E(CIS) =   2.78009466914
 Copying the excited state density for this state as the 1-particle RhoCI density.

 Excited State   2:      Singlet-A      6.2160 eV  199.46 nm  f=0.0000  <S**2>=0.000
      13 -> 15         0.62750
      13 -> 16        -0.22256
      13 -> 17         0.14531
      13 -> 19        -0.13936

 Excited State   3:      Singlet-A      6.5011 eV  190.71 nm  f=0.0044  <S**2>=0.000
      12 -> 14         0.36636
      13 -> 15         0.16892
      13 -> 16         0.55619
      13 -> 18        -0.10045

 Excited State   4:      Singlet-A      6.5378 eV  189.64 nm  f=0.0005  <S**2>=0.000
      12 -> 14         0.59336
      13 -> 15        -0.16604
      13 -> 16        -0.31890

 Excited State   5:      Singlet-A      7.3456 eV  168.79 nm  f=0.0041  <S**2>=0.000
      11 -> 14         0.69872

 Excited State   6:      Singlet-A      7.7113 eV  160.78 nm  f=0.0002  <S**2>=0.000
      13 -> 15        -0.12497
      13 -> 17         0.67261
      13 -> 21         0.11590

 Excited State   7:      Singlet-A      8.4767 eV  146.26 nm  f=0.1201  <S**2>=0.000
      10 -> 14         0.69557

 Excited State   8:      Singlet-A      9.2495 eV  134.04 nm  f=0.0069  <S**2>=0.000
      10 -> 15         0.26207
      10 -> 16        -0.11353
      13 -> 18         0.62402

 Excited State   9:      Singlet-A      9.3713 eV  132.30 nm  f=0.0358  <S**2>=0.000
      11 -> 15        -0.11217
      11 -> 16        -0.19331
      11 -> 18         0.18034
      12 -> 15         0.42223
      12 -> 16        -0.21340
      12 -> 17         0.35558

 Excited State  10:      Singlet-A      9.5349 eV  130.03 nm  f=0.0000  <S**2>=0.000
      10 -> 16         0.28920
      13 -> 19         0.61677

 Excited State  11:      Singlet-A      9.6630 eV  128.31 nm  f=0.2343  <S**2>=0.000
      11 -> 15         0.21372
      11 -> 16         0.22485
      11 -> 18        -0.13472
      12 -> 15         0.50759
      12 -> 16         0.20009
      12 -> 17        -0.19198
      12 -> 19        -0.10015

 Excited State  12:      Singlet-A      9.9746 eV  124.30 nm  f=0.1131  <S**2>=0.000
      11 -> 15        -0.27839
      11 -> 16         0.44357
      11 -> 19         0.13781
      12 -> 16        -0.40621

 Excited State  13:      Singlet-A     10.3878 eV  119.36 nm  f=0.0010  <S**2>=0.000
       9 -> 14         0.44652
      10 -> 16         0.44409
      13 -> 19        -0.18709

 Excited State  14:      Singlet-A     10.4120 eV  119.08 nm  f=0.0024  <S**2>=0.000
       9 -> 14         0.14587
      10 -> 15         0.58178
      13 -> 16        -0.11317
      13 -> 18        -0.26742

 Excited State  15:      Singlet-A     10.5048 eV  118.03 nm  f=0.0140  <S**2>=0.000
       8 -> 15        -0.14768
       9 -> 14         0.34574
       9 -> 16        -0.16607
      10 -> 15        -0.15331
      10 -> 16        -0.14634
      11 -> 15        -0.19976
      11 -> 17         0.20343
      11 -> 19         0.13786
      12 -> 16         0.27574
      12 -> 17         0.17030
      12 -> 18         0.10299
      13 -> 19         0.10923

 The electronic state is 1-A.
 Alpha  occ. eigenvalues --   -1.84844  -1.12554  -0.89010  -0.79837  -0.75211
 Alpha  occ. eigenvalues --   -0.66966  -0.63479  -0.57614  -0.55408  -0.45647
 Alpha  occ. eigenvalues --   -0.45146  -0.42978  -0.30137
 Alpha virt. eigenvalues --    0.08022   0.16510   0.17455   0.24643   0.27541
 Alpha virt. eigenvalues --    0.29371   0.35434   0.39359   0.47287   0.54447
 Alpha virt. eigenvalues --    0.59375

 Mulliken charges:
               1
     1  C   -0.213101
     2  C   -2.007736
     3  O    3.448393
     4  C   -1.967665
     5  C   -0.200227
     6  H    0.204090
     7  H    0.266227
     8  H    0.270376
     9  H    0.199643
 Sum of Mulliken charges =   0.00000

 Dipole moment (field-independent basis, Debye):
    X=             -0.5978    Y=            -11.1004    Z=              0.1292  Tot=             11.1172
 N-N= 1.039826601032D+02 E-N=-1.694324406627D+02  KE=-1.436227607857D+01
 Orbital energies and kinetic energies (alpha):
                                 1                 2
   1         O                -1.848441         -1.242096
   2         O                -1.125536         -0.954182
   3         O                -0.890101         -0.793885
   4         O                -0.798370         -0.540935
   5         O                -0.752107         -0.629203
   6         O                -0.669661         -0.548145
   7         O                -0.634794         -0.495328

 Normal termination of Gaussian 09 at Tue Dec 15 17:07:39 2015.
