 Gaussian 09, Revision D.01,
 Gaussian 09:  ES64L-G09RevD.01 24-Apr-2013

 ------------------------------------------------------------
 #P AM1(Input,print) CIS(Singlets,NStates=15) pop(full) force
 ------------------------------------------------------------

 -----------------
 AM1-Reparam Input
 -----------------
 Symbolic Z-matrix:
 Charge =  0 Multiplicity = 1

                         Standard orientation:
 ---------------------------------------------------------------------
 Center     Atomic      Atomic             Coordinates (Angstroms)
 Number     Number       Type             X           Y           Z
 ---------------------------------------------------------------------
      1          6           0       -0.695082    0.999306   -0.007815
      2          6           0       -1.097835   -0.365665    0.016671
      3          8           0       -0.007775   -1.141947    0.000639
      4          6           0        1.078678   -0.372664   -0.009648
      5          6           0        0.747365    0.946265   -0.004641
      6          1           0        1.357938    1.753186    0.037363
      7          1           0        1.990748   -0.858447    0.020310
      8          1           0       -2.098460   -0.798087   -0.038623
      9          1           0       -1.386778    1.795466    0.008438
 ---------------------------------------------------------------------

 SCF Done:  E(RAM1) =   1.71129662595     A.U. after   13 cycles

 Excitation energies and oscillator strengths:

 Excited State   1:      Singlet-A      5.5142 eV  224.85 nm  f=0.3707  <S**2>=0.000
      13 -> 14         0.69392
 This state for optimization and/or second-order correction.
 Total Energy, E(CIS) =   1.91393929663
 Copying the excited state density for this state as the 1-particle RhoCI density.

 Excited State   2:      Singlet-A      7.1291 eV  173.91 nm  f=0.0006  <S**2>=0.000
      12 -> 14         0.70015

 Excited State   3:      Singlet-A      7.3825 eV  167.94 nm  f=0.0083  <S**2>=0.000
      13 -> 15         0.66746
      13 -> 17         0.18887

 Excited State   4:      Singlet-A      7.5334 eV  164.58 nm  f=0.0006  <S**2>=0.000
      13 -> 16         0.66079
      13 -> 18        -0.18902

 Excited State   5:      Singlet-A      7.9960 eV  155.06 nm  f=0.0058  <S**2>=0.000
      11 -> 14         0.69776

 Excited State   6:      Singlet-A      9.0458 eV  137.06 nm  f=0.0001  <S**2>=0.000
      10 -> 15         0.11226
      13 -> 16         0.14435
      13 -> 17         0.15640
      13 -> 18         0.57543
      13 -> 19         0.15395
      13 -> 21        -0.26454

 Excited State   7:      Singlet-A      9.2687 eV  133.77 nm  f=0.1229  <S**2>=0.000
      10 -> 14         0.68879

 Excited State   8:      Singlet-A      9.5567 eV  129.74 nm  f=0.0159  <S**2>=0.000
      10 -> 16        -0.14310
      13 -> 15        -0.14225
      13 -> 17         0.63958
      13 -> 18        -0.17968

 Excited State   9:      Singlet-A     10.0453 eV  123.42 nm  f=0.0009  <S**2>=0.000
      13 -> 16        -0.11386
      13 -> 18        -0.13610
      13 -> 19         0.66451

 Excited State  10:      Singlet-A     10.1072 eV  122.67 nm  f=0.0107  <S**2>=0.000
       8 -> 15        -0.12904
       9 -> 16         0.12109
      11 -> 15         0.29719
      11 -> 17         0.23105
      12 -> 15        -0.14113
      12 -> 16         0.35594
      12 -> 18        -0.31112

 Excited State  11:      Singlet-A     10.6112 eV  116.84 nm  f=0.0231  <S**2>=0.000
      11 -> 16        -0.22455
      11 -> 18         0.10516
      12 -> 15         0.55168
      12 -> 16         0.29278
      12 -> 17         0.14340

 Excited State  12:      Singlet-A     10.7002 eV  115.87 nm  f=0.2577  <S**2>=0.000
      11 -> 15        -0.43098
      11 -> 17        -0.15749
      12 -> 15        -0.19577
      12 -> 16         0.43802
      12 -> 19         0.12301

 Excited State  13:      Singlet-A     10.7917 eV  114.89 nm  f=0.0273  <S**2>=0.000
      13 -> 18        -0.22758
      13 -> 20         0.47000
      13 -> 21        -0.43288

 Excited State  14:      Singlet-A     10.9987 eV  112.73 nm  f=0.0541  <S**2>=0.000
       8 -> 14         0.10652
       9 -> 14        -0.30886
      10 -> 15        -0.18629
      13 -> 18         0.10772
      13 -> 20         0.44100
      13 -> 21         0.36016

 Excited State  15:      Singlet-A     11.0708 eV  111.99 nm  f=0.0102  <S**2>=0.000
       9 -> 14         0.59814
      13 -> 20         0.16262
      13 -> 21         0.28636

 The electronic state is 1-A.
 Alpha  occ. eigenvalues --   -1.91631  -1.17102  -0.92867  -0.83166  -0.78100
 Alpha  occ. eigenvalues --   -0.70785  -0.68129  -0.57715  -0.55505  -0.47470
 Alpha  occ. eigenvalues --   -0.46257  -0.43501  -0.31833
 Alpha virt. eigenvalues --    0.09398   0.18641   0.19080   0.26773   0.28044
 Alpha virt. eigenvalues --    0.29818   0.32091   0.34183   0.35754   0.43949
 Alpha virt. eigenvalues --    0.48495

 Mulliken charges:
               1
     1  C   -0.163709
     2  C   -2.064949
     3  O    3.301763
     4  C   -2.031420
     5  C   -0.143346
     6  H    0.208133
     7  H    0.336041
     8  H    0.347152
     9  H    0.210334
 Sum of Mulliken charges =   0.00000

 Dipole moment (field-independent basis, Debye):
    X=             -0.0413    Y=            -10.0251    Z=             -0.0444  Tot=             10.0252
 N-N= 1.040034552054D+02 E-N=-1.693843896712D+02  KE=-1.551871109661D+01
 Orbital energies and kinetic energies (alpha):
                                 1                 2
   1         O                -1.916309         -1.389177
   2         O                -1.171019         -1.046670
   3         O                -0.928668         -0.883002
   4         O                -0.831662         -0.583840
   5         O                -0.780997         -0.690672
   6         O                -0.707848         -0.597921
   7         O                -0.681287         -0.531669

 Normal termination of Gaussian 09 at Tue Dec 15 17:09:48 2015.
