 Gaussian 09, Revision D.01,
 Gaussian 09:  ES64L-G09RevD.01 24-Apr-2013

 ------------------------------------------------------------
 #P AM1(Input,print) CIS(Singlets,NStates=15) pop(full) force
 ------------------------------------------------------------

 -----------------
 AM1-Reparam Input
 -----------------
 Symbolic Z-matrix:
 Charge =  0 Multiplicity = 1

                         Standard orientation:
 ---------------------------------------------------------------------
 Center     Atomic      Atomic             Coordinates (Angstroms)
 Number     Number       Type             X           Y           Z
 ---------------------------------------------------------------------
      1          6           0       -0.680242    0.948863   -0.013063
      2          6           0       -1.083726   -0.310280    0.007307
      3          8           0       -0.016349   -1.107750    0.006145
      4          6           0        1.040856   -0.382702    0.006055
      5          6           0        0.727086    0.908568   -0.010395
      6          1           0        1.462002    1.801478    0.044368
      7          1           0        2.026513   -0.922641   -0.039495
      8          1           0       -2.094448   -0.811625   -0.032368
      9          1           0       -1.287123    1.808097    0.038915
 ---------------------------------------------------------------------

 SCF Done:  E(RAM1) =   1.76015140790     A.U. after   14 cycles

 Excitation energies and oscillator strengths:

 Excited State   1:      Singlet-A      5.5208 eV  224.58 nm  f=0.3520  <S**2>=0.000
      13 -> 14         0.69264
 This state for optimization and/or second-order correction.
 Total Energy, E(CIS) =   1.96303576163
 Copying the excited state density for this state as the 1-particle RhoCI density.

 Excited State   2:      Singlet-A      6.8595 eV  180.75 nm  f=0.0014  <S**2>=0.000
      10 -> 15         0.10559
      13 -> 15         0.67725
      13 -> 18        -0.11010

 Excited State   3:      Singlet-A      7.0539 eV  175.77 nm  f=0.0006  <S**2>=0.000
      12 -> 14         0.70006

 Excited State   4:      Singlet-A      7.1755 eV  172.79 nm  f=0.0016  <S**2>=0.000
      10 -> 16        -0.11187
      13 -> 16         0.67283
      13 -> 17        -0.11691
      13 -> 19         0.11383

 Excited State   5:      Singlet-A      7.8967 eV  157.01 nm  f=0.0067  <S**2>=0.000
      11 -> 14         0.69900

 Excited State   6:      Singlet-A      8.7865 eV  141.11 nm  f=0.0002  <S**2>=0.000
      13 -> 17        -0.34599
      13 -> 18         0.53814
      13 -> 21         0.23007

 Excited State   7:      Singlet-A      8.9714 eV  138.20 nm  f=0.0083  <S**2>=0.000
      13 -> 15         0.12204
      13 -> 17         0.58470
      13 -> 18         0.33174

 Excited State   8:      Singlet-A      9.5125 eV  130.34 nm  f=0.0669  <S**2>=0.000
      10 -> 14         0.64806
      12 -> 15        -0.11013
      12 -> 16        -0.15022

 Excited State   9:      Singlet-A      9.6641 eV  128.29 nm  f=0.0402  <S**2>=0.000
       8 -> 15        -0.11410
      11 -> 17        -0.17571
      12 -> 15         0.52845
      12 -> 16        -0.23595
      12 -> 18        -0.24509

 Excited State  10:      Singlet-A      9.7254 eV  127.49 nm  f=0.0040  <S**2>=0.000
      13 -> 18        -0.14358
      13 -> 19         0.67368

 Excited State  11:      Singlet-A     10.0533 eV  123.33 nm  f=0.0828  <S**2>=0.000
       9 -> 15         0.13489
      10 -> 14        -0.16441
      11 -> 15         0.37737
      11 -> 17        -0.19842
      12 -> 15        -0.34763
      12 -> 16        -0.21631
      12 -> 17         0.19008
      12 -> 18        -0.14489

 Excited State  12:      Singlet-A     10.2408 eV  121.07 nm  f=0.1887  <S**2>=0.000
      10 -> 14         0.10616
      11 -> 16         0.33929
      11 -> 17        -0.17176
      12 -> 16         0.51836
      12 -> 18        -0.15517

 Excited State  13:      Singlet-A     10.5134 eV  117.93 nm  f=0.0644  <S**2>=0.000
      13 -> 18         0.19751
      13 -> 20         0.56234
      13 -> 21        -0.34222

 Excited State  14:      Singlet-A     10.7785 eV  115.03 nm  f=0.0535  <S**2>=0.000
       8 -> 15        -0.15466
       8 -> 16         0.12526
       9 -> 15         0.13568
       9 -> 16         0.13211
      10 -> 14         0.15432
      11 -> 15         0.31747
      11 -> 16        -0.27048
      11 -> 19        -0.26286
      12 -> 15         0.14995
      12 -> 16         0.13971
      12 -> 17         0.16284
      12 -> 18         0.18194
      12 -> 20        -0.10077

 Excited State  15:      Singlet-A     10.8872 eV  113.88 nm  f=0.0392  <S**2>=0.000
       9 -> 14        -0.11522
      10 -> 15         0.35711
      13 -> 18        -0.14365
      13 -> 20         0.32197
      13 -> 21         0.44688

 The electronic state is 1-A.
 Alpha  occ. eigenvalues --   -1.94180  -1.19569  -0.93438  -0.83146  -0.77600
 Alpha  occ. eigenvalues --   -0.70338  -0.69474  -0.57071  -0.54586  -0.47779
 Alpha  occ. eigenvalues --   -0.44403  -0.41784  -0.30790
 Alpha virt. eigenvalues --    0.10903   0.16696   0.18163   0.26151   0.27966
 Alpha virt. eigenvalues --    0.30030   0.32364   0.35641   0.37624   0.45869
 Alpha virt. eigenvalues --    0.50319

 Mulliken charges:
               1
     1  C   -0.149902
     2  C   -2.019579
     3  O    3.291583
     4  C   -2.034145
     5  C   -0.205057
     6  H    0.213845
     7  H    0.352399
     8  H    0.342705
     9  H    0.208151
 Sum of Mulliken charges =   0.00000

 Dipole moment (field-independent basis, Debye):
    X=              0.1330    Y=            -10.0621    Z=             -0.0850  Tot=             10.0633
 N-N= 1.049780805748D+02 E-N=-1.711867369432D+02  KE=-1.556598220823D+01
 Orbital energies and kinetic energies (alpha):
                                 1                 2
   1         O                -1.941799         -1.435755
   2         O                -1.195693         -1.057075
   3         O                -0.934378         -0.884985
   4         O                -0.831460         -0.567282
   5         O                -0.775996         -0.692851
   6         O                -0.703384         -0.553790
   7         O                -0.694737         -0.581377

 Normal termination of Gaussian 09 at Tue Dec 15 17:09:34 2015.
