 Gaussian 09, Revision D.01,
 Gaussian 09:  ES64L-G09RevD.01 24-Apr-2013

 ------------------------------------------------------------
 #P AM1(Input,print) CIS(Singlets,NStates=15) pop(full) force
 ------------------------------------------------------------

 -----------------
 AM1-Reparam Input
 -----------------
 Symbolic Z-matrix:
 Charge =  0 Multiplicity = 1

                         Standard orientation:
 ---------------------------------------------------------------------
 Center     Atomic      Atomic             Coordinates (Angstroms)
 Number     Number       Type             X           Y           Z
 ---------------------------------------------------------------------
      1          6           0       -1.157311    0.290330   -0.028214
      2          6           0       -0.572330   -0.964085    0.039219
      3          8           0        0.763191   -0.880420   -0.007601
      4          6           0        1.032317    0.418708   -0.009386
      5          6           0       -0.081540    1.193798    0.014300
      6          1           0       -0.168388    2.210029    0.033333
      7          1           0        2.082468    0.696339   -0.010745
      8          1           0       -1.054420   -1.966954   -0.042835
      9          1           0       -2.292005    0.471443   -0.014456
 ---------------------------------------------------------------------

 SCF Done:  E(RAM1) =   2.59542653430     A.U. after   13 cycles

 Excitation energies and oscillator strengths:

 Excited State   1:      Singlet-A      5.2692 eV  235.30 nm  f=0.3477  <S**2>=0.000
      13 -> 14         0.69784
 This state for optimization and/or second-order correction.
 Total Energy, E(CIS) =   2.78906618829
 Copying the excited state density for this state as the 1-particle RhoCI density.

 Excited State   2:      Singlet-A      6.3392 eV  195.58 nm  f=0.0002  <S**2>=0.000
      13 -> 15         0.66530
      13 -> 17        -0.11912
      13 -> 19         0.12862

 Excited State   3:      Singlet-A      6.5645 eV  188.87 nm  f=0.0041  <S**2>=0.000
      13 -> 16         0.67381
      13 -> 18         0.11751

 Excited State   4:      Singlet-A      6.6971 eV  185.13 nm  f=0.0002  <S**2>=0.000
      10 -> 14        -0.11474
      12 -> 14         0.68897

 Excited State   5:      Singlet-A      7.3890 eV  167.79 nm  f=0.0072  <S**2>=0.000
      10 -> 14         0.56755
      11 -> 14         0.39810

 Excited State   6:      Singlet-A      8.0297 eV  154.41 nm  f=0.0000  <S**2>=0.000
      13 -> 15         0.11640
      13 -> 17         0.65418
      13 -> 18         0.14987
      13 -> 21        -0.12300

 Excited State   7:      Singlet-A      8.4264 eV  147.14 nm  f=0.1198  <S**2>=0.000
      10 -> 14        -0.39086
      11 -> 14         0.57527

 Excited State   8:      Singlet-A      9.1600 eV  135.35 nm  f=0.0081  <S**2>=0.000
       7 -> 16         0.11890
      10 -> 15         0.16407
      11 -> 15        -0.29360
      11 -> 16         0.15639
      12 -> 15         0.10573
      13 -> 17        -0.15323
      13 -> 18         0.54669

 Excited State   9:      Singlet-A      9.2741 eV  133.69 nm  f=0.0154  <S**2>=0.000
       8 -> 16         0.12228
      10 -> 16         0.25855
      10 -> 18         0.15874
      11 -> 16         0.14006
      12 -> 15         0.45166
      12 -> 17        -0.30436

 Excited State  10:      Singlet-A      9.4809 eV  130.77 nm  f=0.0092  <S**2>=0.000
       7 -> 15         0.12278
      10 -> 16         0.10454
      11 -> 15        -0.22469
      11 -> 16        -0.31930
      12 -> 16         0.11468
      13 -> 19         0.52890

 Excited State  11:      Singlet-A      9.6963 eV  127.87 nm  f=0.2874  <S**2>=0.000
      10 -> 16        -0.32453
      10 -> 18        -0.11693
      11 -> 15         0.11474
      11 -> 16        -0.22133
      12 -> 15         0.40890
      12 -> 16        -0.25227
      12 -> 17         0.14869

 Excited State  12:      Singlet-A      9.8208 eV  126.25 nm  f=0.0470  <S**2>=0.000
      10 -> 15        -0.35462
      10 -> 16        -0.14349
      10 -> 19        -0.12029
      11 -> 15        -0.18123
      12 -> 15         0.15590
      12 -> 16         0.43874
      12 -> 18         0.10817
      13 -> 19        -0.18512

 Excited State  13:      Singlet-A     10.0484 eV  123.39 nm  f=0.0019  <S**2>=0.000
      10 -> 16        -0.27164
      11 -> 15        -0.26956
      11 -> 16         0.39223
      13 -> 15        -0.12820
      13 -> 16         0.11961
      13 -> 18        -0.31774
      13 -> 19         0.16879

 Excited State  14:      Singlet-A     10.1268 eV  122.43 nm  f=0.0110  <S**2>=0.000
      10 -> 15        -0.30131
      10 -> 16        -0.15096
      11 -> 15         0.34308
      11 -> 16         0.20509
      13 -> 15        -0.12590
      13 -> 16        -0.11041
      13 -> 18         0.20008
      13 -> 19         0.34532

 Excited State  15:      Singlet-A     10.2623 eV  120.82 nm  f=0.0053  <S**2>=0.000
       6 -> 16        -0.10896
       8 -> 15         0.15920
       8 -> 16        -0.14318
       9 -> 15         0.23339
       9 -> 16         0.12776
      10 -> 15         0.29864
      10 -> 17         0.16068
      10 -> 19         0.15944
      11 -> 15         0.17704
      11 -> 17         0.10991
      12 -> 16         0.36188

 The electronic state is 1-A.
 Alpha  occ. eigenvalues --   -1.85296  -1.13138  -0.86804  -0.79605  -0.74223
 Alpha  occ. eigenvalues --   -0.66505  -0.63687  -0.54672  -0.54451  -0.44546
 Alpha  occ. eigenvalues --   -0.44225  -0.42658  -0.30572
 Alpha virt. eigenvalues --    0.09257   0.16346   0.16946   0.25212   0.27540
 Alpha virt. eigenvalues --    0.29490   0.35359   0.40634   0.50508   0.58285
 Alpha virt. eigenvalues --    0.62035

 Mulliken charges:
               1
     1  C   -0.165992
     2  C   -2.023942
     3  O    3.420088
     4  C   -2.010222
     5  C   -0.166666
     6  H    0.179710
     7  H    0.284246
     8  H    0.290782
     9  H    0.191994
 Sum of Mulliken charges =   0.00000

 Dipole moment (field-independent basis, Debye):
    X=              7.1454    Y=             -8.4693    Z=             -0.4503  Tot=             11.0900
 N-N= 1.042750494704D+02 E-N=-1.701937339446D+02  KE=-1.435787586713D+01
 Orbital energies and kinetic energies (alpha):
                                 1                 2
   1         O                -1.852962         -1.271161
   2         O                -1.131385         -0.978536
   3         O                -0.868036         -0.783205
   4         O                -0.796047         -0.533862
   5         O                -0.742232         -0.613398
   6         O                -0.665047         -0.549325
   7         O                -0.636872         -0.500580

 Normal termination of Gaussian 09 at Tue Dec 15 17:07:31 2015.
