 Gaussian 09, Revision D.01,
 Gaussian 09:  ES64L-G09RevD.01 24-Apr-2013

 ------------------------------------------------------------
 #P AM1(Input,print) CIS(Singlets,NStates=15) pop(full) force
 ------------------------------------------------------------

 -----------------
 AM1-Reparam Input
 -----------------
 Symbolic Z-matrix:
 Charge =  0 Multiplicity = 1

                         Standard orientation:
 ---------------------------------------------------------------------
 Center     Atomic      Atomic             Coordinates (Angstroms)
 Number     Number       Type             X           Y           Z
 ---------------------------------------------------------------------
      1          6           0       -0.942754    0.721818   -0.008713
      2          6           0       -1.013396   -0.617276   -0.014587
      3          8           0        0.338747   -1.090956    0.005008
      4          6           0        1.173161   -0.066625    0.004058
      5          6           0        0.431732    1.096270   -0.017886
      6          1           0        0.818183    2.137040    0.053337
      7          1           0        2.240727   -0.294566    0.014654
      8          1           0       -1.820827   -1.306558    0.045322
      9          1           0       -1.840517    1.386614    0.069402
 ---------------------------------------------------------------------

 SCF Done:  E(RAM1) =   2.01896296900     A.U. after   13 cycles

 Excitation energies and oscillator strengths:

 Excited State   1:      Singlet-A      5.3328 eV  232.49 nm  f=0.3416  <S**2>=0.000
      13 -> 14         0.69427
 This state for optimization and/or second-order correction.
 Total Energy, E(CIS) =   2.21494145286
 Copying the excited state density for this state as the 1-particle RhoCI density.

 Excited State   2:      Singlet-A      6.6454 eV  186.57 nm  f=0.0096  <S**2>=0.000
      13 -> 15         0.64303
      13 -> 17         0.23860

 Excited State   3:      Singlet-A      6.8500 eV  181.00 nm  f=0.0018  <S**2>=0.000
      12 -> 14         0.69234

 Excited State   4:      Singlet-A      7.1517 eV  173.36 nm  f=0.0064  <S**2>=0.000
      13 -> 16         0.61935
      13 -> 18         0.28303

 Excited State   5:      Singlet-A      7.5404 eV  164.43 nm  f=0.0063  <S**2>=0.000
      10 -> 14        -0.13341
      11 -> 14         0.68462

 Excited State   6:      Singlet-A      7.9390 eV  156.17 nm  f=0.0002  <S**2>=0.000
      13 -> 16        -0.22013
      13 -> 18         0.42234
      13 -> 19         0.38370
      13 -> 20         0.30730

 Excited State   7:      Singlet-A      8.5366 eV  145.24 nm  f=0.0122  <S**2>=0.000
      10 -> 15        -0.10800
      13 -> 15        -0.21941
      13 -> 17         0.63432
      13 -> 19         0.11131

 Excited State   8:      Singlet-A      8.7920 eV  141.02 nm  f=0.1112  <S**2>=0.000
      10 -> 14         0.66927
      11 -> 14         0.12782

 Excited State   9:      Singlet-A      9.1805 eV  135.05 nm  f=0.0008  <S**2>=0.000
      10 -> 16        -0.12124
      13 -> 16         0.15095
      13 -> 18        -0.35292
      13 -> 19         0.55156

 Excited State  10:      Singlet-A      9.4694 eV  130.93 nm  f=0.0037  <S**2>=0.000
      13 -> 18        -0.27799
      13 -> 19        -0.13057
      13 -> 20         0.56323
      13 -> 21         0.24665

 Excited State  11:      Singlet-A      9.5675 eV  129.59 nm  f=0.0160  <S**2>=0.000
       9 -> 15         0.10427
      10 -> 14        -0.10743
      11 -> 15        -0.22359
      11 -> 16        -0.24643
      11 -> 17        -0.20439
      11 -> 18        -0.11608
      12 -> 15        -0.18225
      12 -> 16         0.16868
      12 -> 18         0.32375
      12 -> 19         0.21901
      13 -> 20        -0.11261

 Excited State  12:      Singlet-A      9.8413 eV  125.98 nm  f=0.0764  <S**2>=0.000
      12 -> 15         0.11330
      13 -> 20        -0.21747
      13 -> 21         0.62360

 Excited State  13:      Singlet-A      9.8617 eV  125.72 nm  f=0.0887  <S**2>=0.000
      11 -> 15        -0.34047
      11 -> 17        -0.14886
      12 -> 15         0.50643
      12 -> 17         0.21474
      13 -> 21        -0.13698

 Excited State  14:      Singlet-A     10.2703 eV  120.72 nm  f=0.0962  <S**2>=0.000
      10 -> 15         0.38000
      11 -> 15         0.18738
      11 -> 16         0.23732
      12 -> 16         0.41383
      12 -> 18         0.13172

 Excited State  15:      Singlet-A     10.3470 eV  119.83 nm  f=0.1233  <S**2>=0.000
       7 -> 15        -0.10801
      10 -> 15         0.46831
      10 -> 16         0.12878
      11 -> 16        -0.21483
      12 -> 16        -0.35841
      12 -> 18        -0.10038

 The electronic state is 1-A.
 Alpha  occ. eigenvalues --   -1.93706  -1.19146  -0.95641  -0.81837  -0.78323
 Alpha  occ. eigenvalues --   -0.68318  -0.64732  -0.56265  -0.53780  -0.44662
 Alpha  occ. eigenvalues --   -0.43309  -0.41528  -0.29620
 Alpha virt. eigenvalues --    0.10686   0.18149   0.21346   0.24959   0.27372
 Alpha virt. eigenvalues --    0.28046   0.29695   0.30000   0.35094   0.43474
 Alpha virt. eigenvalues --    0.48775

 Mulliken charges:
               1
     1  C   -0.152417
     2  C   -2.004574
     3  O    3.200981
     4  C   -2.027773
     5  C   -0.289021
     6  H    0.268047
     7  H    0.379752
     8  H    0.366085
     9  H    0.258919
 Sum of Mulliken charges =   0.00000

 Dipole moment (field-independent basis, Debye):
    X=              3.0213    Y=             -9.3563    Z=              0.4634  Tot=              9.8429
 N-N= 1.039887789696D+02 E-N=-1.690727091615D+02  KE=-1.544955304852D+01
 Orbital energies and kinetic energies (alpha):
                                 1                 2
   1         O                -1.937062         -1.378839
   2         O                -1.191461         -1.053163
   3         O                -0.956413         -0.866451
   4         O                -0.818367         -0.602757
   5         O                -0.783235         -0.679631
   6         O                -0.683183         -0.562508
   7         O                -0.647322         -0.515926

 Normal termination of Gaussian 09 at Tue Dec 15 17:07:17 2015.
