 Gaussian 09, Revision D.01,
 Gaussian 09:  ES64L-G09RevD.01 24-Apr-2013

 ------------------------------------------------------------
 #P AM1(Input,print) CIS(Singlets,NStates=15) pop(full) force
 ------------------------------------------------------------

 -----------------
 AM1-Reparam Input
 -----------------
 Symbolic Z-matrix:
 Charge =  0 Multiplicity = 1

                         Standard orientation:
 ---------------------------------------------------------------------
 Center     Atomic      Atomic             Coordinates (Angstroms)
 Number     Number       Type             X           Y           Z
 ---------------------------------------------------------------------
      1          6           0       -0.975310    0.715668   -0.009273
      2          6           0       -0.928919   -0.602198   -0.018064
      3          8           0        0.318882   -1.148367    0.018147
      4          6           0        1.166129   -0.012823   -0.013168
      5          6           0        0.405930    1.103118    0.015270
      6          1           0        0.802026    2.164230   -0.016746
      7          1           0        2.195371   -0.198491   -0.022500
      8          1           0       -1.727105   -1.367089   -0.003242
      9          1           0       -1.828327    1.365698    0.048715
 ---------------------------------------------------------------------

 SCF Done:  E(RAM1) =  -7.59347959629     A.U. after   13 cycles

 Excitation energies and oscillator strengths:

 Excited State   1:      Singlet-A      6.9225 eV  179.10 nm  f=0.3874  <S**2>=0.000
      13 -> 14         0.69386
 This state for optimization and/or second-order correction.
 Total Energy, E(CIS) =  -7.33908353784
 Copying the excited state density for this state as the 1-particle RhoCI density.

 Excited State   2:      Singlet-A      7.1611 eV  173.13 nm  f=0.0022  <S**2>=0.000
      12 -> 14         0.69974

 Excited State   3:      Singlet-A      8.1064 eV  152.95 nm  f=0.0045  <S**2>=0.000
      11 -> 14         0.70039

 Excited State   4:      Singlet-A      9.3478 eV  132.63 nm  f=0.0026  <S**2>=0.000
      13 -> 15         0.67886
      13 -> 18         0.12338

 Excited State   5:      Singlet-A      9.9976 eV  124.01 nm  f=0.0240  <S**2>=0.000
      10 -> 14        -0.17475
      13 -> 16         0.46079
      13 -> 17         0.47477

 Excited State   6:      Singlet-A     10.1040 eV  122.71 nm  f=0.0307  <S**2>=0.000
      10 -> 14         0.22915
      13 -> 16        -0.44432
      13 -> 17         0.47568

 Excited State   7:      Singlet-A     11.2269 eV  110.43 nm  f=0.2557  <S**2>=0.000
       9 -> 14         0.11220
      10 -> 14         0.61217
      13 -> 16         0.27952

 Excited State   8:      Singlet-A     11.4985 eV  107.83 nm  f=0.0131  <S**2>=0.000
      10 -> 15        -0.10510
      13 -> 15        -0.13713
      13 -> 18         0.58889
      13 -> 19        -0.10462
      13 -> 20         0.24966
      13 -> 21         0.16712

 Excited State   9:      Singlet-A     11.5540 eV  107.31 nm  f=0.0749  <S**2>=0.000
       9 -> 14         0.40518
       9 -> 15         0.17040
      11 -> 17         0.12200
      12 -> 15         0.46296
      12 -> 16        -0.11308

 Excited State  10:      Singlet-A     11.6022 eV  106.86 nm  f=0.0554  <S**2>=0.000
       9 -> 14         0.52279
       9 -> 15        -0.11292
      10 -> 14        -0.12957
      12 -> 15        -0.35328
      12 -> 16        -0.11301

 Excited State  11:      Singlet-A     12.0749 eV  102.68 nm  f=0.0066  <S**2>=0.000
      10 -> 17         0.10317
      13 -> 17        -0.11436
      13 -> 18         0.26399
      13 -> 19         0.51312
      13 -> 20        -0.28538
      13 -> 21        -0.14271
      13 -> 23         0.10369
      13 -> 24        -0.11453

 Excited State  12:      Singlet-A     12.1406 eV  102.12 nm  f=0.0076  <S**2>=0.000
       7 -> 14        -0.10184
       8 -> 14         0.66118
      11 -> 16         0.10909
      13 -> 19        -0.10442

 Excited State  13:      Singlet-A     12.3188 eV  100.65 nm  f=0.0107  <S**2>=0.000
      12 -> 16        -0.30985
      12 -> 17        -0.27044
      13 -> 18        -0.15333
      13 -> 19         0.33092
      13 -> 20         0.36348
      13 -> 21         0.12727

 Excited State  14:      Singlet-A     12.3610 eV  100.30 nm  f=0.0034  <S**2>=0.000
      12 -> 15         0.12978
      12 -> 16         0.24969
      12 -> 17         0.40608
      12 -> 19         0.13205
      12 -> 20        -0.15734
      13 -> 19         0.25647
      13 -> 20         0.28076

 Excited State  15:      Singlet-A     12.4774 eV   99.37 nm  f=0.0195  <S**2>=0.000
       9 -> 14         0.14534
      12 -> 16         0.52938
      12 -> 17        -0.38030

 The electronic state is 1-A.
 Alpha  occ. eigenvalues --   -3.67451  -1.22620  -0.93091  -0.89575  -0.88147
 Alpha  occ. eigenvalues --   -0.85462  -0.73978  -0.58091  -0.56089  -0.52493
 Alpha  occ. eigenvalues --   -0.46535  -0.43523  -0.34943
 Alpha virt. eigenvalues --    0.11950   0.22841   0.24891   0.26418   0.31675
 Alpha virt. eigenvalues --    0.34557   0.36162   0.37976   0.42278   0.44752
 Alpha virt. eigenvalues --    0.46278

 Mulliken charges:
               1
     1  C   -0.292962
     2  C   -1.654882
     3  O    2.895763
     4  C   -1.674060
     5  C   -0.239439
     6  H    0.210462
     7  H    0.268781
     8  H    0.271432
     9  H    0.214906
 Sum of Mulliken charges =   0.00000

 Dipole moment (field-independent basis, Debye):
    X=              2.4759    Y=            -10.6365    Z=              0.4571  Tot=             10.9304
 N-N= 1.017312348964D+02 E-N=-1.698350941997D+02  KE=-2.457439885990D+01
 Orbital energies and kinetic energies (alpha):
                                 1                 2
   1         O                -3.674512         -3.047423
   2         O                -1.226196         -1.249122
   3         O                -0.930911         -0.907076
   4         O                -0.895754         -0.903512
   5         O                -0.881465         -0.903558
   6         O                -0.854617         -0.993573
   7         O                -0.739777         -0.814864

 Normal termination of Gaussian 09 at Fri Dec 11 13:41:38 2015.
