 Gaussian 09, Revision D.01,
 Gaussian 09:  ES64L-G09RevD.01 24-Apr-2013

 ------------------------------------------------------------
 #P AM1(Input,print) CIS(Singlets,NStates=15) pop(full) force
 ------------------------------------------------------------

 -----------------
 AM1-Reparam Input
 -----------------
 Symbolic Z-matrix:
 Charge =  0 Multiplicity = 1

                         Standard orientation:
 ---------------------------------------------------------------------
 Center     Atomic      Atomic             Coordinates (Angstroms)
 Number     Number       Type             X           Y           Z
 ---------------------------------------------------------------------
      1          6           0        0.811789    0.906537    0.025962
      2          6           0        1.075719   -0.432537   -0.019495
      3          8           0       -0.075229   -1.151355    0.012376
      4          6           0       -1.172783   -0.259584   -0.018905
      5          6           0       -0.628214    1.018835    0.000406
      6          1           0       -1.201693    1.945600   -0.018772
      7          1           0       -2.175478   -0.712502    0.035409
      8          1           0        1.920125   -1.066049   -0.008658
      9          1           0        1.539818    1.644287   -0.034797
 ---------------------------------------------------------------------

 SCF Done:  E(RAM1) =   2.59476451366     A.U. after   13 cycles

 Excitation energies and oscillator strengths:

 Excited State   1:      Singlet-A      5.0463 eV  245.69 nm  f=0.3692  <S**2>=0.000
      13 -> 14         0.69890
 This state for optimization and/or second-order correction.
 Total Energy, E(CIS) =   2.78021225739
 Copying the excited state density for this state as the 1-particle RhoCI density.

 Excited State   2:      Singlet-A      6.1740 eV  200.82 nm  f=0.0008  <S**2>=0.000
      13 -> 15         0.66806
      13 -> 17        -0.12783
      13 -> 19        -0.11497

 Excited State   3:      Singlet-A      6.5967 eV  187.95 nm  f=0.0021  <S**2>=0.000
      12 -> 14         0.64126
      13 -> 16         0.25569

 Excited State   4:      Singlet-A      6.6844 eV  185.48 nm  f=0.0021  <S**2>=0.000
      12 -> 14        -0.26768
      13 -> 16         0.61546
      13 -> 18        -0.10013

 Excited State   5:      Singlet-A      7.3704 eV  168.22 nm  f=0.0045  <S**2>=0.000
      10 -> 14         0.66313
      11 -> 14        -0.21027

 Excited State   6:      Singlet-A      7.8693 eV  157.55 nm  f=0.0001  <S**2>=0.000
      13 -> 17         0.66335
      13 -> 21        -0.12094

 Excited State   7:      Singlet-A      8.3590 eV  148.32 nm  f=0.1234  <S**2>=0.000
      10 -> 14         0.21475
      11 -> 14         0.66321

 Excited State   8:      Singlet-A      9.1969 eV  134.81 nm  f=0.0101  <S**2>=0.000
       7 -> 15        -0.10147
      11 -> 15         0.29489
      11 -> 16        -0.11845
      13 -> 18         0.59276

 Excited State   9:      Singlet-A      9.4290 eV  131.49 nm  f=0.0225  <S**2>=0.000
       9 -> 15        -0.12380
      10 -> 16         0.20458
      10 -> 18        -0.17619
      12 -> 15         0.46995
      12 -> 16        -0.11392
      12 -> 17        -0.32755

 Excited State  10:      Singlet-A      9.4915 eV  130.63 nm  f=0.0042  <S**2>=0.000
      11 -> 15         0.10018
      11 -> 16         0.29583
      13 -> 19         0.59336

 Excited State  11:      Singlet-A      9.8149 eV  126.32 nm  f=0.2971  <S**2>=0.000
      10 -> 15         0.42138
      10 -> 16         0.21006
      10 -> 18        -0.15760
      11 -> 15        -0.18935
      12 -> 15        -0.31912
      12 -> 16         0.14414
      12 -> 17        -0.19053

 Excited State  12:      Singlet-A      9.9790 eV  124.24 nm  f=0.0628  <S**2>=0.000
      10 -> 15        -0.25008
      10 -> 16         0.19358
      10 -> 19         0.12056
      11 -> 15         0.14943
      12 -> 16         0.55009
      12 -> 18        -0.11178
      12 -> 19         0.11639

 Excited State  13:      Singlet-A     10.1010 eV  122.75 nm  f=0.0010  <S**2>=0.000
       7 -> 15        -0.13020
      10 -> 15         0.19565
      11 -> 15         0.52288
      12 -> 16        -0.10265
      13 -> 15        -0.16130
      13 -> 18        -0.22723
      13 -> 19        -0.18091

 Excited State  14:      Singlet-A     10.4298 eV  118.87 nm  f=0.0069  <S**2>=0.000
       9 -> 14        -0.21669
      10 -> 15        -0.17869
      10 -> 16         0.19624
      10 -> 19         0.10219
      11 -> 15        -0.10151
      11 -> 16         0.39268
      12 -> 15        -0.11219
      12 -> 16        -0.13033
      12 -> 17        -0.15760
      13 -> 16         0.13499
      13 -> 18         0.19449
      13 -> 19        -0.18354

 Excited State  15:      Singlet-A     10.4661 eV  118.46 nm  f=0.0144  <S**2>=0.000
       8 -> 15         0.15409
       9 -> 14        -0.26955
       9 -> 15        -0.16560
      10 -> 15         0.21739
      10 -> 17         0.11934
      10 -> 19        -0.12274
      11 -> 16         0.25313
      12 -> 15         0.18618
      12 -> 16         0.21186
      12 -> 17         0.28153

 The electronic state is 1-A.
 Alpha  occ. eigenvalues --   -1.84030  -1.11021  -0.87429  -0.79597  -0.74490
 Alpha  occ. eigenvalues --   -0.66461  -0.62369  -0.56501  -0.55407  -0.45198
 Alpha  occ. eigenvalues --   -0.44803  -0.43023  -0.30178
 Alpha virt. eigenvalues --    0.08197   0.16007   0.17919   0.25141   0.27601
 Alpha virt. eigenvalues --    0.29242   0.35427   0.39353   0.46681   0.54044
 Alpha virt. eigenvalues --    0.58530

 Mulliken charges:
               1
     1  C   -0.210855
     2  C   -1.983961
     3  O    3.444454
     4  C   -1.988424
     5  C   -0.164076
     6  H    0.194462
     7  H    0.263454
     8  H    0.254836
     9  H    0.190110
 Sum of Mulliken charges =   0.00000

 Dipole moment (field-independent basis, Debye):
    X=             -0.5509    Y=            -11.4969    Z=              0.4989  Tot=             11.5209
 N-N= 1.033597316662D+02 E-N=-1.684143367388D+02  KE=-1.430547360229D+01
 Orbital energies and kinetic energies (alpha):
                                 1                 2
   1         O                -1.840299         -1.223471
   2         O                -1.110209         -0.952613
   3         O                -0.874291         -0.769034
   4         O                -0.795968         -0.560542
   5         O                -0.744895         -0.612161
   6         O                -0.664608         -0.555117
   7         O                -0.623692         -0.486807

 Normal termination of Gaussian 09 at Tue Dec 15 17:07:44 2015.
