 Gaussian 09, Revision D.01,
 Gaussian 09:  ES64L-G09RevD.01 24-Apr-2013

 ----------------------------
 #P AM1(Input,print) Opt Freq
 ----------------------------

 -----------------
 AM1-Reparam Input
 -----------------
 Symbolic Z-matrix:
 Charge =  0 Multiplicity = 1

 SCF Done:  E(RAM1) =   1.78033428580     A.U. after   12 cycles
 SCF Done:  E(RAM1) =   1.75498421977     A.U. after   11 cycles
 SCF Done:  E(RAM1) =   1.75342597200     A.U. after   11 cycles
 SCF Done:  E(RAM1) =   1.75243151181     A.U. after   11 cycles
 SCF Done:  E(RAM1) =   1.75202876071     A.U. after   10 cycles
 SCF Done:  E(RAM1) =   1.75202173358     A.U. after    9 cycles
 SCF Done:  E(RAM1) =   1.75202091966     A.U. after    9 cycles
 SCF Done:  E(RAM1) =   1.75201858096     A.U. after    9 cycles
 Optimization completed.
    -- Stationary point found.
 Normal termination of Gaussian 09 at Tue Dec  1 17:37:47 2015.

 -------------------------------------------------------------
 #P Geom=AllCheck Guess=TCheck SCRF=Check GenChk RAM1/ZDO Freq
 -------------------------------------------------------------

 Structure from the checkpoint file:  "/home/Applications/g09/scratch/Gau-23882.chk"
 -----------------
 AM1-Reparam Input
 -----------------
 Charge =  0 Multiplicity = 1

                         Standard orientation:
 ---------------------------------------------------------------------
 Center     Atomic      Atomic             Coordinates (Angstroms)
 Number     Number       Type             X           Y           Z
 ---------------------------------------------------------------------
      1          6           0       -0.679531    0.911099   -0.000006
      2          6           0       -1.080020   -0.324296    0.000000
      3          8           0       -0.000308   -1.141062    0.000008
      4          6           0        1.079850   -0.324841   -0.000011
      5          6           0        0.680029    0.910810    0.000022
      6          1           0        1.304135    1.794723    0.000002
      7          1           0        2.056900   -0.749663   -0.000056
      8          1           0       -2.057324   -0.748522   -0.000003
      9          1           0       -1.303210    1.795323   -0.000044
 ---------------------------------------------------------------------

 SCF Done:  E(RAM1) =   1.75201858096     A.U. after    2 cycles

 The electronic state is 1-A.
 Alpha  occ. eigenvalues --   -1.58330  -1.12501  -0.93850  -0.86505  -0.81479
 Alpha  occ. eigenvalues --   -0.73503  -0.71372  -0.58536  -0.56182  -0.53705
 Alpha  occ. eigenvalues --   -0.51304  -0.48209  -0.40834
 Alpha virt. eigenvalues --    0.02918   0.07859   0.12698   0.13969   0.19244
 Alpha virt. eigenvalues --    0.20924   0.21527   0.39831   0.49350   0.60334
 Alpha virt. eigenvalues --    0.69780

 Mulliken charges:
               1
     1  C   -0.098899
     2  C    0.356071
     3  O   -0.287454
     4  C    0.356081
     5  C   -0.098875
     6  H   -0.023020
     7  H   -0.090453
     8  H   -0.090452
     9  H   -0.022999
 Sum of Mulliken charges =   0.00000

 Dipole moment (field-independent basis, Debye):
    X=              0.0000    Y=              0.4412    Z=              0.0000  Tot=              0.4412
 N-N= 1.049806447821D+02 E-N=-1.735456188172D+02  KE=-1.318543608504D+01
  Exact polarizability:  35.608   0.000  36.504   0.000   0.000   6.386
 Approx polarizability:  28.078   0.002  33.536   0.000   0.000   5.004
 Leave Link  601 at Tue Dec  1 17:37:47 2015, MaxMem=    33554432 cpu:         0.0
 (Enter /home/Applications/g09/g09/l701.exe)
 Compute integral second derivatives.
 ... and contract with generalized density number  0.
 Leave Link  701 at Tue Dec  1 17:37:47 2015, MaxMem=    33554432 cpu:         0.0
 (Enter /home/Applications/g09/g09/l702.exe)
 L702 exits ... SP integral derivatives will be done elsewhere.

                      1                      2                      3
                      A                      A                      A
 Frequencies --    649.4729               657.3878               773.5861
 Red. masses --      2.1601                 1.7729                 7.1202
 Frc consts  --      0.5368                 0.4514                 2.5105
 IR Inten    --      3.4121                 0.0000                 4.2981

                      4                      5                      6
                      A                      A                      A
 Frequencies --    837.9942               992.1323              1130.9568
 Red. masses --      7.7034                 1.1755                 1.0454
 Frc consts  --      3.1873                 0.6817                 0.7878
 IR Inten    --      0.0067                 3.6555                 5.8271

                      7                      8                      9
                      A                      A                      A
 Frequencies --   1132.2997              1155.3726              1171.1723
 Red. masses --      1.2949                 1.0973                 1.8060
 Frc consts  --      0.9782                 0.8630                 1.4595
 IR Inten    --      0.0000                 9.8656                33.1022

                     10                     11                     12
                      A                      A                      A
 Frequencies --   1183.6528              1250.8626              1340.2624
 Red. masses --      1.9283                 1.0811                 1.1695
 Frc consts  --      1.5917                 0.9967                 1.2378
 IR Inten    --      0.0000                 0.7418                 2.8362

                     13                     14                     15
                      A                      A                      A
 Frequencies --   1558.5814              1641.4678              1771.6803
 Red. masses --      7.9941                10.2136                 6.8511
 Frc consts  --     11.4413                16.2141                12.6702
 IR Inten    --     30.8265                 2.6661                36.6175

                     16                     17                     18
                      A                      A                      A
 Frequencies --   1945.7309              2016.5586              3275.8499
 Red. masses --      9.5590                 8.4782                 1.0779
 Frc consts  --     21.3221                20.3131                 6.8154
 IR Inten    --     52.4490                 2.2118                84.7557

                     19                     20                     21
                      A                      A                      A
 Frequencies --   3292.6710              3387.6179              3389.2592
 Red. masses --      1.0859                 1.0789                 1.0815
 Frc consts  --      6.9365                 7.2947                 7.3198
 IR Inten    --    146.5070                59.8986                 6.9098

 - Thermochemistry -
 -------------------
 Temperature   298.150 Kelvin.  Pressure   1.00000 Atm.
 Atom     1 has atomic number  6 and mass  12.00000

 Molecular mass:    68.02621 amu.
 Principal axes and moments of inertia in atomic units:
                           1         2         3
     Eigenvalues --   181.52739 182.25291 363.78030
           X            0.99998  -0.00554   0.00000
           Y            0.00554   0.99998   0.00000
           Z            0.00000   0.00000   1.00000
 This molecule is an asymmetric top.
 Rotational symmetry number  1.
 Rotational temperatures (Kelvin)      0.47714     0.47524     0.23809
 Rotational constants (GHZ):           9.94198     9.90240     4.96107
 Zero-point vibrational energy     206682.2 (Joules/Mol)
                                   49.39824 (Kcal/Mol)
 Vibrational temperatures:    934.45   945.83  1113.02  1205.69  1427.46
          (Kelvin)           1627.19  1629.12  1662.32  1685.05  1703.01
                             1799.71  1928.34  2242.45  2361.70  2549.05
                             2799.47  2901.37  4713.21  4737.41  4874.02
                             4876.38

 Zero-point correction=                           0.078721 (Hartree/Particle)
 Thermal correction to Energy=                    0.082145
 Thermal correction to Enthalpy=                  0.083089
 Thermal correction to Gibbs Free Energy=         0.052615
 Sum of electronic and zero-point Energies=              1.830740
 Sum of electronic and thermal Energies=                 1.834164
 Sum of electronic and thermal Enthalpies=               1.835108
 Sum of electronic and thermal Free Energies=            1.804634

                     E (Thermal)             CV                S
                      KCal/Mol        Cal/Mol-Kelvin    Cal/Mol-Kelvin
 Total                   51.547             11.123             64.138
 Electronic               0.000              0.000              0.000
 Translational            0.889              2.981             38.570
 Rotational               0.889              2.981             24.002
 Vibrational             49.769              5.161              1.567

 Optimization completed.
    -- Stationary point found.
 Normal termination of Gaussian 09 at Tue Dec  1 17:37:47 2015.
