 Gaussian 09, Revision D.01,
 Gaussian 09:  ES64L-G09RevD.01 24-Apr-2013

 ------------------------------------------------------------
 #P AM1(Input,print) CIS(Singlets,NStates=15) pop(full) force
 ------------------------------------------------------------

 -----------------
 AM1-Reparam Input
 -----------------
 Symbolic Z-matrix:
 Charge =  0 Multiplicity = 1

                         Standard orientation:
 ---------------------------------------------------------------------
 Center     Atomic      Atomic             Coordinates (Angstroms)
 Number     Number       Type             X           Y           Z
 ---------------------------------------------------------------------
      1          6           0        0.426935    1.086993    0.006452
      2          6           0        1.158484   -0.062068    0.034016
      3          8           0        0.323832   -1.092775   -0.013920
      4          6           0       -0.987586   -0.654582   -0.000887
      5          6           0       -0.950789    0.774502   -0.023468
      6          1           0       -1.781889    1.417671    0.030627
      7          1           0       -1.744242   -1.345937    0.070045
      8          1           0        2.197984   -0.256572   -0.078761
      9          1           0        0.855220    2.057965   -0.007227
 ---------------------------------------------------------------------

 SCF Done:  E(RAM1) =   1.77657329748     A.U. after   14 cycles

 Excitation energies and oscillator strengths:

 Excited State   1:      Singlet-A      5.6196 eV  220.63 nm  f=0.3397  <S**2>=0.000
      13 -> 14         0.68910
 This state for optimization and/or second-order correction.
 Total Energy, E(CIS) =   1.98309056374
 Copying the excited state density for this state as the 1-particle RhoCI density.

 Excited State   2:      Singlet-A      6.9269 eV  178.99 nm  f=0.0121  <S**2>=0.000
      13 -> 15         0.66468
      13 -> 16         0.14210
      13 -> 17         0.13022

 Excited State   3:      Singlet-A      7.3579 eV  168.50 nm  f=0.0024  <S**2>=0.000
      13 -> 15        -0.12380
      13 -> 16         0.65162
      13 -> 18         0.14049
      13 -> 19         0.13828

 Excited State   4:      Singlet-A      7.6257 eV  162.59 nm  f=0.0008  <S**2>=0.000
      12 -> 14         0.69353

 Excited State   5:      Singlet-A      8.2851 eV  149.65 nm  f=0.0061  <S**2>=0.000
      10 -> 14         0.69655

 Excited State   6:      Singlet-A      8.4700 eV  146.38 nm  f=0.0002  <S**2>=0.000
      13 -> 16        -0.11510
      13 -> 17         0.22908
      13 -> 18         0.59636
      13 -> 21        -0.22813

 Excited State   7:      Singlet-A      8.9619 eV  138.35 nm  f=0.1234  <S**2>=0.000
      11 -> 14         0.68670

 Excited State   8:      Singlet-A      9.3935 eV  131.99 nm  f=0.0089  <S**2>=0.000
      11 -> 15        -0.12988
      11 -> 16         0.14570
      13 -> 15        -0.11270
      13 -> 17         0.61007
      13 -> 18        -0.21913

 Excited State   9:      Singlet-A      9.8777 eV  125.52 nm  f=0.0950  <S**2>=0.000
       9 -> 15         0.11915
       9 -> 16        -0.11348
      10 -> 15         0.33950
      10 -> 16         0.12498
      10 -> 17         0.16378
      10 -> 18        -0.14144
      12 -> 15        -0.21773
      12 -> 16        -0.24578
      12 -> 17        -0.20978
      12 -> 18        -0.25042
      13 -> 14        -0.12153
      13 -> 19        -0.10674

 Excited State  10:      Singlet-A      9.9869 eV  124.15 nm  f=0.0032  <S**2>=0.000
      11 -> 15         0.21378
      11 -> 16         0.24410
      13 -> 19         0.58133

 Excited State  11:      Singlet-A     10.2024 eV  121.52 nm  f=0.0556  <S**2>=0.000
      10 -> 16         0.12525
      12 -> 15         0.60708
      12 -> 16        -0.18561
      12 -> 18        -0.19272

 Excited State  12:      Singlet-A     10.4584 eV  118.55 nm  f=0.0010  <S**2>=0.000
      11 -> 15         0.58325
      11 -> 16         0.10394
      13 -> 15        -0.11831
      13 -> 16         0.13522
      13 -> 19        -0.25675

 Excited State  13:      Singlet-A     10.6313 eV  116.62 nm  f=0.0032  <S**2>=0.000
      13 -> 18         0.22829
      13 -> 21         0.64596

 Excited State  14:      Singlet-A     10.7793 eV  115.02 nm  f=0.0726  <S**2>=0.000
      11 -> 16         0.33107
      12 -> 16         0.10700
      13 -> 20         0.57980

 Excited State  15:      Singlet-A     10.8090 eV  114.70 nm  f=0.1544  <S**2>=0.000
      10 -> 15         0.17276
      10 -> 16         0.47052
      10 -> 19         0.11856
      11 -> 16        -0.10898
      12 -> 16         0.43295

 The electronic state is 1-A.
 Alpha  occ. eigenvalues --   -1.99897  -1.26751  -1.01019  -0.90131  -0.85669
 Alpha  occ. eigenvalues --   -0.77272  -0.74686  -0.65141  -0.62350  -0.53396
 Alpha  occ. eigenvalues --   -0.52426  -0.51237  -0.38777
 Alpha virt. eigenvalues --    0.03224   0.10362   0.12591   0.19125   0.19677
 Alpha virt. eigenvalues --    0.22121   0.24600   0.25707   0.29567   0.37054
 Alpha virt. eigenvalues --    0.43249

 Mulliken charges:
               1
     1  C   -0.152299
     2  C   -1.910995
     3  O    3.184662
     4  C   -1.920661
     5  C   -0.071293
     6  H    0.148658
     7  H    0.270568
     8  H    0.291320
     9  H    0.160040
 Sum of Mulliken charges =   0.00000

 Dipole moment (field-independent basis, Debye):
    X=              3.2584    Y=             -9.2757    Z=             -0.4639  Tot=              9.8423
 N-N= 1.055534514222D+02 E-N=-1.703059268015D+02  KE=-1.567279102126D+01
 Orbital energies and kinetic energies (alpha):
                                 1                 2
   1         O                -1.998974         -1.380753
   2         O                -1.267509         -1.041246
   3         O                -1.010185         -0.871554
   4         O                -0.901306         -0.599891
   5         O                -0.856688         -0.703903
   6         O                -0.772723         -0.620687
   7         O                -0.746863         -0.540202

 Normal termination of Gaussian 09 at Tue Dec 15 17:08:55 2015.
