 Gaussian 09, Revision D.01,
 Gaussian 09:  ES64L-G09RevD.01 24-Apr-2013

 ------------------------------------------------------------
 #P AM1(Input,print) CIS(Singlets,NStates=15) pop(full) force
 ------------------------------------------------------------

 -----------------
 AM1-Reparam Input
 -----------------
 Symbolic Z-matrix:
 Charge =  0 Multiplicity = 1

                         Standard orientation:
 ---------------------------------------------------------------------
 Center     Atomic      Atomic             Coordinates (Angstroms)
 Number     Number       Type             X           Y           Z
 ---------------------------------------------------------------------
      1          6           0       -0.743460    0.905586    0.007329
      2          6           0       -1.067291   -0.314285    0.004573
      3          8           0        0.009564   -1.178529    0.003626
      4          6           0        1.093313   -0.336497   -0.019341
      5          6           0        0.704809    0.997165   -0.017738
      6          1           0        1.398201    1.779010    0.077998
      7          1           0        2.038640   -0.796708    0.062001
      8          1           0       -2.043865   -0.840370   -0.004796
      9          1           0       -1.393711    1.774489   -0.013147
 ---------------------------------------------------------------------

 SCF Done:  E(RAM1) =   2.87869669988     A.U. after   14 cycles

 Excitation energies and oscillator strengths:

 Excited State   1:      Singlet-A      5.1451 eV  240.97 nm  f=0.3349  <S**2>=0.000
      13 -> 14         0.69524
 This state for optimization and/or second-order correction.
 Total Energy, E(CIS) =   3.06777661055
 Copying the excited state density for this state as the 1-particle RhoCI density.

 Excited State   2:      Singlet-A      5.9961 eV  206.78 nm  f=0.0008  <S**2>=0.000
      13 -> 15         0.67270
      13 -> 18         0.15524

 Excited State   3:      Singlet-A      6.3369 eV  195.65 nm  f=0.0042  <S**2>=0.000
      13 -> 16         0.63414
      13 -> 17        -0.24195
      13 -> 18        -0.11752

 Excited State   4:      Singlet-A      6.6696 eV  185.89 nm  f=0.0008  <S**2>=0.000
      12 -> 14         0.69791

 Excited State   5:      Singlet-A      7.5991 eV  163.16 nm  f=0.0008  <S**2>=0.000
      13 -> 16         0.20686
      13 -> 17         0.35459
      13 -> 18         0.37393
      13 -> 19         0.17306
      13 -> 20        -0.15119
      13 -> 21         0.32525

 Excited State   6:      Singlet-A      7.7427 eV  160.13 nm  f=0.0227  <S**2>=0.000
      10 -> 14        -0.22996
      11 -> 14         0.13581
      13 -> 15         0.11773
      13 -> 17         0.47108
      13 -> 18        -0.37144
      13 -> 21        -0.17023

 Excited State   7:      Singlet-A      7.9111 eV  156.72 nm  f=0.0022  <S**2>=0.000
      10 -> 14         0.53764
      11 -> 14        -0.33820
      13 -> 17         0.27334

 Excited State   8:      Singlet-A      8.3656 eV  148.21 nm  f=0.0009  <S**2>=0.000
      13 -> 16        -0.11083
      13 -> 18        -0.30931
      13 -> 19         0.57229
      13 -> 21         0.21705

 Excited State   9:      Singlet-A      8.6087 eV  144.02 nm  f=0.0487  <S**2>=0.000
       8 -> 15         0.10822
      10 -> 14         0.31831
      11 -> 14         0.51330
      12 -> 15        -0.28270

 Excited State  10:      Singlet-A      8.9546 eV  138.46 nm  f=0.0017  <S**2>=0.000
      13 -> 18        -0.27645
      13 -> 19        -0.34001
      13 -> 20        -0.31571
      13 -> 21         0.44097

 Excited State  11:      Singlet-A      9.0824 eV  136.51 nm  f=0.2111  <S**2>=0.000
       8 -> 15        -0.12616
      10 -> 14         0.17289
      11 -> 14         0.26619
      12 -> 15         0.52992
      12 -> 16        -0.19549
      12 -> 18         0.14605

 Excited State  12:      Singlet-A      9.3325 eV  132.85 nm  f=0.0856  <S**2>=0.000
      13 -> 19        -0.10889
      13 -> 20         0.59766
      13 -> 21         0.32951

 Excited State  13:      Singlet-A      9.4983 eV  130.53 nm  f=0.0102  <S**2>=0.000
       9 -> 15         0.14383
      10 -> 15         0.17764
      10 -> 17        -0.18360
      10 -> 18         0.10781
      11 -> 15        -0.10447
      11 -> 17         0.11152
      12 -> 15         0.29146
      12 -> 16         0.34556
      12 -> 17        -0.22052
      12 -> 18        -0.14582
      12 -> 19        -0.14203
      12 -> 21        -0.13554

 Excited State  14:      Singlet-A      9.9052 eV  125.17 nm  f=0.0092  <S**2>=0.000
       7 -> 15        -0.11269
      10 -> 15         0.28594
      11 -> 15         0.43454
      11 -> 16         0.37289
      11 -> 17        -0.12368
      13 -> 15        -0.10290

 Excited State  15:      Singlet-A      9.9787 eV  124.25 nm  f=0.1412  <S**2>=0.000
      10 -> 15        -0.19856
      10 -> 16        -0.22851
      10 -> 17         0.17328
      11 -> 15        -0.19909
      11 -> 16         0.25628
      12 -> 16         0.39872
      12 -> 19         0.22204

 The electronic state is 1-A.
 Alpha  occ. eigenvalues --   -1.71133  -1.12266  -0.92383  -0.79097  -0.74740
 Alpha  occ. eigenvalues --   -0.66269  -0.63337  -0.52221  -0.49379  -0.42899
 Alpha  occ. eigenvalues --   -0.42454  -0.38862  -0.26703
 Alpha virt. eigenvalues --    0.12537   0.17516   0.19834   0.25986   0.28534
 Alpha virt. eigenvalues --    0.29272   0.31383   0.31972   0.36114   0.45740
 Alpha virt. eigenvalues --    0.48687

 Mulliken charges:
               1
     1  C   -0.105469
     2  C   -1.888144
     3  O    3.196974
     4  C   -1.950068
     5  C   -0.179876
     6  H    0.176554
     7  H    0.292061
     8  H    0.288720
     9  H    0.169246
 Sum of Mulliken charges =   0.00000

 Dipole moment (field-independent basis, Debye):
    X=             -0.5243    Y=            -11.2743    Z=              0.3597  Tot=             11.2922
 N-N= 1.040418242517D+02 E-N=-1.693103074770D+02  KE=-1.478111962894D+01
 Orbital energies and kinetic energies (alpha):
                                 1                 2
   1         O                -1.711328         -1.200676
   2         O                -1.122656         -0.996107
   3         O                -0.923827         -0.862373
   4         O                -0.790970         -0.590610
   5         O                -0.747400         -0.676921
   6         O                -0.662691         -0.557496
   7         O                -0.633367         -0.525178

 Normal termination of Gaussian 09 at Tue Dec 15 17:05:50 2015.
