 Gaussian 09, Revision D.01,
 Gaussian 09:  ES64L-G09RevD.01 24-Apr-2013

 ------------------------------------------------------------
 #P AM1(Input,print) CIS(Singlets,NStates=15) pop(full) force
 ------------------------------------------------------------

 -----------------
 AM1-Reparam Input
 -----------------
 Symbolic Z-matrix:
 Charge =  0 Multiplicity = 1

                         Standard orientation:
 ---------------------------------------------------------------------
 Center     Atomic      Atomic             Coordinates (Angstroms)
 Number     Number       Type             X           Y           Z
 ---------------------------------------------------------------------
      1          6           0       -1.019760    0.708164   -0.025687
      2          6           0       -0.988633   -0.636175    0.046698
      3          8           0        0.370198   -1.136602   -0.036632
      4          6           0        1.185691    0.017817    0.028300
      5          6           0        0.420975    1.089536   -0.014464
      6          1           0        0.751393    2.181483    0.045415
      7          1           0        2.241335   -0.147917    0.023371
      8          1           0       -1.664749   -1.364004    0.025908
      9          1           0       -1.879206    1.347208   -0.010723
 ---------------------------------------------------------------------

 SCF Done:  E(RAM1) =   2.86851216089     A.U. after   14 cycles

 Excitation energies and oscillator strengths:

 Excited State   1:      Singlet-A      4.9056 eV  252.74 nm  f=0.3435  <S**2>=0.000
      13 -> 14         0.69610
 This state for optimization and/or second-order correction.
 Total Energy, E(CIS) =   3.04878937210
 Copying the excited state density for this state as the 1-particle RhoCI density.

 Excited State   2:      Singlet-A      6.1730 eV  200.85 nm  f=0.0009  <S**2>=0.000
      13 -> 15         0.61452
      13 -> 16        -0.20296
      13 -> 18        -0.21603
      13 -> 19        -0.12049

 Excited State   3:      Singlet-A      6.3714 eV  194.59 nm  f=0.0039  <S**2>=0.000
      12 -> 14        -0.16454
      13 -> 15         0.21299
      13 -> 16         0.58305
      13 -> 17        -0.23043
      13 -> 19         0.11001

 Excited State   4:      Singlet-A      6.4125 eV  193.35 nm  f=0.0026  <S**2>=0.000
      12 -> 14         0.67751
      13 -> 16         0.12324

 Excited State   5:      Singlet-A      7.3514 eV  168.65 nm  f=0.0005  <S**2>=0.000
      11 -> 16         0.10431
      13 -> 16        -0.23897
      13 -> 17        -0.35497
      13 -> 18         0.38158
      13 -> 20        -0.18793
      13 -> 21         0.33200

 Excited State   6:      Singlet-A      7.6277 eV  162.54 nm  f=0.0118  <S**2>=0.000
      10 -> 14         0.21185
      13 -> 15         0.18012
      13 -> 17         0.51164
      13 -> 18         0.32706
      13 -> 19         0.10795
      13 -> 21         0.13219

 Excited State   7:      Singlet-A      7.8806 eV  157.33 nm  f=0.0014  <S**2>=0.000
      10 -> 14         0.65863
      13 -> 17        -0.19090

 Excited State   8:      Singlet-A      8.3293 eV  148.85 nm  f=0.0046  <S**2>=0.000
      13 -> 16        -0.12572
      13 -> 19         0.64522
      13 -> 20         0.17682
      13 -> 21        -0.12401

 Excited State   9:      Singlet-A      8.5481 eV  145.04 nm  f=0.0719  <S**2>=0.000
      11 -> 14         0.65041
      12 -> 15         0.10669
      13 -> 22        -0.14884

 Excited State  10:      Singlet-A      8.5765 eV  144.56 nm  f=0.0095  <S**2>=0.000
      13 -> 18         0.41746
      13 -> 19        -0.15624
      13 -> 20         0.31602
      13 -> 21        -0.41409

 Excited State  11:      Singlet-A      9.0296 eV  137.31 nm  f=0.0866  <S**2>=0.000
      13 -> 20         0.54922
      13 -> 21         0.40801

 Excited State  12:      Singlet-A      9.1758 eV  135.12 nm  f=0.0925  <S**2>=0.000
      10 -> 17         0.17447
      12 -> 15         0.38942
      12 -> 16        -0.32029
      12 -> 17         0.16251
      12 -> 18        -0.31062
      12 -> 21        -0.12155

 Excited State  13:      Singlet-A      9.6321 eV  128.72 nm  f=0.0632  <S**2>=0.000
       9 -> 15         0.10324
      10 -> 15         0.17168
      10 -> 17        -0.12313
      10 -> 18        -0.11303
      12 -> 15         0.50568
      12 -> 16         0.22082
      12 -> 17        -0.25547
      12 -> 20        -0.12945

 Excited State  14:      Singlet-A      9.8385 eV  126.02 nm  f=0.1010  <S**2>=0.000
      11 -> 14         0.15496
      13 -> 22         0.65849

 Excited State  15:      Singlet-A      9.9614 eV  124.46 nm  f=0.2369  <S**2>=0.000
       8 -> 16        -0.16929
      10 -> 16        -0.12522
      10 -> 17         0.14151
      10 -> 19         0.11710
      12 -> 16         0.43855
      12 -> 17         0.29294
      12 -> 18        -0.15050
      12 -> 19         0.22588
      13 -> 22         0.10219

 The electronic state is 1-A.
 Alpha  occ. eigenvalues --   -1.68306  -1.09604  -0.92084  -0.77699  -0.75702
 Alpha  occ. eigenvalues --   -0.65799  -0.61328  -0.53142  -0.50154  -0.42945
 Alpha  occ. eigenvalues --   -0.42483  -0.38201  -0.25823
 Alpha virt. eigenvalues --    0.11946   0.19408   0.21314   0.26074   0.28164
 Alpha virt. eigenvalues --    0.29240   0.30592   0.31159   0.32651   0.41991
 Alpha virt. eigenvalues --    0.45268

 Mulliken charges:
               1
     1  C   -0.136114
     2  C   -1.905687
     3  O    3.207494
     4  C   -1.903236
     5  C   -0.176334
     6  H    0.176257
     7  H    0.292452
     8  H    0.271252
     9  H    0.173916
 Sum of Mulliken charges =   0.00000

 Dipole moment (field-independent basis, Debye):
    X=              3.8269    Y=            -10.8932    Z=             -0.9904  Tot=             11.5882
 N-N= 1.029344328520D+02 E-N=-1.673863435188D+02  KE=-1.468007589645D+01
 Orbital energies and kinetic energies (alpha):
                                 1                 2
   1         O                -1.683062         -1.141948
   2         O                -1.096044         -0.971440
   3         O                -0.920839         -0.859941
   4         O                -0.776988         -0.599209
   5         O                -0.757018         -0.682226
   6         O                -0.657992         -0.550699
   7         O                -0.613278         -0.512161

 Normal termination of Gaussian 09 at Tue Dec 15 17:06:00 2015.
