 Gaussian 09, Revision D.01,
 Gaussian 09:  ES64L-G09RevD.01 24-Apr-2013

 ------------------------------------------------------------
 #P AM1(Input,print) CIS(Singlets,NStates=15) pop(full) force
 ------------------------------------------------------------

 -----------------
 AM1-Reparam Input
 -----------------
 Symbolic Z-matrix:
 Charge =  0 Multiplicity = 1

                         Standard orientation:
 ---------------------------------------------------------------------
 Center     Atomic      Atomic             Coordinates (Angstroms)
 Number     Number       Type             X           Y           Z
 ---------------------------------------------------------------------
      1          6           0       -1.113238    0.442806   -0.004783
      2          6           0       -0.750595   -0.836111    0.021280
      3          8           0        0.627596   -1.017490   -0.014962
      4          6           0        1.104850    0.268298    0.003039
      5          6           0        0.107970    1.210609   -0.013149
      6          1           0        0.178041    2.208215    0.024157
      7          1           0        2.205136    0.340432    0.057520
      8          1           0       -1.369346   -1.803414   -0.005826
      9          1           0       -2.128520    0.881079    0.005513
 ---------------------------------------------------------------------

 SCF Done:  E(RAM1) =   1.72173746354     A.U. after   14 cycles

 Excitation energies and oscillator strengths:

 Excited State   1:      Singlet-A      5.3274 eV  232.73 nm  f=0.3466  <S**2>=0.000
      13 -> 14         0.69556
 This state for optimization and/or second-order correction.
 Total Energy, E(CIS) =   1.91751487300
 Copying the excited state density for this state as the 1-particle RhoCI density.

 Excited State   2:      Singlet-A      6.0138 eV  206.17 nm  f=0.0005  <S**2>=0.000
      11 -> 15         0.12297
      13 -> 15         0.66906
      13 -> 18        -0.10271

 Excited State   3:      Singlet-A      6.1521 eV  201.53 nm  f=0.0012  <S**2>=0.000
      11 -> 16        -0.12039
      13 -> 16         0.65659
      13 -> 17        -0.13967
      13 -> 19        -0.14102

 Excited State   4:      Singlet-A      6.9735 eV  177.79 nm  f=0.0008  <S**2>=0.000
      12 -> 14         0.68390
      13 -> 20        -0.12685

 Excited State   5:      Singlet-A      7.4757 eV  165.85 nm  f=0.0005  <S**2>=0.000
      12 -> 14         0.14589
      13 -> 18         0.11077
      13 -> 19        -0.32548
      13 -> 20         0.53894
      13 -> 21         0.19551

 Excited State   6:      Singlet-A      7.5944 eV  163.26 nm  f=0.0256  <S**2>=0.000
      13 -> 15         0.10382
      13 -> 16         0.12342
      13 -> 17         0.66269
      13 -> 18         0.10435

 Excited State   7:      Singlet-A      8.2350 eV  150.56 nm  f=0.0022  <S**2>=0.000
      10 -> 14        -0.32361
      13 -> 17        -0.10575
      13 -> 18         0.42353
      13 -> 19        -0.32407
      13 -> 20        -0.23992
      13 -> 21        -0.14816

 Excited State   8:      Singlet-A      8.2784 eV  149.77 nm  f=0.0005  <S**2>=0.000
      10 -> 14         0.59584
      13 -> 18         0.34205
      13 -> 21        -0.11239

 Excited State   9:      Singlet-A      8.4930 eV  145.98 nm  f=0.0226  <S**2>=0.000
      10 -> 14        -0.12454
      13 -> 17        -0.10339
      13 -> 18         0.39991
      13 -> 19         0.45739
      13 -> 20         0.12350
      13 -> 21         0.27729

 Excited State  10:      Singlet-A      8.5914 eV  144.31 nm  f=0.0620  <S**2>=0.000
      11 -> 14         0.65004
      12 -> 15        -0.17866

 Excited State  11:      Singlet-A      9.0284 eV  137.33 nm  f=0.0680  <S**2>=0.000
      13 -> 19        -0.19802
      13 -> 20        -0.31225
      13 -> 21         0.58357

 Excited State  12:      Singlet-A      9.1234 eV  135.90 nm  f=0.1880  <S**2>=0.000
       8 -> 15         0.19477
      10 -> 15         0.10816
      10 -> 17        -0.15918
      11 -> 14        -0.13650
      12 -> 15        -0.36608
      12 -> 16         0.39141
      12 -> 18         0.12947
      12 -> 19        -0.11340
      12 -> 20         0.16468

 Excited State  13:      Singlet-A      9.4283 eV  131.50 nm  f=0.0033  <S**2>=0.000
       7 -> 16         0.10263
      11 -> 15         0.57204
      11 -> 16         0.29148
      11 -> 17        -0.11210
      12 -> 15        -0.11357
      13 -> 16         0.13039

 Excited State  14:      Singlet-A      9.6120 eV  128.99 nm  f=0.0727  <S**2>=0.000
       8 -> 16        -0.10692
       9 -> 16        -0.10084
      11 -> 14        -0.13949
      11 -> 15        -0.28409
      11 -> 16         0.38122
      12 -> 15        -0.31412
      12 -> 16        -0.25964

 Excited State  15:      Singlet-A      9.6385 eV  128.63 nm  f=0.0565  <S**2>=0.000
      11 -> 14         0.11988
      11 -> 15        -0.14275
      11 -> 16         0.44656
      12 -> 15         0.33000
      12 -> 16         0.24818
      12 -> 19        -0.10301

 The electronic state is 1-A.
 Alpha  occ. eigenvalues --   -1.89794  -1.21876  -0.97239  -0.81540  -0.79951
 Alpha  occ. eigenvalues --   -0.67974  -0.62127  -0.52023  -0.51624  -0.43415
 Alpha  occ. eigenvalues --   -0.41125  -0.39315  -0.26427
 Alpha virt. eigenvalues --    0.13686   0.17524   0.18390   0.26328   0.28325
 Alpha virt. eigenvalues --    0.29289   0.30512   0.31288   0.35623   0.45273
 Alpha virt. eigenvalues --    0.48775

 Mulliken charges:
               1
     1  C   -0.103231
     2  C   -1.902659
     3  O    3.164381
     4  C   -1.920058
     5  C   -0.155999
     6  H    0.174205
     7  H    0.287978
     8  H    0.289834
     9  H    0.165548
 Sum of Mulliken charges =   0.00000

 Dipole moment (field-independent basis, Debye):
    X=              5.5814    Y=             -9.7028    Z=             -0.2690  Tot=             11.1968
 N-N= 1.035447005782D+02 E-N=-1.688584702726D+02  KE=-1.569885388339D+01
 Orbital energies and kinetic energies (alpha):
                                 1                 2
   1         O                -1.897936         -1.355762
   2         O                -1.218763         -1.114627
   3         O                -0.972386         -0.912104
   4         O                -0.815402         -0.645945
   5         O                -0.799507         -0.671199
   6         O                -0.679744         -0.593164
   7         O                -0.621269         -0.511147

 Normal termination of Gaussian 09 at Tue Dec 15 17:07:01 2015.
