 Gaussian 09, Revision D.01,
 Gaussian 09:  ES64L-G09RevD.01 24-Apr-2013

 ------------------------------------------------------------
 #P AM1(Input,print) CIS(Singlets,NStates=15) pop(full) force
 ------------------------------------------------------------

 -----------------
 AM1-Reparam Input
 -----------------
 Symbolic Z-matrix:
 Charge =  0 Multiplicity = 1

                         Standard orientation:
 ---------------------------------------------------------------------
 Center     Atomic      Atomic             Coordinates (Angstroms)
 Number     Number       Type             X           Y           Z
 ---------------------------------------------------------------------
      1          6           0       -0.923480    0.800700    0.007144
      2          6           0       -1.009410   -0.554554   -0.002617
      3          8           0        0.229269   -1.121560    0.003120
      4          6           0        1.170285   -0.149929    0.002709
      5          6           0        0.523621    1.086046   -0.008737
      6          1           0        0.971874    2.054273    0.038401
      7          1           0        2.139677   -0.461506   -0.026468
      8          1           0       -1.856605   -1.193391    0.002057
      9          1           0       -1.655201    1.479529   -0.029949
 ---------------------------------------------------------------------

 SCF Done:  E(RAM1) =   2.60668674444     A.U. after   13 cycles

 Excitation energies and oscillator strengths:

 Excited State   1:      Singlet-A      4.9579 eV  250.07 nm  f=0.3753  <S**2>=0.000
      13 -> 14         0.69971
 This state for optimization and/or second-order correction.
 Total Energy, E(CIS) =   2.78888622850
 Copying the excited state density for this state as the 1-particle RhoCI density.

 Excited State   2:      Singlet-A      6.2343 eV  198.88 nm  f=0.0001  <S**2>=0.000
      13 -> 15         0.64674
      13 -> 16        -0.13092
      13 -> 17         0.18220
      13 -> 19         0.12030

 Excited State   3:      Singlet-A      6.4093 eV  193.44 nm  f=0.0001  <S**2>=0.000
      12 -> 14         0.69383

 Excited State   4:      Singlet-A      6.6018 eV  187.80 nm  f=0.0058  <S**2>=0.000
      13 -> 15         0.13303
      13 -> 16         0.66737
      13 -> 18         0.11890

 Excited State   5:      Singlet-A      7.5082 eV  165.13 nm  f=0.0046  <S**2>=0.000
      10 -> 14         0.69929

 Excited State   6:      Singlet-A      7.7761 eV  159.44 nm  f=0.0000  <S**2>=0.000
      13 -> 15        -0.15789
      13 -> 17         0.66288
      13 -> 21         0.11171

 Excited State   7:      Singlet-A      8.3242 eV  148.94 nm  f=0.1386  <S**2>=0.000
      11 -> 14         0.70045

 Excited State   8:      Singlet-A      9.3706 eV  132.31 nm  f=0.0787  <S**2>=0.000
       9 -> 15        -0.10722
      10 -> 16        -0.18694
      10 -> 18        -0.14464
      12 -> 15         0.51278
      12 -> 17         0.34924

 Excited State   9:      Singlet-A      9.4503 eV  131.20 nm  f=0.0075  <S**2>=0.000
       7 -> 16         0.13441
      11 -> 15        -0.33184
      11 -> 16         0.16543
      13 -> 18         0.57785

 Excited State  10:      Singlet-A      9.6164 eV  128.93 nm  f=0.0008  <S**2>=0.000
       7 -> 15         0.12603
      11 -> 15        -0.13146
      11 -> 16        -0.30000
      13 -> 19         0.60095

 Excited State  11:      Singlet-A      9.9565 eV  124.53 nm  f=0.1614  <S**2>=0.000
      10 -> 15         0.11533
      10 -> 16        -0.33638
      10 -> 18        -0.13399
      12 -> 15        -0.21326
      12 -> 16         0.46199
      12 -> 17         0.19865
      12 -> 18         0.11391
      12 -> 19        -0.10205

 Excited State  12:      Singlet-A     10.0536 eV  123.32 nm  f=0.1151  <S**2>=0.000
      10 -> 15         0.32731
      10 -> 16         0.20264
      12 -> 15         0.33724
      12 -> 16         0.35854
      12 -> 17        -0.22113

 Excited State  13:      Singlet-A     10.3165 eV  120.18 nm  f=0.0000  <S**2>=0.000
       9 -> 14         0.53345
      11 -> 16         0.36396
      13 -> 19         0.16685

 Excited State  14:      Singlet-A     10.4038 eV  119.17 nm  f=0.0018  <S**2>=0.000
       7 -> 16        -0.10803
      11 -> 15         0.52833
      11 -> 16        -0.17780
      13 -> 16        -0.13946
      13 -> 18         0.36023
      13 -> 20         0.10224

 Excited State  15:      Singlet-A     10.4645 eV  118.48 nm  f=0.0002  <S**2>=0.000
       9 -> 14         0.43337
      11 -> 15        -0.17381
      11 -> 16        -0.40400
      13 -> 15         0.12068
      13 -> 19        -0.28205

 The electronic state is 1-A.
 Alpha  occ. eigenvalues --   -1.84938  -1.11422  -0.88745  -0.80323  -0.75414
 Alpha  occ. eigenvalues --   -0.67703  -0.63211  -0.57250  -0.55403  -0.46660
 Alpha  occ. eigenvalues --   -0.45614  -0.43397  -0.30540
 Alpha virt. eigenvalues --    0.07229   0.16570   0.17363   0.24510   0.28153
 Alpha virt. eigenvalues --    0.29264   0.35023   0.38806   0.48377   0.55573
 Alpha virt. eigenvalues --    0.60369

 Mulliken charges:
               1
     1  C   -0.156953
     2  C   -2.006694
     3  O    3.437583
     4  C   -1.999658
     5  C   -0.188194
     6  H    0.192022
     7  H    0.260367
     8  H    0.282271
     9  H    0.179256
 Sum of Mulliken charges =   0.00000

 Dipole moment (field-independent basis, Debye):
    X=              1.8562    Y=            -10.7816    Z=              0.0141  Tot=             10.9402
 N-N= 1.039038486744D+02 E-N=-1.692154748886D+02  KE=-1.436642772504D+01
 Orbital energies and kinetic energies (alpha):
                                 1                 2
   1         O                -1.849377         -1.247552
   2         O                -1.114220         -0.955028
   3         O                -0.887453         -0.783357
   4         O                -0.803232         -0.552196
   5         O                -0.754144         -0.635593
   6         O                -0.677033         -0.550920
   7         O                -0.632108         -0.487277

 Normal termination of Gaussian 09 at Tue Dec 15 17:07:37 2015.
