 Gaussian 09, Revision D.01,
 Gaussian 09:  ES64L-G09RevD.01 24-Apr-2013

 ------------------------------------------------------------
 #P AM1(Input,print) CIS(Singlets,NStates=15) pop(full) force
 ------------------------------------------------------------

 -----------------
 AM1-Reparam Input
 -----------------
 Symbolic Z-matrix:
 Charge =  0 Multiplicity = 1

                         Standard orientation:
 ---------------------------------------------------------------------
 Center     Atomic      Atomic             Coordinates (Angstroms)
 Number     Number       Type             X           Y           Z
 ---------------------------------------------------------------------
      1          6           0       -0.589631    1.054575   -0.016792
      2          6           0       -1.111765   -0.243624    0.022295
      3          8           0       -0.166484   -1.104616   -0.019738
      4          6           0        1.022811   -0.500155    0.018573
      5          6           0        0.862725    0.830863    0.001271
      6          1           0        1.536019    1.614345    0.031805
      7          1           0        1.917824   -1.073725   -0.032990
      8          1           0       -2.131600   -0.546810    0.034210
      9          1           0       -1.095214    1.993169   -0.027213
 ---------------------------------------------------------------------

 SCF Done:  E(RAM1) =   2.11265411387     A.U. after   13 cycles

 Excitation energies and oscillator strengths:

 Excited State   1:      Singlet-A      5.4324 eV  228.23 nm  f=0.3751  <S**2>=0.000
      13 -> 14         0.69746
 This state for optimization and/or second-order correction.
 Total Energy, E(CIS) =   2.31229220513
 Copying the excited state density for this state as the 1-particle RhoCI density.

 Excited State   2:      Singlet-A      6.5503 eV  189.28 nm  f=0.0040  <S**2>=0.000
      13 -> 15         0.66795
      13 -> 17        -0.18248

 Excited State   3:      Singlet-A      6.8531 eV  180.92 nm  f=0.0014  <S**2>=0.000
      11 -> 16         0.10211
      13 -> 16         0.66156
      13 -> 18        -0.16430
      13 -> 19         0.10311

 Excited State   4:      Singlet-A      6.9642 eV  178.03 nm  f=0.0003  <S**2>=0.000
      12 -> 14         0.69852

 Excited State   5:      Singlet-A      8.0285 eV  154.43 nm  f=0.0000  <S**2>=0.000
      13 -> 16         0.13242
      13 -> 17        -0.22733
      13 -> 18         0.53899
      13 -> 20         0.16645
      13 -> 21        -0.29391

 Excited State   6:      Singlet-A      8.2615 eV  150.08 nm  f=0.0063  <S**2>=0.000
      10 -> 14         0.68704
      13 -> 17        -0.10381

 Excited State   7:      Singlet-A      8.7060 eV  142.41 nm  f=0.0065  <S**2>=0.000
      10 -> 14         0.13798
      13 -> 15         0.12978
      13 -> 17         0.61085
      13 -> 18         0.24655

 Excited State   8:      Singlet-A      8.9011 eV  139.29 nm  f=0.1179  <S**2>=0.000
      11 -> 14         0.68184

 Excited State   9:      Singlet-A      9.3196 eV  133.04 nm  f=0.0003  <S**2>=0.000
      13 -> 19         0.65034
      13 -> 20        -0.19661

 Excited State  10:      Singlet-A      9.5761 eV  129.47 nm  f=0.0160  <S**2>=0.000
      13 -> 18        -0.30023
      13 -> 19         0.15824
      13 -> 20         0.44177
      13 -> 21        -0.40235

 Excited State  11:      Singlet-A      9.7447 eV  127.23 nm  f=0.0797  <S**2>=0.000
       8 -> 15         0.12036
      10 -> 17         0.15320
      12 -> 15         0.39192
      12 -> 16        -0.34665
      12 -> 17        -0.15317
      12 -> 18         0.28716

 Excited State  12:      Singlet-A      9.9665 eV  124.40 nm  f=0.0840  <S**2>=0.000
      11 -> 15        -0.14517
      13 -> 18         0.10243
      13 -> 19         0.11695
      13 -> 20         0.44948
      13 -> 21         0.47392

 Excited State  13:      Singlet-A     10.0816 eV  122.98 nm  f=0.0287  <S**2>=0.000
      10 -> 15         0.15703
      11 -> 14        -0.10306
      11 -> 15         0.13066
      12 -> 15         0.46717
      12 -> 16         0.39188
      12 -> 18        -0.11178

 Excited State  14:      Singlet-A     10.2301 eV  121.20 nm  f=0.0033  <S**2>=0.000
       7 -> 15         0.10405
      11 -> 15         0.61476
      11 -> 16         0.10728
      12 -> 15        -0.12943
      13 -> 15         0.12163

 Excited State  15:      Singlet-A     10.3722 eV  119.54 nm  f=0.1508  <S**2>=0.000
       9 -> 15         0.11086
       9 -> 16        -0.11444
      10 -> 15        -0.35324
      10 -> 16        -0.15650
      10 -> 17         0.20061
      12 -> 15        -0.13032
      12 -> 16         0.38309
      12 -> 18         0.23208
      12 -> 19         0.13797
      12 -> 21        -0.10604

 The electronic state is 1-A.
 Alpha  occ. eigenvalues --   -1.96471  -1.18920  -0.94518  -0.82227  -0.78747
 Alpha  occ. eigenvalues --   -0.70302  -0.67580  -0.56965  -0.53718  -0.47030
 Alpha  occ. eigenvalues --   -0.45792  -0.42683  -0.30391
 Alpha virt. eigenvalues --    0.09826   0.16891   0.18120   0.25525   0.26374
 Alpha virt. eigenvalues --    0.28772   0.29549   0.30740   0.35386   0.42852
 Alpha virt. eigenvalues --    0.48334

 Mulliken charges:
               1
     1  C   -0.187707
     2  C   -1.932455
     3  O    3.216450
     4  C   -1.896674
     5  C   -0.097886
     6  H    0.157731
     7  H    0.282918
     8  H    0.291537
     9  H    0.166086
 Sum of Mulliken charges =   0.00000

 Dipole moment (field-independent basis, Debye):
    X=             -1.3788    Y=             -9.4479    Z=             -0.5836  Tot=              9.5658
 N-N= 1.047921222576D+02 E-N=-1.702635493756D+02  KE=-1.538850382353D+01
 Orbital energies and kinetic energies (alpha):
                                 1                 2
   1         O                -1.964714         -1.413592
   2         O                -1.189201         -1.039383
   3         O                -0.945185         -0.875280
   4         O                -0.822268         -0.571882
   5         O                -0.787473         -0.700554
   6         O                -0.703021         -0.588861
   7         O                -0.675798         -0.527511

 Normal termination of Gaussian 09 at Tue Dec 15 17:09:25 2015.
