 Gaussian 09, Revision D.01,
 Gaussian 09:  ES64L-G09RevD.01 24-Apr-2013

 -------------------------------------------------------
 #P B3LYP/3-21G CIS(Singlets,NStates=15) pop(full) force
 -------------------------------------------------------

 --------
 FuranDFT
 --------
 Symbolic Z-matrix:
 Charge =  0 Multiplicity = 1

                         Standard orientation:
 ---------------------------------------------------------------------
 Center     Atomic      Atomic             Coordinates (Angstroms)
 Number     Number       Type             X           Y           Z
 ---------------------------------------------------------------------
      1          6           0       -0.619851    1.030034    0.007988
      2          6           0       -1.102430   -0.219413   -0.030448
      3          8           0       -0.134311   -1.166405    0.029321
      4          6           0        1.027502   -0.459811   -0.018884
      5          6           0        0.840039    0.864140    0.005937
      6          1           0        1.535831    1.716008   -0.021504
      7          1           0        1.951865   -1.049190   -0.017593
      8          1           0       -2.137643   -0.600521   -0.033458
      9          1           0       -1.147130    1.975245    0.050430
 ---------------------------------------------------------------------

 SCF Done:  E(RB3LYP) =  -228.744324415     A.U. after   14 cycles

 Excitation energies and oscillator strengths:

 Excited State   1:      Singlet-A      7.3508 eV  168.67 nm  f=0.0081  <S**2>=0.000
      17 -> 19         0.50036
      18 -> 19         0.13569
      18 -> 20        -0.47085
 This state for optimization and/or second-order correction.
 Total Energy, E(CIS) =  -228.474187990
 Copying the excited state density for this state as the 1-particle RhoCI density.

 Excited State   2:      Singlet-A      7.4149 eV  167.21 nm  f=0.2017  <S**2>=0.000
      17 -> 19        -0.10275
      18 -> 19         0.67267

 Excited State   3:      Singlet-A      8.6032 eV  144.11 nm  f=0.0020  <S**2>=0.000
      18 -> 21         0.69628

 Excited State   4:      Singlet-A      9.1690 eV  135.22 nm  f=0.0127  <S**2>=0.000
      16 -> 19         0.68722

 Excited State   5:      Singlet-A      9.3755 eV  132.24 nm  f=0.0270  <S**2>=0.000
      17 -> 20        -0.31639
      17 -> 21         0.12378
      18 -> 22         0.58564
      18 -> 23        -0.14025

 Excited State   6:      Singlet-A      9.4105 eV  131.75 nm  f=0.0799  <S**2>=0.000
      17 -> 20         0.57662
      17 -> 21        -0.10542
      18 -> 22         0.35056

 Excited State   7:      Singlet-A      9.5467 eV  129.87 nm  f=0.0087  <S**2>=0.000
      15 -> 19        -0.15351
      17 -> 20        -0.14324
      17 -> 21        -0.31728
      18 -> 22         0.12478
      18 -> 23         0.56315

 Excited State   8:      Singlet-A      9.7704 eV  126.90 nm  f=0.0389  <S**2>=0.000
      15 -> 19         0.53563
      17 -> 19         0.11476
      17 -> 21        -0.38884
      18 -> 20         0.13169
      18 -> 23        -0.11385

 Excited State   9:      Singlet-A      9.8528 eV  125.84 nm  f=0.0239  <S**2>=0.000
      15 -> 19         0.35777
      16 -> 19        -0.11387
      17 -> 21         0.45438
      18 -> 23         0.34413

 Excited State  10:      Singlet-A      9.9441 eV  124.68 nm  f=0.4881  <S**2>=0.000
      13 -> 25         0.10062
      15 -> 19        -0.22117
      17 -> 19         0.40188
      18 -> 20         0.43538
      18 -> 23        -0.10754

 Excited State  11:      Singlet-A     10.4000 eV  119.22 nm  f=0.0034  <S**2>=0.000
      18 -> 24         0.68860

 Excited State  12:      Singlet-A     10.4600 eV  118.53 nm  f=0.0115  <S**2>=0.000
      17 -> 22         0.67945

 Excited State  13:      Singlet-A     10.4682 eV  118.44 nm  f=0.0022  <S**2>=0.000
      14 -> 19         0.47100
      15 -> 20        -0.10884
      16 -> 20         0.50162

 Excited State  14:      Singlet-A     10.7771 eV  115.04 nm  f=0.0013  <S**2>=0.000
      13 -> 19         0.11613
      14 -> 19         0.50403
      15 -> 20         0.20525
      16 -> 20        -0.42289

 Excited State  15:      Singlet-A     10.8276 eV  114.51 nm  f=0.0022  <S**2>=0.000
      17 -> 23         0.66692
      17 -> 24        -0.15547
      17 -> 25        -0.13475

 The electronic state is 1-A.
 Alpha  occ. eigenvalues --  -19.11681 -10.17625 -10.17586 -10.12844 -10.12570
 Alpha  occ. eigenvalues --   -1.13566  -0.80838  -0.74890  -0.60430  -0.56561
 Alpha  occ. eigenvalues --   -0.54311  -0.45293  -0.44101  -0.42229  -0.38978
 Alpha  occ. eigenvalues --   -0.36859  -0.27787  -0.23661
 Alpha virt. eigenvalues --    0.02585   0.07892   0.12632   0.14878   0.16685
 Alpha virt. eigenvalues --    0.18354   0.21207   0.23573   0.36676   0.42307
 Alpha virt. eigenvalues --    0.45855   0.68859   0.69367   0.69944   0.75075

 Mulliken charges:
               1
     1  C   -0.254976
     2  C    0.094923
     3  O   -0.484222
     4  C    0.088903
     5  C   -0.248091
     6  H    0.191025
     7  H    0.211486
     8  H    0.210397
     9  H    0.190555
 Sum of Mulliken charges =   0.00000

 Dipole moment (field-independent basis, Debye):
    X=              0.0824    Y=              0.8372    Z=             -0.0386  Tot=              0.8421
 Quadrupole moment (field-independent basis, Debye-Ang):
   XX=            -24.1012   YY=            -27.8166   ZZ=            -31.8187
   XY=             -0.4076   XZ=             -0.0640   YZ=              0.1301

 Normal termination of Gaussian 09 at Tue Dec 15 16:11:16 2015.
