 Gaussian 09, Revision D.01,
 Gaussian 09:  ES64L-G09RevD.01 24-Apr-2013

 ------------------------------------------------------------
 #P AM1(Input,print) CIS(Singlets,NStates=15) pop(full) force
 ------------------------------------------------------------

 -----------------
 AM1-Reparam Input
 -----------------
 Symbolic Z-matrix:
 Charge =  0 Multiplicity = 1

                         Standard orientation:
 ---------------------------------------------------------------------
 Center     Atomic      Atomic             Coordinates (Angstroms)
 Number     Number       Type             X           Y           Z
 ---------------------------------------------------------------------
      1          6           0       -0.947164    0.716686   -0.010814
      2          6           0       -1.014519   -0.569908    0.008926
      3          8           0        0.305405   -1.133132   -0.007615
      4          6           0        1.159974   -0.111578   -0.002272
      5          6           0        0.462598    1.147134    0.014043
      6          1           0        0.936790    2.101913   -0.021668
      7          1           0        2.235390   -0.305277    0.012470
      8          1           0       -1.786927   -1.281373    0.020675
      9          1           0       -1.793824    1.455788   -0.009853
 ---------------------------------------------------------------------

 SCF Done:  E(RAM1) =   1.69981626705     A.U. after   14 cycles

 Excitation energies and oscillator strengths:

 Excited State   1:      Singlet-A      5.1969 eV  238.57 nm  f=0.3520  <S**2>=0.000
      13 -> 14         0.69605
 This state for optimization and/or second-order correction.
 Total Energy, E(CIS) =   1.89079878894
 Copying the excited state density for this state as the 1-particle RhoCI density.

 Excited State   2:      Singlet-A      6.0138 eV  206.17 nm  f=0.0042  <S**2>=0.000
      13 -> 15         0.63544
      13 -> 17        -0.26012

 Excited State   3:      Singlet-A      6.4999 eV  190.75 nm  f=0.0013  <S**2>=0.000
      11 -> 16         0.10464
      13 -> 16         0.63349
      13 -> 20         0.26895

 Excited State   4:      Singlet-A      6.8703 eV  180.46 nm  f=0.0006  <S**2>=0.000
      12 -> 14         0.68017

 Excited State   5:      Singlet-A      7.2213 eV  171.69 nm  f=0.0003  <S**2>=0.000
      12 -> 14        -0.14645
      13 -> 15         0.14215
      13 -> 16        -0.16296
      13 -> 17         0.20975
      13 -> 18         0.28620
      13 -> 19        -0.28940
      13 -> 20         0.40141
      13 -> 21        -0.21328

 Excited State   6:      Singlet-A      7.4802 eV  165.75 nm  f=0.0156  <S**2>=0.000
      13 -> 15         0.21319
      13 -> 17         0.60680
      13 -> 20        -0.18422
      13 -> 21         0.12715

 Excited State   7:      Singlet-A      8.1566 eV  152.01 nm  f=0.0002  <S**2>=0.000
      10 -> 14         0.39314
      13 -> 16        -0.11426
      13 -> 18         0.11758
      13 -> 19         0.49032
      13 -> 20         0.24086

 Excited State   8:      Singlet-A      8.2769 eV  149.80 nm  f=0.0060  <S**2>=0.000
      10 -> 14        -0.34556
      13 -> 17        -0.10162
      13 -> 18         0.49732
      13 -> 19         0.17526
      13 -> 20        -0.10275
      13 -> 21         0.27334

 Excited State   9:      Singlet-A      8.3550 eV  148.40 nm  f=0.0001  <S**2>=0.000
      10 -> 14         0.45299
      13 -> 18         0.33567
      13 -> 19        -0.26656
      13 -> 20        -0.30667

 Excited State  10:      Singlet-A      8.6631 eV  143.12 nm  f=0.0497  <S**2>=0.000
      11 -> 14         0.63750
      12 -> 16        -0.15623
      12 -> 17        -0.12169

 Excited State  11:      Singlet-A      8.8445 eV  140.18 nm  f=0.0863  <S**2>=0.000
      13 -> 18        -0.12594
      13 -> 19        -0.24034
      13 -> 20         0.22492
      13 -> 21         0.59008

 Excited State  12:      Singlet-A      9.4275 eV  131.51 nm  f=0.1298  <S**2>=0.000
       8 -> 15         0.11055
       9 -> 15        -0.11556
      10 -> 16         0.11504
      10 -> 17        -0.17439
      10 -> 20         0.12120
      11 -> 14        -0.20213
      12 -> 15         0.34336
      12 -> 16        -0.28348
      12 -> 17        -0.20253
      12 -> 20        -0.25449
      12 -> 21         0.12317

 Excited State  13:      Singlet-A      9.6191 eV  128.89 nm  f=0.0024  <S**2>=0.000
       7 -> 15         0.14353
      11 -> 15         0.64247
      11 -> 17        -0.11107
      13 -> 15         0.12990

 Excited State  14:      Singlet-A      9.7579 eV  127.06 nm  f=0.1061  <S**2>=0.000
       9 -> 15        -0.11842
      10 -> 18        -0.10207
      11 -> 14         0.17110
      11 -> 15        -0.12301
      12 -> 15         0.41766
      12 -> 16         0.36634
      12 -> 18        -0.15174
      12 -> 19        -0.17959
      12 -> 20         0.10038

 Excited State  15:      Singlet-A      9.9618 eV  124.46 nm  f=0.3960  <S**2>=0.000
      10 -> 17        -0.13009
      10 -> 18         0.11678
      10 -> 19         0.13181
      12 -> 16         0.32116
      12 -> 17        -0.32932
      12 -> 18         0.41582
      12 -> 19         0.14851

 The electronic state is 1-A.
 Alpha  occ. eigenvalues --   -1.90142  -1.20285  -0.98725  -0.81696  -0.79911
 Alpha  occ. eigenvalues --   -0.68447  -0.62186  -0.54666  -0.51145  -0.44112
 Alpha  occ. eigenvalues --   -0.42534  -0.39718  -0.26716
 Alpha virt. eigenvalues --    0.12568   0.17947   0.19958   0.24648   0.27441
 Alpha virt. eigenvalues --    0.27978   0.28906   0.30245   0.35397   0.44315
 Alpha virt. eigenvalues --    0.48993

 Mulliken charges:
               1
     1  C   -0.039149
     2  C   -1.879846
     3  O    3.181961
     4  C   -1.981850
     5  C   -0.231709
     6  H    0.187894
     7  H    0.315492
     8  H    0.283559
     9  H    0.163647
 Sum of Mulliken charges =   0.00000

 Dipole moment (field-independent basis, Debye):
    X=              2.5993    Y=            -10.3704    Z=             -0.1474  Tot=             10.6922
 N-N= 1.032403275219D+02 E-N=-1.682051536320D+02  KE=-1.567018429673D+01
 Orbital energies and kinetic energies (alpha):
                                 1                 2
   1         O                -1.901425         -1.354360
   2         O                -1.202854         -1.088453
   3         O                -0.987251         -0.912708
   4         O                -0.816965         -0.632149
   5         O                -0.799114         -0.701811
   6         O                -0.684467         -0.575617
   7         O                -0.621858         -0.503322

 Normal termination of Gaussian 09 at Tue Dec 15 17:06:54 2015.
