 Gaussian 09, Revision D.01,
 Gaussian 09:  ES64L-G09RevD.01 24-Apr-2013

 ------------------------------------------------------------
 #P AM1(Input,print) CIS(Singlets,NStates=15) pop(full) force
 ------------------------------------------------------------

 -----------------
 AM1-Reparam Input
 -----------------
 Symbolic Z-matrix:
 Charge =  0 Multiplicity = 1

                         Standard orientation:
 ---------------------------------------------------------------------
 Center     Atomic      Atomic             Coordinates (Angstroms)
 Number     Number       Type             X           Y           Z
 ---------------------------------------------------------------------
      1          6           0        0.998752    0.679922   -0.001949
      2          6           0        0.970490   -0.617294   -0.003461
      3          8           0       -0.401906   -1.116253   -0.007436
      4          6           0       -1.112923    0.025511    0.003450
      5          6           0       -0.424883    1.084749   -0.002005
      6          1           0       -0.759060    2.137273    0.008006
      7          1           0       -2.161964   -0.160181    0.024412
      8          1           0        1.666415   -1.403271    0.051075
      9          1           0        1.881249    1.318878   -0.000214
 ---------------------------------------------------------------------

 SCF Done:  E(RAM1) =   2.68522592219     A.U. after   14 cycles

 Excitation energies and oscillator strengths:

 Excited State   1:      Singlet-A      4.6842 eV  264.69 nm  f=0.3516  <S**2>=0.000
      13 -> 14         0.69948
 This state for optimization and/or second-order correction.
 Total Energy, E(CIS) =   2.85736704188
 Copying the excited state density for this state as the 1-particle RhoCI density.

 Excited State   2:      Singlet-A      5.2498 eV  236.17 nm  f=0.0007  <S**2>=0.000
      13 -> 15         0.67890

 Excited State   3:      Singlet-A      6.1032 eV  203.15 nm  f=0.0012  <S**2>=0.000
      13 -> 16         0.66709
      13 -> 17        -0.13119

 Excited State   4:      Singlet-A      6.2106 eV  199.63 nm  f=0.0003  <S**2>=0.000
      12 -> 14         0.70063

 Excited State   5:      Singlet-A      7.2585 eV  170.81 nm  f=0.0001  <S**2>=0.000
      13 -> 16         0.13534
      13 -> 17         0.66976
      13 -> 21        -0.10957

 Excited State   6:      Singlet-A      7.4613 eV  166.17 nm  f=0.0056  <S**2>=0.000
      11 -> 14         0.69760

 Excited State   7:      Singlet-A      8.5444 eV  145.11 nm  f=0.0037  <S**2>=0.000
      10 -> 15         0.13370
      13 -> 18         0.65067
      13 -> 19         0.18882

 Excited State   8:      Singlet-A      8.6107 eV  143.99 nm  f=0.0993  <S**2>=0.000
      10 -> 14         0.64188
      12 -> 15        -0.23685

 Excited State   9:      Singlet-A      8.7135 eV  142.29 nm  f=0.1988  <S**2>=0.000
      10 -> 14         0.22339
      12 -> 15         0.56929
      12 -> 16        -0.19766
      12 -> 17         0.18787

 Excited State  10:      Singlet-A      9.0907 eV  136.39 nm  f=0.0011  <S**2>=0.000
      10 -> 16         0.18010
      13 -> 18        -0.17343
      13 -> 19         0.64284

 Excited State  11:      Singlet-A      9.3439 eV  132.69 nm  f=0.0309  <S**2>=0.000
      10 -> 14        -0.10535
      11 -> 15        -0.33110
      11 -> 16        -0.12509
      11 -> 18         0.20411
      12 -> 15        -0.22879
      12 -> 16        -0.31739
      12 -> 17         0.35595

 Excited State  12:      Singlet-A      9.7841 eV  126.72 nm  f=0.1521  <S**2>=0.000
      11 -> 16        -0.33201
      11 -> 18         0.12093
      12 -> 16         0.47291
      12 -> 17         0.31195

 Excited State  13:      Singlet-A      9.9173 eV  125.02 nm  f=0.0036  <S**2>=0.000
       7 -> 15        -0.16408
      10 -> 15         0.65455
      13 -> 18        -0.13849

 Excited State  14:      Singlet-A     10.1506 eV  122.14 nm  f=0.0157  <S**2>=0.000
       8 -> 16        -0.13801
       9 -> 15        -0.32167
      11 -> 15         0.41917
      11 -> 16        -0.12759
      11 -> 17        -0.11006
      11 -> 19        -0.18226
      12 -> 15        -0.11025
      12 -> 16        -0.21572
      12 -> 17         0.14530
      12 -> 18        -0.15178

 Excited State  15:      Singlet-A     10.4338 eV  118.83 nm  f=0.0011  <S**2>=0.000
       8 -> 14         0.23857
       9 -> 14         0.55471
      10 -> 16        -0.31168

 The electronic state is 1-A.
 Alpha  occ. eigenvalues --   -1.84569  -1.13095  -0.89173  -0.79037  -0.74789
 Alpha  occ. eigenvalues --   -0.67331  -0.63057  -0.53975  -0.53159  -0.44433
 Alpha  occ. eigenvalues --   -0.43175  -0.39553  -0.26387
 Alpha virt. eigenvalues --    0.10331   0.15977   0.19540   0.26499   0.29139
 Alpha virt. eigenvalues --    0.31362   0.38400   0.42440   0.45454   0.53875
 Alpha virt. eigenvalues --    0.56387

 Mulliken charges:
               1
     1  C   -0.138557
     2  C   -1.923111
     3  O    3.432959
     4  C   -1.955674
     5  C   -0.296008
     6  H    0.195565
     7  H    0.267728
     8  H    0.239200
     9  H    0.177898
 Sum of Mulliken charges =   0.00000

 Dipole moment (field-independent basis, Debye):
    X=             -4.7134    Y=            -12.0318    Z=              0.0275  Tot=             12.9221
 N-N= 1.041013244171D+02 E-N=-1.698159524321D+02  KE=-1.438159044953D+01
 Orbital energies and kinetic energies (alpha):
                                 1                 2
   1         O                -1.845695         -1.222624
   2         O                -1.130949         -0.976966
   3         O                -0.891726         -0.821105
   4         O                -0.790366         -0.524765
   5         O                -0.747894         -0.626763
   6         O                -0.673312         -0.519816
   7         O                -0.630571         -0.499444

 Normal termination of Gaussian 09 at Tue Dec 15 17:07:49 2015.
