 Gaussian 09, Revision D.01,
 Gaussian 09:  ES64L-G09RevD.01 24-Apr-2013

 ------------------------------------------------------------
 #P AM1(Input,print) CIS(Singlets,NStates=15) pop(full) force
 ------------------------------------------------------------

 -----------------
 AM1-Reparam Input
 -----------------
 Symbolic Z-matrix:
 Charge =  0 Multiplicity = 1

                         Standard orientation:
 ---------------------------------------------------------------------
 Center     Atomic      Atomic             Coordinates (Angstroms)
 Number     Number       Type             X           Y           Z
 ---------------------------------------------------------------------
      1          6           0       -0.937434    0.729833   -0.021719
      2          6           0       -0.962978   -0.593631    0.027571
      3          8           0        0.283689   -1.138888   -0.009341
      4          6           0        1.131678   -0.042859    0.014813
      5          6           0        0.467148    1.095240   -0.003600
      6          1           0        0.883264    2.063284    0.038627
      7          1           0        2.221465   -0.377353   -0.046116
      8          1           0       -1.789787   -1.219029   -0.025289
      9          1           0       -1.774941    1.512701    0.005117
 ---------------------------------------------------------------------

 SCF Done:  E(RAM1) =   2.57570561969     A.U. after   13 cycles

 Excitation energies and oscillator strengths:

 Excited State   1:      Singlet-A      5.1909 eV  238.85 nm  f=0.3513  <S**2>=0.000
      13 -> 14         0.69695
 This state for optimization and/or second-order correction.
 Total Energy, E(CIS) =   2.76646936594
 Copying the excited state density for this state as the 1-particle RhoCI density.

 Excited State   2:      Singlet-A      5.9063 eV  209.92 nm  f=0.0001  <S**2>=0.000
      10 -> 15        -0.10509
      13 -> 15         0.67275
      13 -> 17        -0.11065
      13 -> 19        -0.11323

 Excited State   3:      Singlet-A      6.2622 eV  197.99 nm  f=0.0021  <S**2>=0.000
      13 -> 16         0.66724
      13 -> 18        -0.13340

 Excited State   4:      Singlet-A      6.6868 eV  185.42 nm  f=0.0003  <S**2>=0.000
      12 -> 14         0.69882

 Excited State   5:      Singlet-A      7.5484 eV  164.25 nm  f=0.0011  <S**2>=0.000
      13 -> 15         0.11201
      13 -> 17         0.50182
      13 -> 18        -0.36828
      13 -> 19         0.11509
      13 -> 20         0.13144
      13 -> 21        -0.22870

 Excited State   6:      Singlet-A      7.8769 eV  157.40 nm  f=0.0088  <S**2>=0.000
      10 -> 14         0.16941
      11 -> 14         0.54198
      13 -> 17         0.21294
      13 -> 18         0.31160
      13 -> 21         0.10251

 Excited State   7:      Singlet-A      8.0667 eV  153.70 nm  f=0.0014  <S**2>=0.000
      10 -> 14        -0.11219
      11 -> 14        -0.39003
      13 -> 16         0.10412
      13 -> 17         0.39762
      13 -> 18         0.37286
      13 -> 21         0.11366

 Excited State   8:      Singlet-A      8.6171 eV  143.88 nm  f=0.0034  <S**2>=0.000
      13 -> 18         0.15379
      13 -> 19         0.66581

 Excited State   9:      Singlet-A      8.8097 eV  140.74 nm  f=0.0622  <S**2>=0.000
       8 -> 15         0.12940
      10 -> 14         0.56647
      11 -> 14        -0.17117
      12 -> 15         0.31974

 Excited State  10:      Singlet-A      9.0424 eV  137.11 nm  f=0.1194  <S**2>=0.000
       8 -> 15         0.10396
       8 -> 16         0.10684
      10 -> 14        -0.27969
      11 -> 17        -0.13073
      12 -> 15         0.44129
      12 -> 16        -0.28770
      12 -> 17        -0.15466
      12 -> 18         0.16993

 Excited State  11:      Singlet-A      9.2634 eV  133.84 nm  f=0.0232  <S**2>=0.000
      13 -> 18        -0.27039
      13 -> 20        -0.41663
      13 -> 21         0.45993

 Excited State  12:      Singlet-A      9.5284 eV  130.12 nm  f=0.0870  <S**2>=0.000
       9 -> 15         0.12008
      10 -> 14        -0.17158
      11 -> 15        -0.29240
      11 -> 17         0.18853
      12 -> 15         0.32841
      12 -> 16         0.34753
      12 -> 18        -0.24080

 Excited State  13:      Singlet-A      9.7025 eV  127.79 nm  f=0.0857  <S**2>=0.000
      13 -> 20         0.52349
      13 -> 21         0.44462

 Excited State  14:      Singlet-A      9.7992 eV  126.52 nm  f=0.1037  <S**2>=0.000
      10 -> 15        -0.13353
      11 -> 15         0.13611
      11 -> 16         0.24818
      11 -> 17        -0.16462
      11 -> 18        -0.12489
      12 -> 16         0.46402
      12 -> 17        -0.22385
      12 -> 18         0.17253
      12 -> 20        -0.10594

 Excited State  15:      Singlet-A      9.8415 eV  125.98 nm  f=0.0266  <S**2>=0.000
       7 -> 15         0.12717
      10 -> 15         0.61043
      11 -> 15        -0.14348
      13 -> 15         0.13212

 The electronic state is 1-A.
 Alpha  occ. eigenvalues --   -1.73512  -1.15948  -0.95319  -0.80448  -0.76054
 Alpha  occ. eigenvalues --   -0.67017  -0.64318  -0.53733  -0.49829  -0.43683
 Alpha  occ. eigenvalues --   -0.43261  -0.39333  -0.27178
 Alpha virt. eigenvalues --    0.12228   0.16617   0.18913   0.26112   0.27886
 Alpha virt. eigenvalues --    0.29929   0.31981   0.33384   0.38659   0.48382
 Alpha virt. eigenvalues --    0.52064

 Mulliken charges:
               1
     1  C   -0.093641
     2  C   -1.916798
     3  O    3.216774
     4  C   -1.875153
     5  C   -0.062068
     6  H    0.112655
     7  H    0.236833
     8  H    0.265902
     9  H    0.115496
 Sum of Mulliken charges =   0.00000

 Dipole moment (field-independent basis, Debye):
    X=              2.6855    Y=            -10.8968    Z=             -0.5659  Tot=             11.2371
 N-N= 1.037725443833D+02 E-N=-1.687753493629D+02  KE=-1.502567004505D+01
 Orbital energies and kinetic energies (alpha):
                                 1                 2
   1         O                -1.735118         -1.230155
   2         O                -1.159476         -1.015467
   3         O                -0.953194         -0.876387
   4         O                -0.804480         -0.604240
   5         O                -0.760540         -0.686511
   6         O                -0.670170         -0.559711
   7         O                -0.643181         -0.527635

 Normal termination of Gaussian 09 at Tue Dec 15 17:06:28 2015.
