 Gaussian 09, Revision D.01,
 Gaussian 09:  ES64L-G09RevD.01 24-Apr-2013

 -------------------------------------------------------
 #P B3LYP/3-21G CIS(Singlets,NStates=15) pop(full) force
 -------------------------------------------------------

 --------
 FuranDFT
 --------
 Symbolic Z-matrix:
 Charge =  0 Multiplicity = 1

                         Standard orientation:
 ---------------------------------------------------------------------
 Center     Atomic      Atomic             Coordinates (Angstroms)
 Number     Number       Type             X           Y           Z
 ---------------------------------------------------------------------
      1          6           0        0.675878    0.981242   -0.020475
      2          6           0        1.064960   -0.289038    0.002296
      3          8           0        0.104754   -1.110560   -0.010340
      4          6           0       -1.089262   -0.452070    0.017828
      5          6           0       -0.756986    0.920529   -0.005822
      6          1           0       -1.513018    1.690538    0.009793
      7          1           0       -1.987048   -0.944526   -0.002989
      8          1           0        2.122285   -0.706192    0.045864
      9          1           0        1.172203    1.880684    0.067091
 ---------------------------------------------------------------------

 SCF Done:  E(RB3LYP) =  -228.725574592     A.U. after   15 cycles

 Excitation energies and oscillator strengths:

 Excited State   1:      Singlet-A      7.2165 eV  171.81 nm  f=0.0629  <S**2>=0.000
      17 -> 19         0.44617
      18 -> 19         0.36715
      18 -> 20         0.38599
 This state for optimization and/or second-order correction.
 Total Energy, E(CIS) =  -228.460372380
 Copying the excited state density for this state as the 1-particle RhoCI density.

 Excited State   2:      Singlet-A      7.5492 eV  164.24 nm  f=0.1785  <S**2>=0.000
      17 -> 19        -0.23538
      18 -> 19         0.57162
      18 -> 20        -0.30279

 Excited State   3:      Singlet-A      8.6847 eV  142.76 nm  f=0.0040  <S**2>=0.000
      16 -> 19         0.56238
      18 -> 21        -0.41523

 Excited State   4:      Singlet-A      8.7587 eV  141.56 nm  f=0.0017  <S**2>=0.000
      16 -> 19         0.41674
      18 -> 21         0.56131

 Excited State   5:      Singlet-A      9.2093 eV  134.63 nm  f=0.0135  <S**2>=0.000
      18 -> 22         0.67935

 Excited State   6:      Singlet-A      9.4300 eV  131.48 nm  f=0.2988  <S**2>=0.000
      17 -> 19         0.34012
      17 -> 20         0.46960
      18 -> 20        -0.31486
      18 -> 22         0.13467

 Excited State   7:      Singlet-A      9.8632 eV  125.70 nm  f=0.0199  <S**2>=0.000
      17 -> 20         0.12296
      17 -> 21         0.59916
      18 -> 23        -0.29098

 Excited State   8:      Singlet-A      9.9242 eV  124.93 nm  f=0.4026  <S**2>=0.000
      17 -> 19        -0.27504
      17 -> 20         0.45821
      17 -> 21        -0.17730
      18 -> 20         0.33279

 Excited State   9:      Singlet-A     10.0494 eV  123.37 nm  f=0.0002  <S**2>=0.000
      15 -> 19         0.30126
      16 -> 20         0.12584
      17 -> 21         0.25597
      18 -> 23         0.55822

 Excited State  10:      Singlet-A     10.1730 eV  121.88 nm  f=0.0133  <S**2>=0.000
      14 -> 19         0.22051
      15 -> 19         0.44478
      16 -> 20         0.35857
      17 -> 21        -0.17272
      18 -> 23        -0.26735

 Excited State  11:      Singlet-A     10.1979 eV  121.58 nm  f=0.0083  <S**2>=0.000
      14 -> 19         0.29727
      15 -> 19        -0.43779
      16 -> 20         0.44307
      18 -> 23         0.11284

 Excited State  12:      Singlet-A     10.4607 eV  118.52 nm  f=0.0152  <S**2>=0.000
      17 -> 22         0.67200
      18 -> 24         0.14296

 Excited State  13:      Singlet-A     10.5794 eV  117.19 nm  f=0.0027  <S**2>=0.000
      14 -> 19         0.14020
      16 -> 20        -0.14479
      17 -> 22        -0.13273
      18 -> 24         0.62775
      18 -> 25         0.17668

 Excited State  14:      Singlet-A     10.6355 eV  116.58 nm  f=0.0009  <S**2>=0.000
      14 -> 19         0.56561
      16 -> 20        -0.35111
      18 -> 24        -0.20006

 Excited State  15:      Singlet-A     10.9721 eV  113.00 nm  f=0.0072  <S**2>=0.000
      18 -> 24        -0.16812
      18 -> 25         0.66795

 The electronic state is 1-A.
 Alpha  occ. eigenvalues --  -19.12076 -10.17782 -10.17153 -10.12684 -10.11223
 Alpha  occ. eigenvalues --   -1.16635  -0.80270  -0.76263  -0.61100  -0.57191
 Alpha  occ. eigenvalues --   -0.55096  -0.47080  -0.46249  -0.41442  -0.40150
 Alpha  occ. eigenvalues --   -0.35148  -0.27544  -0.23032
 Alpha virt. eigenvalues --    0.02716   0.08207   0.13208   0.15627   0.18276
 Alpha virt. eigenvalues --    0.19833   0.22006   0.25242   0.35693   0.41777
 Alpha virt. eigenvalues --    0.49514   0.69603   0.69785   0.71681   0.74909

 Mulliken charges:
               1
     1  C   -0.280590
     2  C    0.183767
     3  O   -0.507858
     4  C    0.054729
     5  C   -0.250276
     6  H    0.185558
     7  H    0.220766
     8  H    0.206644
     9  H    0.187260
 Sum of Mulliken charges =   0.00000

 Dipole moment (field-independent basis, Debye):
    X=             -0.1465    Y=              0.4988    Z=              0.1176  Tot=              0.5330
 Quadrupole moment (field-independent basis, Debye-Ang):
   XX=            -23.8152   YY=            -28.0098   ZZ=            -31.6818
   XY=              0.2801   XZ=              0.2200   YZ=              0.1614

 Normal termination of Gaussian 09 at Tue Dec 15 16:30:32 2015.
