 Gaussian 09, Revision D.01,
 Gaussian 09:  ES64L-G09RevD.01 24-Apr-2013

 ------------------------------------------------------------
 #P AM1(Input,print) CIS(Singlets,NStates=15) pop(full) force
 ------------------------------------------------------------

 -----------------
 AM1-Reparam Input
 -----------------
 Symbolic Z-matrix:
 Charge =  0 Multiplicity = 1

                         Standard orientation:
 ---------------------------------------------------------------------
 Center     Atomic      Atomic             Coordinates (Angstroms)
 Number     Number       Type             X           Y           Z
 ---------------------------------------------------------------------
      1          6           0       -0.942754    0.721818   -0.008713
      2          6           0       -1.013396   -0.617276   -0.014587
      3          8           0        0.338747   -1.090956    0.005008
      4          6           0        1.173161   -0.066625    0.004058
      5          6           0        0.431732    1.096270   -0.017886
      6          1           0        0.818183    2.137040    0.053337
      7          1           0        2.240727   -0.294566    0.014654
      8          1           0       -1.820827   -1.306558    0.045322
      9          1           0       -1.840517    1.386614    0.069402
 ---------------------------------------------------------------------

 SCF Done:  E(RAM1) =   1.70990825288     A.U. after   14 cycles

 Excitation energies and oscillator strengths:

 Excited State   1:      Singlet-A      5.4333 eV  228.19 nm  f=0.3562  <S**2>=0.000
      13 -> 14         0.69321
 This state for optimization and/or second-order correction.
 Total Energy, E(CIS) =   1.90957912691
 Copying the excited state density for this state as the 1-particle RhoCI density.

 Excited State   2:      Singlet-A      7.0083 eV  176.91 nm  f=0.0031  <S**2>=0.000
      10 -> 15         0.10499
      13 -> 15         0.66914
      13 -> 17        -0.15345
      13 -> 19        -0.10546

 Excited State   3:      Singlet-A      7.0885 eV  174.91 nm  f=0.0017  <S**2>=0.000
      12 -> 14         0.70018

 Excited State   4:      Singlet-A      7.6312 eV  162.47 nm  f=0.0048  <S**2>=0.000
      11 -> 14         0.18286
      13 -> 16         0.63942
      13 -> 18        -0.11778
      13 -> 19         0.12258

 Excited State   5:      Singlet-A      7.8025 eV  158.90 nm  f=0.0045  <S**2>=0.000
      11 -> 14         0.67673
      13 -> 16        -0.18014

 Excited State   6:      Singlet-A      8.8167 eV  140.62 nm  f=0.0008  <S**2>=0.000
      13 -> 16         0.10175
      13 -> 17        -0.24851
      13 -> 18         0.56579
      13 -> 19        -0.10484
      13 -> 22        -0.26270

 Excited State   7:      Singlet-A      9.0944 eV  136.33 nm  f=0.0068  <S**2>=0.000
      13 -> 15         0.12004
      13 -> 17         0.61337
      13 -> 18         0.26837

 Excited State   8:      Singlet-A      9.4291 eV  131.49 nm  f=0.0828  <S**2>=0.000
      10 -> 14         0.65469
      12 -> 17         0.10012

 Excited State   9:      Singlet-A      9.7627 eV  127.00 nm  f=0.0015  <S**2>=0.000
      13 -> 17        -0.13369
      13 -> 18         0.15354
      13 -> 19         0.64105
      13 -> 20        -0.10333

 Excited State  10:      Singlet-A      9.9730 eV  124.32 nm  f=0.0045  <S**2>=0.000
      10 -> 14         0.13420
      11 -> 16         0.19969
      11 -> 17        -0.21439
      11 -> 18        -0.10230
      12 -> 15         0.40296
      12 -> 16        -0.16013
      12 -> 17        -0.13575
      12 -> 18         0.30480

 Excited State  11:      Singlet-A     10.2794 eV  120.61 nm  f=0.1531  <S**2>=0.000
       9 -> 15         0.10062
      10 -> 14        -0.12727
      11 -> 15        -0.40600
      11 -> 17         0.19440
      12 -> 15         0.44142
      12 -> 18        -0.15963

 Excited State  12:      Singlet-A     10.4321 eV  118.85 nm  f=0.0486  <S**2>=0.000
      13 -> 18        -0.20895
      13 -> 19         0.18278
      13 -> 20         0.47822
      13 -> 22        -0.41348

 Excited State  13:      Singlet-A     10.7233 eV  115.62 nm  f=0.2009  <S**2>=0.000
      11 -> 16         0.28026
      12 -> 16         0.59307

 Excited State  14:      Singlet-A     10.8062 eV  114.73 nm  f=0.0620  <S**2>=0.000
       9 -> 14        -0.10448
      10 -> 15         0.12252
      13 -> 18         0.13656
      13 -> 20         0.45864
      13 -> 22         0.46629

 Excited State  15:      Singlet-A     10.9773 eV  112.95 nm  f=0.1053  <S**2>=0.000
       8 -> 15        -0.11072
       9 -> 15         0.15882
      10 -> 14         0.14485
      11 -> 15        -0.26636
      11 -> 16         0.16416
      11 -> 18         0.15865
      11 -> 19         0.23321
      12 -> 15        -0.17471
      12 -> 17        -0.21214
      12 -> 19         0.10156
      12 -> 20         0.10651
      13 -> 21         0.32321

 The electronic state is 1-A.
 Alpha  occ. eigenvalues --   -1.90638  -1.16745  -0.92243  -0.81689  -0.77991
 Alpha  occ. eigenvalues --   -0.69691  -0.67388  -0.58089  -0.55374  -0.47506
 Alpha  occ. eigenvalues --   -0.44208  -0.42105  -0.30555
 Alpha virt. eigenvalues --    0.10473   0.17710   0.21173   0.26376   0.27893
 Alpha virt. eigenvalues --    0.29744   0.32284   0.33322   0.34716   0.41469
 Alpha virt. eigenvalues --    0.45995

 Mulliken charges:
               1
     1  C   -0.098314
     2  C   -2.019833
     3  O    3.313845
     4  C   -2.041192
     5  C   -0.254619
     6  H    0.219861
     7  H    0.342402
     8  H    0.331397
     9  H    0.206454
 Sum of Mulliken charges =   0.00000

 Dipole moment (field-independent basis, Debye):
    X=              3.1674    Y=             -9.9114    Z=              0.4291  Tot=             10.4141
 N-N= 1.034684587858D+02 E-N=-1.685801606664D+02  KE=-1.545250160987D+01
 Orbital energies and kinetic energies (alpha):
                                 1                 2
   1         O                -1.906380         -1.361173
   2         O                -1.167454         -1.036701
   3         O                -0.922432         -0.882773
   4         O                -0.816893         -0.571562
   5         O                -0.779908         -0.693213
   6         O                -0.696914         -0.581257
   7         O                -0.673876         -0.532011

 Normal termination of Gaussian 09 at Tue Dec 15 17:09:37 2015.
