 Gaussian 09, Revision D.01,
 Gaussian 09:  ES64L-G09RevD.01 24-Apr-2013

 -------------------------------------------------------
 #P B3LYP/3-21G CIS(Singlets,NStates=15) pop(full) force
 -------------------------------------------------------

 --------
 FuranDFT
 --------
 Symbolic Z-matrix:
 Charge =  0 Multiplicity = 1

                         Standard orientation:
 ---------------------------------------------------------------------
 Center     Atomic      Atomic             Coordinates (Angstroms)
 Number     Number       Type             X           Y           Z
 ---------------------------------------------------------------------
      1          6           0        0.559627    1.015389   -0.006607
      2          6           0        1.137285   -0.187972   -0.011430
      3          8           0        0.185658   -1.112927   -0.013445
      4          6           0       -1.030920   -0.500435    0.009945
      5          6           0       -0.857226    0.843068    0.026187
      6          1           0       -1.665486    1.532788   -0.070999
      7          1           0       -1.887181   -1.162659   -0.006423
      8          1           0        2.129413   -0.494770    0.098703
      9          1           0        1.085399    2.007760   -0.022291
 ---------------------------------------------------------------------

 SCF Done:  E(RB3LYP) =  -228.742105712     A.U. after   14 cycles

 Excitation energies and oscillator strengths:

 Excited State   1:      Singlet-A      7.3279 eV  169.19 nm  f=0.0579  <S**2>=0.000
      17 -> 19         0.43609
      18 -> 19         0.37409
      18 -> 20         0.39246
 This state for optimization and/or second-order correction.
 Total Energy, E(CIS) =  -228.472808992
 Copying the excited state density for this state as the 1-particle RhoCI density.

 Excited State   2:      Singlet-A      7.5722 eV  163.74 nm  f=0.1732  <S**2>=0.000
      17 -> 19        -0.28249
      18 -> 19         0.57124
      18 -> 20        -0.25822

 Excited State   3:      Singlet-A      8.7411 eV  141.84 nm  f=0.0020  <S**2>=0.000
      18 -> 21         0.69236

 Excited State   4:      Singlet-A      8.8134 eV  140.68 nm  f=0.0055  <S**2>=0.000
      16 -> 19         0.69795

 Excited State   5:      Singlet-A      9.5472 eV  129.86 nm  f=0.0161  <S**2>=0.000
      18 -> 22         0.67506

 Excited State   6:      Singlet-A      9.6227 eV  128.85 nm  f=0.1480  <S**2>=0.000
      17 -> 19         0.13557
      17 -> 20         0.56083
      17 -> 21         0.27039
      18 -> 20        -0.13351
      18 -> 23         0.18205

 Excited State   7:      Singlet-A      9.6954 eV  127.88 nm  f=0.1765  <S**2>=0.000
      17 -> 19        -0.20343
      17 -> 20         0.37539
      17 -> 21        -0.32291
      18 -> 20         0.24780
      18 -> 23        -0.31955
      18 -> 24         0.12128

 Excited State   8:      Singlet-A      9.9229 eV  124.95 nm  f=0.0965  <S**2>=0.000
      15 -> 19         0.45545
      17 -> 19        -0.16998
      17 -> 21        -0.12738
      18 -> 20         0.19988
      18 -> 23         0.42844

 Excited State   9:      Singlet-A      9.9567 eV  124.52 nm  f=0.2231  <S**2>=0.000
      17 -> 19        -0.26079
      17 -> 21         0.53072
      18 -> 20         0.28934
      18 -> 23        -0.13304

 Excited State  10:      Singlet-A     10.0659 eV  123.17 nm  f=0.0728  <S**2>=0.000
      15 -> 19         0.49585
      16 -> 20        -0.19728
      17 -> 19         0.14117
      18 -> 20        -0.15589
      18 -> 23        -0.36699

 Excited State  11:      Singlet-A     10.3827 eV  119.41 nm  f=0.0096  <S**2>=0.000
      16 -> 20         0.10055
      18 -> 24         0.67623

 Excited State  12:      Singlet-A     10.5000 eV  118.08 nm  f=0.0268  <S**2>=0.000
      14 -> 19        -0.34705
      15 -> 19         0.18039
      16 -> 20         0.55365
      18 -> 24        -0.10571

 Excited State  13:      Singlet-A     10.6570 eV  116.34 nm  f=0.0023  <S**2>=0.000
      17 -> 22         0.69644

 Excited State  14:      Singlet-A     10.8370 eV  114.41 nm  f=0.0008  <S**2>=0.000
      14 -> 19         0.58326
      16 -> 20         0.35976

 Excited State  15:      Singlet-A     11.1472 eV  111.22 nm  f=0.0045  <S**2>=0.000
      17 -> 23         0.65916
      17 -> 24        -0.19139

 The electronic state is 1-A.
 Alpha  occ. eigenvalues --  -19.11060 -10.17442 -10.16843 -10.12356 -10.12234
 Alpha  occ. eigenvalues --   -1.13973  -0.80544  -0.75860  -0.60649  -0.57390
 Alpha  occ. eigenvalues --   -0.53913  -0.45963  -0.45022  -0.42157  -0.39578
 Alpha  occ. eigenvalues --   -0.35675  -0.27675  -0.23497
 Alpha virt. eigenvalues --    0.02643   0.08378   0.13228   0.15793   0.17635
 Alpha virt. eigenvalues --    0.18584   0.22779   0.23606   0.36291   0.42378
 Alpha virt. eigenvalues --    0.48995   0.69039   0.69811   0.71014   0.75425

 Mulliken charges:
               1
     1  C   -0.266653
     2  C    0.125213
     3  O   -0.500452
     4  C    0.082036
     5  C   -0.248815
     6  H    0.190286
     7  H    0.217383
     8  H    0.222646
     9  H    0.178357
 Sum of Mulliken charges =   0.00000

 Dipole moment (field-independent basis, Debye):
    X=             -0.1540    Y=              0.5500    Z=              0.0027  Tot=              0.5711
 Quadrupole moment (field-independent basis, Debye-Ang):
   XX=            -23.5457   YY=            -28.1945   ZZ=            -31.6656
   XY=              0.5758   XZ=              0.4295   YZ=             -0.2447

 Normal termination of Gaussian 09 at Tue Dec 15 16:18:47 2015.
