 Gaussian 09, Revision D.01,
 Gaussian 09:  ES64L-G09RevD.01 24-Apr-2013

 ------------------------------------------------------------
 #P AM1(Input,print) CIS(Singlets,NStates=15) pop(full) force
 ------------------------------------------------------------

 -----------------
 AM1-Reparam Input
 -----------------
 Symbolic Z-matrix:
 Charge =  0 Multiplicity = 1

                         Standard orientation:
 ---------------------------------------------------------------------
 Center     Atomic      Atomic             Coordinates (Angstroms)
 Number     Number       Type             X           Y           Z
 ---------------------------------------------------------------------
      1          6           0       -0.257164    1.151475   -0.027852
      2          6           0        0.996723    0.546250   -0.011402
      3          8           0        0.909943   -0.750057    0.005757
      4          6           0       -0.485246   -1.033249   -0.014089
      5          6           0       -1.214787    0.121354    0.032600
      6          1           0       -2.271530    0.189291   -0.054279
      7          1           0       -0.693412   -2.123085    0.015739
      8          1           0        1.950343    0.986965    0.051470
      9          1           0       -0.502104    2.232304    0.065469
 ---------------------------------------------------------------------

 SCF Done:  E(RAM1) =  0.220712881955E-01 A.U. after   13 cycles

 Excitation energies and oscillator strengths:

 Excited State   1:      Singlet-A      4.2003 eV  295.18 nm  f=0.0944  <S**2>=0.000
      12 -> 15         0.16749
      13 -> 14         0.67501
 This state for optimization and/or second-order correction.
 Total Energy, E(CIS) =  0.176428389964
 Copying the excited state density for this state as the 1-particle RhoCI density.

 Excited State   2:      Singlet-A      4.6251 eV  268.07 nm  f=0.0010  <S**2>=0.000
      13 -> 16         0.68387
      13 -> 22        -0.10644

 Excited State   3:      Singlet-A      4.9054 eV  252.75 nm  f=0.0220  <S**2>=0.000
      12 -> 14        -0.35688
      13 -> 15         0.60358

 Excited State   4:      Singlet-A      5.6412 eV  219.78 nm  f=0.0005  <S**2>=0.000
      12 -> 18        -0.14766
      13 -> 17        -0.20457
      13 -> 18         0.51179
      13 -> 19        -0.10741
      13 -> 20        -0.12601
      13 -> 21        -0.12718
      13 -> 22         0.23902
      13 -> 23        -0.18323

 Excited State   5:      Singlet-A      5.9702 eV  207.67 nm  f=0.0034  <S**2>=0.000
      12 -> 16        -0.24596
      12 -> 17         0.14354
      12 -> 19        -0.12113
      12 -> 20        -0.15859
      12 -> 23         0.10183
      13 -> 17         0.35876
      13 -> 19        -0.31485
      13 -> 20        -0.23805
      13 -> 22         0.14173
      13 -> 23         0.16070

 Excited State   6:      Singlet-A      6.1754 eV  200.77 nm  f=0.0300  <S**2>=0.000
       7 -> 16        -0.16077
      12 -> 14        -0.17043
      12 -> 16         0.57673
      12 -> 22        -0.11129
      13 -> 17         0.15185
      13 -> 19        -0.11434

 Excited State   7:      Singlet-A      6.2262 eV  199.13 nm  f=0.3369  <S**2>=0.000
      12 -> 14         0.54870
      12 -> 16         0.17927
      13 -> 15         0.32073

 Excited State   8:      Singlet-A      6.3609 eV  194.91 nm  f=0.0054  <S**2>=0.000
      12 -> 15         0.14504
      13 -> 17         0.35171
      13 -> 18         0.30331
      13 -> 19         0.43856
      13 -> 20         0.12890
      13 -> 23         0.10699

 Excited State   9:      Singlet-A      6.5209 eV  190.13 nm  f=0.1251  <S**2>=0.000
      12 -> 15         0.65449
      13 -> 14        -0.15061
      13 -> 17        -0.10420

 Excited State  10:      Singlet-A      6.9659 eV  177.99 nm  f=0.0065  <S**2>=0.000
       9 -> 14         0.11646
      10 -> 14         0.46425
      10 -> 15        -0.25020
      11 -> 14        -0.38231
      11 -> 15         0.13414
      13 -> 22        -0.13266

 Excited State  11:      Singlet-A      7.0466 eV  175.95 nm  f=0.0003  <S**2>=0.000
      12 -> 17         0.15784
      12 -> 18         0.30185
      12 -> 19         0.24545
      12 -> 20         0.11270
      13 -> 17         0.16336
      13 -> 18         0.20104
      13 -> 19        -0.24171
      13 -> 20         0.17277
      13 -> 22        -0.29188
      13 -> 23        -0.16762

 Excited State  12:      Singlet-A      7.2502 eV  171.01 nm  f=0.0017  <S**2>=0.000
       9 -> 14         0.19431
      10 -> 14         0.18854
      10 -> 15         0.16052
      11 -> 14         0.37623
      11 -> 15         0.30781
      12 -> 17         0.18129
      12 -> 19        -0.12590
      12 -> 22         0.10040
      13 -> 20        -0.12400
      13 -> 22        -0.12203
      13 -> 24         0.15464

 Excited State  13:      Singlet-A      7.3088 eV  169.64 nm  f=0.0004  <S**2>=0.000
       9 -> 14        -0.17544
       9 -> 15        -0.10182
      10 -> 14        -0.19984
      11 -> 14        -0.20126
      11 -> 15        -0.12126
      12 -> 17         0.27497
      12 -> 19        -0.16193
      12 -> 22         0.15435
      13 -> 17        -0.24720
      13 -> 19         0.12159
      13 -> 20        -0.17454
      13 -> 22        -0.26528
      13 -> 24         0.15101

 Excited State  14:      Singlet-A      7.4437 eV  166.56 nm  f=0.0079  <S**2>=0.000
      11 -> 14        -0.13011
      12 -> 17         0.11093
      12 -> 18         0.11237
      12 -> 19         0.13964
      12 -> 20         0.14365
      12 -> 21        -0.20525
      12 -> 23         0.16244
      13 -> 17         0.10387
      13 -> 18        -0.12875
      13 -> 19         0.19313
      13 -> 20        -0.21086
      13 -> 21         0.26650
      13 -> 22         0.28124
      13 -> 23        -0.25772

 Excited State  15:      Singlet-A      7.6519 eV  162.03 nm  f=0.0003  <S**2>=0.000
      10 -> 15        -0.14632
      11 -> 15        -0.19661
      12 -> 17        -0.17619
      12 -> 18         0.22007
      12 -> 19        -0.24437
      12 -> 20        -0.15603
      12 -> 21         0.11189
      13 -> 21         0.28778
      13 -> 22         0.11226
      13 -> 23        -0.18142
      13 -> 24         0.28587

 The electronic state is 1-A.
 Alpha  occ. eigenvalues --   -1.57084  -1.24566  -1.08302  -0.82097  -0.81852
 Alpha  occ. eigenvalues --   -0.68380  -0.60622  -0.56358  -0.52111  -0.49809
 Alpha  occ. eigenvalues --   -0.49046  -0.39841  -0.33765
 Alpha virt. eigenvalues --    0.02820   0.06339   0.09484   0.14015   0.14564
 Alpha virt. eigenvalues --    0.15346   0.18009   0.18291   0.18773   0.20761
 Alpha virt. eigenvalues --    0.22284

 Mulliken charges:
               1
     1  C   -0.248433
     2  C   -0.080671
     3  O   -0.063332
     4  C   -0.144805
     5  C   -0.155590
     6  H    0.162487
     7  H    0.190366
     8  H    0.180159
     9  H    0.159819
 Sum of Mulliken charges =   0.00000

 Dipole moment (field-independent basis, Debye):
    X=             -0.2814    Y=              0.1713    Z=              0.1191  Tot=              0.3503
 N-N= 1.033574293031D+02 E-N=-1.708495689984D+02  KE=-1.654448296039D+01
 Orbital energies and kinetic energies (alpha):
                                 1                 2
   1         O                -1.570839         -1.312394
   2         O                -1.245656         -1.061600
   3         O                -1.083024         -0.947088
   4         O                -0.820972         -0.701939
   5         O                -0.818519         -0.727084
   6         O                -0.683800         -0.600794
   7         O                -0.606222         -0.488266

 Normal termination of Gaussian 09 at Tue Dec 15 16:25:41 2015.
