 Gaussian 09, Revision D.01,
 Gaussian 09:  ES64L-G09RevD.01 24-Apr-2013

 ------------------------------------------------------------
 #P AM1(Input,print) CIS(Singlets,NStates=15) pop(full) force
 ------------------------------------------------------------

 -----------------
 AM1-Reparam Input
 -----------------
 Symbolic Z-matrix:
 Charge =  0 Multiplicity = 1

                         Standard orientation:
 ---------------------------------------------------------------------
 Center     Atomic      Atomic             Coordinates (Angstroms)
 Number     Number       Type             X           Y           Z
 ---------------------------------------------------------------------
      1          6           0        1.041420    0.649805   -0.038434
      2          6           0        0.885524   -0.662698    0.043344
      3          8           0       -0.430291   -1.099748   -0.015550
      4          6           0       -1.099306    0.047668   -0.016891
      5          6           0       -0.381449    1.131555    0.027832
      6          1           0       -0.679998    2.150430    0.006740
      7          1           0       -2.171500   -0.081625    0.031763
      8          1           0        1.677080   -1.468754   -0.000150
      9          1           0        1.939605    1.199960   -0.009059
 ---------------------------------------------------------------------

 SCF Done:  E(RAM1) =   1.90215753904     A.U. after   14 cycles

 Excitation energies and oscillator strengths:

 Excited State   1:      Singlet-A      5.2942 eV  234.19 nm  f=0.3323  <S**2>=0.000
      13 -> 14         0.69352
 This state for optimization and/or second-order correction.
 Total Energy, E(CIS) =   2.09671415124
 Copying the excited state density for this state as the 1-particle RhoCI density.

 Excited State   2:      Singlet-A      5.6706 eV  218.64 nm  f=0.0005  <S**2>=0.000
      13 -> 15         0.68102
      13 -> 18         0.10941

 Excited State   3:      Singlet-A      5.9915 eV  206.93 nm  f=0.0009  <S**2>=0.000
      13 -> 16         0.67644
      13 -> 17         0.12623

 Excited State   4:      Singlet-A      6.3827 eV  194.25 nm  f=0.0013  <S**2>=0.000
      12 -> 14         0.70259

 Excited State   5:      Singlet-A      7.6392 eV  162.30 nm  f=0.0006  <S**2>=0.000
      13 -> 17        -0.23551
      13 -> 18         0.59300
      13 -> 19        -0.10589
      13 -> 21        -0.14814
      13 -> 22         0.17866

 Excited State   6:      Singlet-A      7.8335 eV  158.27 nm  f=0.0137  <S**2>=0.000
      11 -> 14         0.50082
      13 -> 17        -0.43826
      13 -> 18        -0.19015

 Excited State   7:      Singlet-A      8.0093 eV  154.80 nm  f=0.0048  <S**2>=0.000
      11 -> 14         0.48519
      13 -> 17         0.47316
      13 -> 18         0.13129

 Excited State   8:      Singlet-A      8.4452 eV  146.81 nm  f=0.1872  <S**2>=0.000
       8 -> 15         0.11280
       8 -> 16         0.13048
      11 -> 17         0.12232
      12 -> 15         0.56823
      12 -> 16        -0.23181
      12 -> 18         0.20821

 Excited State   9:      Singlet-A      8.6069 eV  144.05 nm  f=0.0010  <S**2>=0.000
      13 -> 18         0.11778
      13 -> 19         0.67155

 Excited State  10:      Singlet-A      8.7228 eV  142.14 nm  f=0.0200  <S**2>=0.000
       8 -> 15        -0.10987
       8 -> 16         0.12283
      10 -> 14         0.49068
      12 -> 15        -0.15182
      12 -> 16        -0.38353
      13 -> 19        -0.10255

 Excited State  11:      Singlet-A      9.1863 eV  134.97 nm  f=0.0647  <S**2>=0.000
       9 -> 15        -0.11896
      10 -> 14         0.38301
      11 -> 15        -0.19810
      12 -> 15         0.29955
      12 -> 16         0.36109
      12 -> 17         0.16992

 Excited State  12:      Singlet-A      9.4525 eV  131.17 nm  f=0.0254  <S**2>=0.000
      13 -> 18        -0.22707
      13 -> 20         0.25566
      13 -> 21        -0.37112
      13 -> 22         0.43740

 Excited State  13:      Singlet-A      9.4929 eV  130.61 nm  f=0.1105  <S**2>=0.000
       9 -> 15         0.15055
      10 -> 14         0.17590
      11 -> 15         0.20495
      11 -> 16         0.16973
      11 -> 17         0.21436
      12 -> 16         0.28406
      12 -> 17        -0.12780
      12 -> 18         0.32040
      13 -> 20         0.12903
      13 -> 22        -0.16046

 Excited State  14:      Singlet-A      9.6110 eV  129.00 nm  f=0.0774  <S**2>=0.000
      10 -> 15         0.35257
      13 -> 20         0.53879
      13 -> 22        -0.11523

 Excited State  15:      Singlet-A      9.7412 eV  127.28 nm  f=0.0279  <S**2>=0.000
       8 -> 15         0.11333
       9 -> 15         0.13203
       9 -> 16         0.13833
      10 -> 14         0.10884
      10 -> 15         0.37988
      11 -> 15         0.33390
      11 -> 16        -0.18929
      11 -> 19        -0.13263
      12 -> 17        -0.12505
      12 -> 18        -0.17699
      13 -> 20        -0.14744
      13 -> 22         0.11248

 The electronic state is 1-A.
 Alpha  occ. eigenvalues --   -1.94505  -1.21508  -0.98417  -0.81251  -0.78969
 Alpha  occ. eigenvalues --   -0.68940  -0.67327  -0.49567  -0.48153  -0.41822
 Alpha  occ. eigenvalues --   -0.41160  -0.35961  -0.25077
 Alpha virt. eigenvalues --    0.14459   0.17980   0.19190   0.28810   0.29682
 Alpha virt. eigenvalues --    0.31654   0.34215   0.36246   0.36388   0.45879
 Alpha virt. eigenvalues --    0.49077

 Mulliken charges:
               1
     1  C   -0.090134
     2  C   -1.872238
     3  O    3.099198
     4  C   -1.868706
     5  C   -0.143459
     6  H    0.145839
     7  H    0.295036
     8  H    0.292006
     9  H    0.142458
 Sum of Mulliken charges =   0.00000

 Dipole moment (field-independent basis, Debye):
    X=             -4.1259    Y=            -10.4603    Z=             -0.3764  Tot=             11.2509
 N-N= 1.043656068849D+02 E-N=-1.702007643092D+02  KE=-1.567299350854D+01
 Orbital energies and kinetic energies (alpha):
                                 1                 2
   1         O                -1.945048         -1.417552
   2         O                -1.215085         -1.092204
   3         O                -0.984169         -0.921028
   4         O                -0.812509         -0.622826
   5         O                -0.789688         -0.677267
   6         O                -0.689400         -0.575629
   7         O                -0.673270         -0.571806

 Normal termination of Gaussian 09 at Tue Dec 15 17:10:01 2015.
