 Gaussian 09, Revision D.01,
 Gaussian 09:  ES64L-G09RevD.01 24-Apr-2013

 ------------------------------------------------------------
 #P AM1(Input,print) CIS(Singlets,NStates=15) pop(full) force
 ------------------------------------------------------------

 -----------------
 AM1-Reparam Input
 -----------------
 Symbolic Z-matrix:
 Charge =  0 Multiplicity = 1

                         Standard orientation:
 ---------------------------------------------------------------------
 Center     Atomic      Atomic             Coordinates (Angstroms)
 Number     Number       Type             X           Y           Z
 ---------------------------------------------------------------------
      1          6           0        0.906798    0.776835   -0.013504
      2          6           0        1.034385   -0.574751    0.020855
      3          8           0       -0.305036   -1.109669   -0.002194
      4          6           0       -1.147473   -0.105361   -0.002074
      5          6           0       -0.458687    1.060529   -0.015200
      6          1           0       -0.909003    2.133576    0.071905
      7          1           0       -2.221451   -0.316488    0.014679
      8          1           0        1.834847   -1.276483   -0.028184
      9          1           0        1.725766    1.393239    0.018693
 ---------------------------------------------------------------------

 SCF Done:  E(RAM1) =  -6.70981851889     A.U. after   14 cycles

 Excitation energies and oscillator strengths:

 Excited State   1:      Singlet-A      6.0139 eV  206.16 nm  f=0.0015  <S**2>=0.000
      13 -> 14         0.69609
 This state for optimization and/or second-order correction.
 Total Energy, E(CIS) =  -6.48881137193
 Copying the excited state density for this state as the 1-particle RhoCI density.

 Excited State   2:      Singlet-A      7.0676 eV  175.43 nm  f=0.1478  <S**2>=0.000
      10 -> 16        -0.11543
      13 -> 15         0.65027
      13 -> 16         0.17291

 Excited State   3:      Singlet-A      7.2795 eV  170.32 nm  f=0.1446  <S**2>=0.000
      10 -> 15         0.13409
      11 -> 15         0.10689
      13 -> 15        -0.16676
      13 -> 16         0.63920

 Excited State   4:      Singlet-A      8.3107 eV  149.19 nm  f=0.0029  <S**2>=0.000
      12 -> 15         0.47032
      12 -> 16        -0.42696
      13 -> 17         0.15880
      13 -> 18         0.14477

 Excited State   5:      Singlet-A      8.6716 eV  142.98 nm  f=0.0042  <S**2>=0.000
      10 -> 14         0.35399
      11 -> 14         0.26680
      12 -> 14        -0.13612
      12 -> 15        -0.14753
      12 -> 16         0.15934
      13 -> 17         0.32451
      13 -> 18         0.27312
      13 -> 20         0.10940
      13 -> 21        -0.11270

 Excited State   6:      Singlet-A      8.7532 eV  141.64 nm  f=0.0059  <S**2>=0.000
      10 -> 14        -0.33152
      11 -> 14        -0.24706
      11 -> 15        -0.10871
      12 -> 14         0.26358
      12 -> 15        -0.12335
      13 -> 17         0.37403
      13 -> 18         0.17710
      13 -> 19         0.10788

 Excited State   7:      Singlet-A      8.7588 eV  141.55 nm  f=0.0040  <S**2>=0.000
      10 -> 14        -0.15515
      10 -> 15        -0.31451
      10 -> 16         0.13469
      11 -> 15         0.41605
      11 -> 16        -0.20633
      12 -> 15         0.11788
      12 -> 16         0.27908
      13 -> 17         0.10047

 Excited State   8:      Singlet-A      8.8536 eV  140.04 nm  f=0.0301  <S**2>=0.000
       9 -> 14        -0.10440
      10 -> 16         0.14672
      11 -> 14         0.26804
      12 -> 14         0.55742
      12 -> 16         0.10991
      13 -> 17        -0.10341

 Excited State   9:      Singlet-A      8.9734 eV  138.17 nm  f=0.0045  <S**2>=0.000
      11 -> 15        -0.10781
      13 -> 18        -0.41635
      13 -> 19         0.51673
      13 -> 20         0.12211

 Excited State  10:      Singlet-A      9.1093 eV  136.11 nm  f=0.0346  <S**2>=0.000
      13 -> 17        -0.35197
      13 -> 18         0.36880
      13 -> 19         0.41910
      13 -> 20        -0.10660
      13 -> 22        -0.13491

 Excited State  11:      Singlet-A      9.3150 eV  133.10 nm  f=0.0137  <S**2>=0.000
      10 -> 15         0.12715
      10 -> 16        -0.17379
      11 -> 15        -0.11857
      11 -> 16         0.20669
      12 -> 15         0.42699
      12 -> 16         0.42397

 Excited State  12:      Singlet-A      9.6699 eV  128.22 nm  f=0.0405  <S**2>=0.000
       9 -> 14        -0.17045
      10 -> 14        -0.24087
      10 -> 15         0.25559
      10 -> 16         0.29665
      11 -> 14         0.19864
      11 -> 15         0.20703
      11 -> 16         0.33014
      12 -> 14        -0.16584

 Excited State  13:      Singlet-A      9.7051 eV  127.75 nm  f=0.0643  <S**2>=0.000
       9 -> 14         0.13846
      10 -> 14        -0.32479
      10 -> 15        -0.20872
      11 -> 14         0.36151
      11 -> 15        -0.20635
      12 -> 17         0.19712
      12 -> 18         0.14276
      13 -> 16         0.11201

 Excited State  14:      Singlet-A     10.2490 eV  120.97 nm  f=0.0156  <S**2>=0.000
      10 -> 15        -0.33036
      10 -> 16        -0.24786
      11 -> 15         0.16902
      11 -> 16         0.47503
      12 -> 15        -0.12429

 Excited State  15:      Singlet-A     10.2794 eV  120.61 nm  f=0.1751  <S**2>=0.000
       9 -> 14        -0.18875
      10 -> 15         0.18240
      11 -> 15         0.15319
      12 -> 17         0.38464
      12 -> 18         0.35563
      12 -> 19         0.12339
      12 -> 20         0.18373

 The electronic state is 1-A.
 Alpha  occ. eigenvalues --   -3.93095  -1.27227  -0.98313  -0.95667  -0.90385
 Alpha  occ. eigenvalues --   -0.89567  -0.77943  -0.62564  -0.61055  -0.52118
 Alpha  occ. eigenvalues --   -0.51807  -0.49910  -0.40586
 Alpha virt. eigenvalues --    0.08007   0.08466   0.09021   0.16598   0.17459
 Alpha virt. eigenvalues --    0.19882   0.22353   0.24562   0.25149   0.29303
 Alpha virt. eigenvalues --    0.30046

 Mulliken charges:
               1
     1  C   -0.111279
     2  C   -1.384109
     3  O    2.240608
     4  C   -1.363084
     5  C   -0.244496
     6  H    0.180949
     7  H    0.265844
     8  H    0.248737
     9  H    0.166831
 Sum of Mulliken charges =   0.00000

 Dipole moment (field-independent basis, Debye):
    X=             -2.4929    Y=             -7.2602    Z=             -0.0595  Tot=              7.6765
 N-N= 1.036959254533D+02 E-N=-1.694097637303D+02  KE=-2.559698033153D+01
 Orbital energies and kinetic energies (alpha):
                                 1                 2
   1         O                -3.930953         -3.299787
   2         O                -1.272274         -1.269978
   3         O                -0.983127         -1.059633
   4         O                -0.956675         -1.008400
   5         O                -0.903846         -0.885075
   6         O                -0.895666         -0.922770
   7         O                -0.779434         -0.831346

 Normal termination of Gaussian 09 at Fri Dec 11 13:41:28 2015.
