 Gaussian 09, Revision D.01,
 Gaussian 09:  ES64L-G09RevD.01 24-Apr-2013

 ------------------------------------------------------------
 #P AM1(Input,print) CIS(Singlets,NStates=15) pop(full) force
 ------------------------------------------------------------

 -----------------
 AM1-Reparam Input
 -----------------
 Symbolic Z-matrix:
 Charge =  0 Multiplicity = 1

                         Standard orientation:
 ---------------------------------------------------------------------
 Center     Atomic      Atomic             Coordinates (Angstroms)
 Number     Number       Type             X           Y           Z
 ---------------------------------------------------------------------
      1          6           0        0.742803    0.936896   -0.010631
      2          6           0        1.121547   -0.390514   -0.001570
      3          8           0       -0.036720   -1.126727   -0.003046
      4          6           0       -1.137069   -0.293390   -0.004775
      5          6           0       -0.695913    0.939560    0.009100
      6          1           0       -1.292563    1.819857   -0.003905
      7          1           0       -2.080019   -0.819037    0.021126
      8          1           0        2.038956   -0.905150    0.038451
      9          1           0        1.439177    1.762834    0.015956
 ---------------------------------------------------------------------

 SCF Done:  E(RAM1) =   2.53928530098     A.U. after   13 cycles

 Excitation energies and oscillator strengths:

 Excited State   1:      Singlet-A      5.2399 eV  236.62 nm  f=0.3511  <S**2>=0.000
      13 -> 14         0.69564
 This state for optimization and/or second-order correction.
 Total Energy, E(CIS) =   2.73184769982
 Copying the excited state density for this state as the 1-particle RhoCI density.

 Excited State   2:      Singlet-A      6.4449 eV  192.38 nm  f=0.0026  <S**2>=0.000
      10 -> 15         0.10738
      13 -> 15         0.63895
      13 -> 16         0.18263
      13 -> 17        -0.16932

 Excited State   3:      Singlet-A      6.5572 eV  189.08 nm  f=0.0021  <S**2>=0.000
      13 -> 15        -0.18378
      13 -> 16         0.62691
      13 -> 17        -0.13868
      13 -> 18        -0.11129
      13 -> 19        -0.15596

 Excited State   4:      Singlet-A      6.7990 eV  182.36 nm  f=0.0002  <S**2>=0.000
       9 -> 14        -0.11668
      12 -> 14         0.69452

 Excited State   5:      Singlet-A      7.7288 eV  160.42 nm  f=0.0000  <S**2>=0.000
      11 -> 14        -0.10274
      13 -> 16         0.11505
      13 -> 18         0.60356
      13 -> 20        -0.16064
      13 -> 21         0.24566

 Excited State   6:      Singlet-A      7.7944 eV  159.07 nm  f=0.0061  <S**2>=0.000
      11 -> 14         0.68129
      13 -> 18         0.11461

 Excited State   7:      Singlet-A      8.2310 eV  150.63 nm  f=0.0086  <S**2>=0.000
      10 -> 16        -0.10588
      11 -> 14         0.13208
      13 -> 15         0.12658
      13 -> 16         0.12494
      13 -> 17         0.64280

 Excited State   8:      Singlet-A      8.8238 eV  140.51 nm  f=0.0821  <S**2>=0.000
      10 -> 14         0.67168
      12 -> 15        -0.13670

 Excited State   9:      Singlet-A      8.8679 eV  139.81 nm  f=0.0003  <S**2>=0.000
      13 -> 16         0.12073
      13 -> 19         0.65504

 Excited State  10:      Singlet-A      9.4309 eV  131.47 nm  f=0.0535  <S**2>=0.000
       8 -> 15        -0.10547
      10 -> 14         0.14126
      11 -> 16        -0.11013
      11 -> 17         0.21380
      12 -> 15         0.39252
      12 -> 16        -0.28778
      12 -> 18         0.32008

 Excited State  11:      Singlet-A      9.4619 eV  131.04 nm  f=0.0046  <S**2>=0.000
      13 -> 18        -0.28797
      13 -> 19        -0.12697
      13 -> 20        -0.40720
      13 -> 21         0.46391

 Excited State  12:      Singlet-A      9.6207 eV  128.87 nm  f=0.1055  <S**2>=0.000
       9 -> 15         0.14446
      11 -> 15         0.26026
      11 -> 17        -0.18162
      12 -> 15         0.50025
      12 -> 16         0.12727
      12 -> 17        -0.14034
      12 -> 18        -0.19693

 Excited State  13:      Singlet-A      9.8529 eV  125.84 nm  f=0.1013  <S**2>=0.000
      13 -> 20         0.52952
      13 -> 21         0.43361

 Excited State  14:      Singlet-A      9.9273 eV  124.89 nm  f=0.1135  <S**2>=0.000
       9 -> 16         0.10090
      11 -> 16        -0.38150
      11 -> 17         0.13505
      12 -> 16         0.49931
      12 -> 17        -0.10023
      12 -> 18         0.12839

 Excited State  15:      Singlet-A      9.9795 eV  124.24 nm  f=0.0035  <S**2>=0.000
       9 -> 14         0.67194
      12 -> 14         0.11241
      13 -> 21         0.10979

 The electronic state is 1-A.
 Alpha  occ. eigenvalues --   -1.73926  -1.15585  -0.96661  -0.81316  -0.76828
 Alpha  occ. eigenvalues --   -0.67428  -0.64616  -0.56822  -0.50751  -0.44708
 Alpha  occ. eigenvalues --   -0.44254  -0.40946  -0.28970
 Alpha virt. eigenvalues --    0.10713   0.17547   0.18684   0.25020   0.26869
 Alpha virt. eigenvalues --    0.28555   0.30737   0.31517   0.38358   0.47080
 Alpha virt. eigenvalues --    0.52611

 Mulliken charges:
               1
     1  C   -0.102946
     2  C   -1.941181
     3  O    3.243482
     4  C   -1.897262
     5  C   -0.070809
     6  H    0.126798
     7  H    0.251607
     8  H    0.261014
     9  H    0.129297
 Sum of Mulliken charges =   0.00000

 Dipole moment (field-independent basis, Debye):
    X=             -0.5742    Y=            -10.3949    Z=              0.1311  Tot=             10.4116
 N-N= 1.037443401481D+02 E-N=-1.685166864949D+02  KE=-1.503717328270D+01
 Orbital energies and kinetic energies (alpha):
                                 1                 2
   1         O                -1.739261         -1.230899
   2         O                -1.155849         -0.998615
   3         O                -0.966608         -0.870994
   4         O                -0.813161         -0.619874
   5         O                -0.768284         -0.691636
   6         O                -0.674285         -0.571307
   7         O                -0.646162         -0.522173

 Normal termination of Gaussian 09 at Tue Dec 15 17:06:18 2015.
