 Gaussian 09, Revision D.01,
 Gaussian 09:  ES64L-G09RevD.01 24-Apr-2013

 -------------------------------------------------------
 #P B3LYP/3-21G CIS(Singlets,NStates=15) pop(full) force
 -------------------------------------------------------

 --------
 FuranDFT
 --------
 Symbolic Z-matrix:
 Charge =  0 Multiplicity = 1

                         Standard orientation:
 ---------------------------------------------------------------------
 Center     Atomic      Atomic             Coordinates (Angstroms)
 Number     Number       Type             X           Y           Z
 ---------------------------------------------------------------------
      1          6           0       -0.948388    0.813173   -0.020257
      2          6           0       -0.985423   -0.618480   -0.014085
      3          8           0        0.261296   -1.072863    0.015507
      4          6           0        1.185691   -0.120481   -0.012115
      5          6           0        0.485941    1.046557    0.028516
      6          1           0        0.912059    2.022266   -0.028832
      7          1           0        2.133718   -0.338212   -0.046274
      8          1           0       -1.858493   -1.254421    0.018396
      9          1           0       -1.704583    1.428654    0.040298
 ---------------------------------------------------------------------

 SCF Done:  E(RB3LYP) =  -228.717799200     A.U. after   14 cycles

 Excitation energies and oscillator strengths:

 Excited State   1:      Singlet-A      6.9584 eV  178.18 nm  f=0.0070  <S**2>=0.000
      17 -> 19         0.50726
      18 -> 19         0.14501
      18 -> 20         0.46250
 This state for optimization and/or second-order correction.
 Total Energy, E(CIS) =  -228.462082711
 Copying the excited state density for this state as the 1-particle RhoCI density.

 Excited State   2:      Singlet-A      7.3767 eV  168.08 nm  f=0.2369  <S**2>=0.000
      18 -> 19         0.66361
      18 -> 20        -0.11799

 Excited State   3:      Singlet-A      8.3534 eV  148.42 nm  f=0.0069  <S**2>=0.000
      16 -> 19         0.69914

 Excited State   4:      Singlet-A      9.0577 eV  136.88 nm  f=0.0007  <S**2>=0.000
      18 -> 21         0.67088
      18 -> 22        -0.18363

 Excited State   5:      Singlet-A      9.1480 eV  135.53 nm  f=0.2999  <S**2>=0.000
      17 -> 19         0.28498
      17 -> 20         0.51355
      18 -> 20        -0.30811

 Excited State   6:      Singlet-A      9.3524 eV  132.57 nm  f=0.0088  <S**2>=0.000
      17 -> 20        -0.11296
      18 -> 21         0.18699
      18 -> 22         0.65822

 Excited State   7:      Singlet-A      9.4716 eV  130.90 nm  f=0.2257  <S**2>=0.000
      15 -> 19         0.42360
      16 -> 20        -0.19500
      17 -> 19        -0.23530
      17 -> 20         0.34795
      18 -> 20         0.26387

 Excited State   8:      Singlet-A      9.5400 eV  129.96 nm  f=0.2109  <S**2>=0.000
      15 -> 19         0.47674
      16 -> 20        -0.19952
      17 -> 19         0.23923
      17 -> 20        -0.24378
      18 -> 20        -0.26513
      18 -> 22        -0.11667

 Excited State   9:      Singlet-A      9.9321 eV  124.83 nm  f=0.0071  <S**2>=0.000
      15 -> 19         0.27565
      16 -> 20         0.61891
      18 -> 23         0.12305

 Excited State  10:      Singlet-A     10.1242 eV  122.46 nm  f=0.0015  <S**2>=0.000
      17 -> 21         0.67703
      18 -> 23         0.13649

 Excited State  11:      Singlet-A     10.2973 eV  120.40 nm  f=0.0033  <S**2>=0.000
      17 -> 21        -0.12293
      17 -> 22         0.45865
      18 -> 23         0.47845
      18 -> 24        -0.14803

 Excited State  12:      Singlet-A     10.4223 eV  118.96 nm  f=0.0008  <S**2>=0.000
      17 -> 21         0.10278
      17 -> 22         0.50297
      18 -> 23        -0.46020

 Excited State  13:      Singlet-A     10.6634 eV  116.27 nm  f=0.0060  <S**2>=0.000
      17 -> 22         0.14550
      18 -> 24         0.65120
      18 -> 25        -0.14035

 Excited State  14:      Singlet-A     10.7525 eV  115.31 nm  f=0.0043  <S**2>=0.000
      15 -> 20         0.68177
      18 -> 24        -0.11245

 Excited State  15:      Singlet-A     10.9770 eV  112.95 nm  f=0.0014  <S**2>=0.000
      14 -> 19         0.67934

 The electronic state is 1-A.
 Alpha  occ. eigenvalues --  -19.11605 -10.18264 -10.16572 -10.12021 -10.11887
 Alpha  occ. eigenvalues --   -1.14663  -0.78809  -0.76550  -0.61136  -0.58445
 Alpha  occ. eigenvalues --   -0.54571  -0.47788  -0.45928  -0.43490  -0.38495
 Alpha  occ. eigenvalues --   -0.34512  -0.26843  -0.22925
 Alpha virt. eigenvalues --    0.02221   0.07192   0.14495   0.16285   0.19503
 Alpha virt. eigenvalues --    0.20416   0.22342   0.24179   0.34634   0.40464
 Alpha virt. eigenvalues --    0.47816   0.69227   0.69487   0.69976   0.74738

 Mulliken charges:
               1
     1  C   -0.258268
     2  C    0.114121
     3  O   -0.516986
     4  C    0.117683
     5  C   -0.262642
     6  H    0.177564
     7  H    0.226705
     8  H    0.220782
     9  H    0.181041
 Sum of Mulliken charges =   0.00000

 Dipole moment (field-independent basis, Debye):
    X=             -0.1414    Y=              0.3885    Z=             -0.0191  Tot=              0.4138
 Quadrupole moment (field-independent basis, Debye-Ang):
   XX=            -23.3704   YY=            -28.0618   ZZ=            -31.6781
   XY=              0.7654   XZ=             -0.3161   YZ=              0.0014

 Normal termination of Gaussian 09 at Tue Dec 15 16:20:34 2015.
