 Gaussian 09, Revision D.01,
 Gaussian 09:  ES64L-G09RevD.01 24-Apr-2013

 ------------------------------------------------------------
 #P AM1(Input,print) CIS(Singlets,NStates=15) pop(full) force
 ------------------------------------------------------------

 -----------------
 AM1-Reparam Input
 -----------------
 Symbolic Z-matrix:
 Charge =  0 Multiplicity = 1

                         Standard orientation:
 ---------------------------------------------------------------------
 Center     Atomic      Atomic             Coordinates (Angstroms)
 Number     Number       Type             X           Y           Z
 ---------------------------------------------------------------------
      1          6           0       -1.130919    0.287243   -0.029313
      2          6           0       -0.637332   -0.884118    0.006210
      3          8           0        0.735099   -0.927321   -0.005206
      4          6           0        1.033423    0.377811   -0.009964
      5          6           0       -0.047682    1.198774    0.038390
      6          1           0        0.041450    2.270713   -0.035986
      7          1           0        2.146735    0.537052   -0.008008
      8          1           0       -1.150029   -1.903191    0.061767
      9          1           0       -2.223890    0.635741   -0.008065
 ---------------------------------------------------------------------

 SCF Done:  E(RAM1) =   1.43046670987     A.U. after   13 cycles

 Excitation energies and oscillator strengths:

 Excited State   1:      Singlet-A      5.8153 eV  213.20 nm  f=0.0236  <S**2>=0.000
      13 -> 14        -0.27082
      13 -> 15         0.61205
      13 -> 16         0.12503
      13 -> 17        -0.10437
 This state for optimization and/or second-order correction.
 Total Energy, E(CIS) =   1.64417471621
 Copying the excited state density for this state as the 1-particle RhoCI density.

 Excited State   2:      Singlet-A      5.8780 eV  210.93 nm  f=0.0144  <S**2>=0.000
      13 -> 14        -0.17634
      13 -> 15        -0.19606
      13 -> 16         0.62569

 Excited State   3:      Singlet-A      6.0365 eV  205.39 nm  f=0.2630  <S**2>=0.000
      13 -> 14         0.61305
      13 -> 15         0.21654
      13 -> 16         0.23709

 Excited State   4:      Singlet-A      7.3899 eV  167.77 nm  f=0.0052  <S**2>=0.000
      12 -> 14        -0.14500
      13 -> 15         0.11583
      13 -> 17         0.64799
      13 -> 19         0.10954

 Excited State   5:      Singlet-A      7.4505 eV  166.41 nm  f=0.0007  <S**2>=0.000
      11 -> 14        -0.36387
      12 -> 14         0.55815
      13 -> 17         0.14801
      13 -> 22         0.11572

 Excited State   6:      Singlet-A      7.9960 eV  155.06 nm  f=0.0036  <S**2>=0.000
      13 -> 19         0.53957
      13 -> 21        -0.15490
      13 -> 22        -0.39510

 Excited State   7:      Singlet-A      8.3696 eV  148.14 nm  f=0.0045  <S**2>=0.000
      11 -> 14         0.35043
      11 -> 15         0.13960
      12 -> 14         0.25603
      13 -> 18         0.44974
      13 -> 19        -0.11987
      13 -> 20        -0.14884
      13 -> 21        -0.13216
      13 -> 22        -0.10236

 Excited State   8:      Singlet-A      8.4166 eV  147.31 nm  f=0.0025  <S**2>=0.000
      10 -> 14        -0.11410
      11 -> 14         0.21046
      11 -> 15        -0.14181
      12 -> 15        -0.21301
      13 -> 17        -0.16447
      13 -> 18         0.14531
      13 -> 19         0.32066
      13 -> 20         0.28865
      13 -> 21         0.28471
      13 -> 22         0.21267

 Excited State   9:      Singlet-A      8.4515 eV  146.70 nm  f=0.0007  <S**2>=0.000
      10 -> 14         0.66730
      13 -> 20         0.13608

 Excited State  10:      Singlet-A      8.7485 eV  141.72 nm  f=0.0060  <S**2>=0.000
      11 -> 15         0.38433
      11 -> 16        -0.14684
      12 -> 15         0.37620
      12 -> 16        -0.20302
      13 -> 15         0.11542
      13 -> 16        -0.12370
      13 -> 20         0.19104
      13 -> 21         0.23336

 Excited State  11:      Singlet-A      8.8446 eV  140.18 nm  f=0.0199  <S**2>=0.000
      10 -> 14        -0.13426
      11 -> 16         0.12025
      12 -> 16         0.27119
      13 -> 19        -0.23676
      13 -> 20         0.44373
      13 -> 22        -0.33981

 Excited State  12:      Singlet-A      8.9317 eV  138.81 nm  f=0.0540  <S**2>=0.000
       9 -> 15        -0.11300
      11 -> 15         0.13318
      12 -> 15         0.18797
      12 -> 16         0.46897
      13 -> 18         0.18051
      13 -> 19         0.10655
      13 -> 22         0.31186

 Excited State  13:      Singlet-A      9.1591 eV  135.37 nm  f=0.1110  <S**2>=0.000
       9 -> 15         0.17034
      11 -> 15         0.10577
      11 -> 16         0.50511
      12 -> 16        -0.10061
      12 -> 17        -0.11142
      13 -> 18        -0.15244
      13 -> 20         0.11179
      13 -> 21        -0.22734
      13 -> 22         0.16495

 Excited State  14:      Singlet-A      9.2947 eV  133.39 nm  f=0.0373  <S**2>=0.000
      11 -> 16         0.29465
      12 -> 16         0.11011
      13 -> 20        -0.30568
      13 -> 21         0.49084
      13 -> 22        -0.14878

 Excited State  15:      Singlet-A      9.3016 eV  133.29 nm  f=0.1842  <S**2>=0.000
       9 -> 15         0.16425
      10 -> 16         0.10100
      11 -> 14        -0.32355
      11 -> 15        -0.18615
      12 -> 14        -0.23449
      12 -> 16        -0.17566
      13 -> 18         0.42773

 The electronic state is 1-A.
 Alpha  occ. eigenvalues --   -1.89982  -1.21138  -0.95057  -0.78696  -0.76630
 Alpha  occ. eigenvalues --   -0.67055  -0.62999  -0.47776  -0.47153  -0.39343
 Alpha  occ. eigenvalues --   -0.36943  -0.36024  -0.23532
 Alpha virt. eigenvalues --    0.19050   0.20295   0.20893   0.28927   0.30676
 Alpha virt. eigenvalues --    0.31409   0.34400   0.35437   0.37230   0.41651
 Alpha virt. eigenvalues --    0.45685

 Mulliken charges:
               1
     1  C   -0.015213
     2  C   -1.493097
     3  O    2.744517
     4  C   -1.514912
     5  C   -0.103376
     6  H    0.059939
     7  H    0.134617
     8  H    0.142510
     9  H    0.045015
 Sum of Mulliken charges =   0.00000

 Dipole moment (field-independent basis, Debye):
    X=              6.1453    Y=             -8.2057    Z=             -0.0200  Tot=             10.2518
 N-N= 1.039947303308D+02 E-N=-1.707948457578D+02  KE=-1.588711368827D+01
 Orbital energies and kinetic energies (alpha):
                                 1                 2
   1         O                -1.899821         -1.396346
   2         O                -1.211382         -1.097517
   3         O                -0.950575         -0.886251
   4         O                -0.786955         -0.620145
   5         O                -0.766296         -0.682249
   6         O                -0.670552         -0.621756
   7         O                -0.629989         -0.557834

 Normal termination of Gaussian 09 at Tue Dec 15 17:07:53 2015.
