 Gaussian 09, Revision D.01,
 Gaussian 09:  ES64L-G09RevD.01 24-Apr-2013

 ---------------------------------------------------------
 #P B3LYP/cc-pVTZ CIS(Singlets,NStates=15) pop(full) force
 ---------------------------------------------------------

 --------
 FuranDFT
 --------
 Symbolic Z-matrix:
 Charge =  0 Multiplicity = 1

                         Standard orientation:
 ---------------------------------------------------------------------
 Center     Atomic      Atomic             Coordinates (Angstroms)
 Number     Number       Type             X           Y           Z
 ---------------------------------------------------------------------
      1          6           0        0.000000    0.715963   -0.955475
      2          6           0        0.000000    1.092818    0.345627
      3          8           0        0.000000    0.000000    1.157305
      4          6           0        0.000000   -1.092818    0.345627
      5          6           0        0.000000   -0.715963   -0.955475
      6          1           0        0.000000   -1.369382   -1.810438
      7          1           0        0.000000   -2.046884    0.840307
      8          1           0        0.000000    2.046884    0.840307
      9          1           0        0.000000    1.369382   -1.810438
 ---------------------------------------------------------------------

 SCF Done:  E(RB3LYP) =  -230.108741516     A.U. after   12 cycles

 Excitation energies and oscillator strengths:

 Excited State   1:      Singlet-B2     6.7064 eV  184.88 nm  f=0.2290  <S**2>=0.000
      18 -> 19         0.68481
 This state for optimization and/or second-order correction.
 Total Energy, E(CIS) =  -229.862286983
 Copying the excited state density for this state as the 1-particle RhoCI density.

 Excited State   2:      Singlet-A1     6.8617 eV  180.69 nm  f=0.0000  <S**2>=0.000
      17 -> 19         0.50946
      18 -> 21        -0.48432

 Excited State   3:      Singlet-A2     6.9193 eV  179.19 nm  f=0.0000  <S**2>=0.000
      18 -> 20         0.70418

 Excited State   4:      Singlet-B1     7.5571 eV  164.06 nm  f=0.0175  <S**2>=0.000
      17 -> 20         0.10449
      18 -> 22         0.69812

 Excited State   5:      Singlet-A2     7.7602 eV  159.77 nm  f=0.0000  <S**2>=0.000
      18 -> 23         0.70447

 Excited State   6:      Singlet-B1     8.0985 eV  153.10 nm  f=0.0009  <S**2>=0.000
      17 -> 20         0.16358
      18 -> 24         0.68180

 Excited State   7:      Singlet-B1     8.2724 eV  149.88 nm  f=0.0036  <S**2>=0.000
      17 -> 20         0.67554
      18 -> 22        -0.10416
      18 -> 24        -0.16633

 Excited State   8:      Singlet-A2     8.7217 eV  142.16 nm  f=0.0000  <S**2>=0.000
      18 -> 25         0.70083

 Excited State   9:      Singlet-B1     8.7778 eV  141.25 nm  f=0.0011  <S**2>=0.000
      16 -> 19         0.69796

 Excited State  10:      Singlet-A2     8.9763 eV  138.12 nm  f=0.0000  <S**2>=0.000
      17 -> 22         0.70082

 Excited State  11:      Singlet-A1     9.0032 eV  137.71 nm  f=0.6075  <S**2>=0.000
      15 -> 25         0.10751
      17 -> 19         0.45147
      18 -> 21         0.48352

 Excited State  12:      Singlet-B2     9.0188 eV  137.47 nm  f=0.1721  <S**2>=0.000
      17 -> 21         0.68449

 Excited State  13:      Singlet-B1     9.0735 eV  136.64 nm  f=0.0033  <S**2>=0.000
      17 -> 23         0.69549

 Excited State  14:      Singlet-A2     9.4452 eV  131.27 nm  f=0.0000  <S**2>=0.000
      17 -> 24         0.69652

 Excited State  15:      Singlet-B1     9.5480 eV  129.85 nm  f=0.0016  <S**2>=0.000
      15 -> 19         0.65920
      18 -> 26        -0.23543

 The electronic state is 1-A1.
 Alpha  occ. eigenvalues --  -19.19723 -10.22368 -10.22365 -10.17557 -10.17514
 Alpha  occ. eigenvalues --   -1.11322  -0.80311  -0.74823  -0.60202  -0.57299
 Alpha  occ. eigenvalues --   -0.54584  -0.45449  -0.44887  -0.41536  -0.40198
 Alpha  occ. eigenvalues --   -0.37742  -0.28582  -0.23649
 Alpha virt. eigenvalues --    0.00308   0.05594   0.05898   0.07852   0.08380
 Alpha virt. eigenvalues --    0.09621   0.13212   0.16805   0.21046   0.24231
 Alpha virt. eigenvalues --    0.26345   0.27295   0.31202   0.32362   0.35042

 Mulliken charges:
               1
     1  C   -0.155880
     2  C   -0.011748
     3  O   -0.161038
     4  C   -0.011748
     5  C   -0.155880
     6  H    0.119489
     7  H    0.128658
     8  H    0.128658
     9  H    0.119489
 Sum of Mulliken charges =   0.00000

 Dipole moment (field-independent basis, Debye):
    X=              0.0000    Y=              0.0000    Z=             -0.6075  Tot=              0.6075
 Quadrupole moment (field-independent basis, Debye-Ang):
   XX=            -31.8149   YY=            -24.3107   ZZ=            -28.1098
   XY=              0.0000   XZ=              0.0000   YZ=              0.0000

 Normal termination of Gaussian 09 at Tue Oct  6 11:29:19 2015.
