 Gaussian 09, Revision D.01,
 Gaussian 09:  ES64L-G09RevD.01 24-Apr-2013

 ------------------------------------------------------------
 #P AM1(Input,print) CIS(Singlets,NStates=15) pop(full) force
 ------------------------------------------------------------

 -----------------
 AM1-Reparam Input
 -----------------
 Symbolic Z-matrix:
 Charge =  0 Multiplicity = 1

                         Standard orientation:
 ---------------------------------------------------------------------
 Center     Atomic      Atomic             Coordinates (Angstroms)
 Number     Number       Type             X           Y           Z
 ---------------------------------------------------------------------
      1          6           0       -0.876845    0.810863    0.003037
      2          6           0       -1.038661   -0.488756    0.018427
      3          8           0        0.198093   -1.086035   -0.031322
      4          6           0        1.112108   -0.203469    0.036920
      5          6           0        0.596026    1.014068   -0.009220
      6          1           0        1.077561    1.972741   -0.017671
      7          1           0        2.108694   -0.511949   -0.013008
      8          1           0       -1.906568   -1.134547    0.030369
      9          1           0       -1.620199    1.565802   -0.044097
 ---------------------------------------------------------------------

 SCF Done:  E(RAM1) =   2.87410672981     A.U. after   13 cycles

 Excitation energies and oscillator strengths:

 Excited State   1:      Singlet-A      4.9765 eV  249.14 nm  f=0.3486  <S**2>=0.000
      13 -> 14         0.69711
 This state for optimization and/or second-order correction.
 Total Energy, E(CIS) =   3.05699153097
 Copying the excited state density for this state as the 1-particle RhoCI density.

 Excited State   2:      Singlet-A      6.0139 eV  206.16 nm  f=0.0033  <S**2>=0.000
      13 -> 15         0.65289
      13 -> 17         0.17945
      13 -> 18        -0.15400

 Excited State   3:      Singlet-A      6.3356 eV  195.69 nm  f=0.0001  <S**2>=0.000
       9 -> 14        -0.11994
      12 -> 14         0.69089

 Excited State   4:      Singlet-A      6.4616 eV  191.88 nm  f=0.0034  <S**2>=0.000
      13 -> 16         0.61902
      13 -> 17         0.13509
      13 -> 18         0.26273

 Excited State   5:      Singlet-A      7.3356 eV  169.02 nm  f=0.0002  <S**2>=0.000
      13 -> 15         0.11115
      13 -> 16        -0.22540
      13 -> 18         0.50357
      13 -> 19        -0.26534
      13 -> 20        -0.15891
      13 -> 21         0.26061

 Excited State   6:      Singlet-A      7.7165 eV  160.67 nm  f=0.0190  <S**2>=0.000
      10 -> 14        -0.24870
      11 -> 14        -0.19355
      13 -> 15        -0.16144
      13 -> 16        -0.11352
      13 -> 17         0.58339

 Excited State   7:      Singlet-A      7.8693 eV  157.55 nm  f=0.0009  <S**2>=0.000
      10 -> 14         0.48454
      11 -> 14         0.39017
      13 -> 17         0.29770

 Excited State   8:      Singlet-A      8.3927 eV  147.73 nm  f=0.0003  <S**2>=0.000
      13 -> 16        -0.14528
      13 -> 18         0.29397
      13 -> 19         0.59051
      13 -> 21        -0.12348

 Excited State   9:      Singlet-A      8.6321 eV  143.63 nm  f=0.0993  <S**2>=0.000
      10 -> 14        -0.42021
      11 -> 14         0.51906
      12 -> 16         0.12324

 Excited State  10:      Singlet-A      8.8704 eV  139.77 nm  f=0.0096  <S**2>=0.000
      13 -> 18         0.22656
      13 -> 19        -0.20188
      13 -> 20         0.53389
      13 -> 21        -0.33235

 Excited State  11:      Singlet-A      9.0301 eV  137.30 nm  f=0.0997  <S**2>=0.000
      12 -> 15         0.52955
      12 -> 16        -0.24851
      12 -> 18        -0.27081

 Excited State  12:      Singlet-A      9.2183 eV  134.50 nm  f=0.0779  <S**2>=0.000
      13 -> 19         0.14199
      13 -> 20         0.40988
      13 -> 21         0.52895

 Excited State  13:      Singlet-A      9.3925 eV  132.00 nm  f=0.0372  <S**2>=0.000
       9 -> 15         0.15810
      10 -> 15         0.15930
      10 -> 17         0.13952
      11 -> 14        -0.12890
      11 -> 15         0.10876
      12 -> 15         0.35064
      12 -> 16         0.35862
      12 -> 17         0.12783
      12 -> 18         0.23318
      12 -> 19        -0.15917

 Excited State  14:      Singlet-A      9.4682 eV  130.95 nm  f=0.0027  <S**2>=0.000
       9 -> 14         0.67964
      12 -> 14         0.11677
      13 -> 21         0.10811

 Excited State  15:      Singlet-A      9.7218 eV  127.53 nm  f=0.0904  <S**2>=0.000
       9 -> 16         0.10976
      10 -> 16        -0.16011
      10 -> 17        -0.13636
      11 -> 16        -0.17495
      11 -> 17        -0.10359
      12 -> 16         0.46791
      12 -> 18        -0.21569
      12 -> 19         0.23472
      12 -> 21        -0.13272

 The electronic state is 1-A.
 Alpha  occ. eigenvalues --   -1.75527  -1.12108  -0.95322  -0.80702  -0.75709
 Alpha  occ. eigenvalues --   -0.66833  -0.65343  -0.55465  -0.49085  -0.45046
 Alpha  occ. eigenvalues --   -0.44467  -0.39558  -0.27974
 Alpha virt. eigenvalues --    0.10257   0.17136   0.19032   0.24738   0.26242
 Alpha virt. eigenvalues --    0.27916   0.29376   0.29657   0.39538   0.47868
 Alpha virt. eigenvalues --    0.52716

 Mulliken charges:
               1
     1  C   -0.084748
     2  C   -1.929864
     3  O    3.218272
     4  C   -1.961172
     5  C   -0.237600
     6  H    0.190928
     7  H    0.322421
     8  H    0.304149
     9  H    0.177615
 Sum of Mulliken charges =   0.00000

 Dipole moment (field-independent basis, Debye):
    X=              1.8149    Y=             -9.6029    Z=             -0.8837  Tot=              9.8128
 N-N= 1.049087955253D+02 E-N=-1.705534160907D+02  KE=-1.485317661775D+01
 Orbital energies and kinetic energies (alpha):
                                 1                 2
   1         O                -1.755267         -1.264372
   2         O                -1.121082         -0.975841
   3         O                -0.953218         -0.858649
   4         O                -0.807018         -0.601691
   5         O                -0.757094         -0.692315
   6         O                -0.668330         -0.549860
   7         O                -0.653427         -0.531658

 Normal termination of Gaussian 09 at Tue Dec 15 17:06:02 2015.
