 Gaussian 09, Revision D.01,
 Gaussian 09:  ES64L-G09RevD.01 24-Apr-2013

 ------------------------------------------------------------
 #P AM1(Input,print) CIS(Singlets,NStates=15) pop(full) force
 ------------------------------------------------------------

 -----------------
 AM1-Reparam Input
 -----------------
 Symbolic Z-matrix:
 Charge =  0 Multiplicity = 1

                         Standard orientation:
 ---------------------------------------------------------------------
 Center     Atomic      Atomic             Coordinates (Angstroms)
 Number     Number       Type             X           Y           Z
 ---------------------------------------------------------------------
      1          6           0        0.997475    0.685063   -0.014824
      2          6           0        0.940449   -0.633211   -0.000099
      3          8           0       -0.343307   -1.080257   -0.024714
      4          6           0       -1.184418   -0.037306    0.038479
      5          6           0       -0.389944    1.104132    0.005761
      6          1           0       -0.719698    2.168621   -0.062461
      7          1           0       -2.209550   -0.159561   -0.029901
      8          1           0        1.684739   -1.406406    0.074416
      9          1           0        1.809589    1.327340    0.039754
 ---------------------------------------------------------------------

 SCF Done:  E(RAM1) =   1.80219195394     A.U. after   14 cycles

 Excitation energies and oscillator strengths:

 Excited State   1:      Singlet-A      5.3632 eV  231.17 nm  f=0.3574  <S**2>=0.000
      13 -> 14         0.69303
 This state for optimization and/or second-order correction.
 Total Energy, E(CIS) =   1.99928725894
 Copying the excited state density for this state as the 1-particle RhoCI density.

 Excited State   2:      Singlet-A      6.7198 eV  184.51 nm  f=0.0090  <S**2>=0.000
      13 -> 15         0.67011
      13 -> 17        -0.14657

 Excited State   3:      Singlet-A      6.9029 eV  179.61 nm  f=0.0046  <S**2>=0.000
      13 -> 16         0.66586
      13 -> 18        -0.14761
      13 -> 19        -0.11855

 Excited State   4:      Singlet-A      7.2813 eV  170.28 nm  f=0.0003  <S**2>=0.000
      12 -> 14         0.69927

 Excited State   5:      Singlet-A      8.0004 eV  154.97 nm  f=0.0010  <S**2>=0.000
      13 -> 15         0.11134
      13 -> 16        -0.10704
      13 -> 17         0.58322
      13 -> 18        -0.27630
      13 -> 21        -0.18934

 Excited State   6:      Singlet-A      8.3315 eV  148.81 nm  f=0.0084  <S**2>=0.000
      10 -> 14         0.66621
      11 -> 14        -0.20874

 Excited State   7:      Singlet-A      9.0571 eV  136.89 nm  f=0.1091  <S**2>=0.000
      10 -> 14         0.20902
      11 -> 14         0.64162

 Excited State   8:      Singlet-A      9.1497 eV  135.51 nm  f=0.0088  <S**2>=0.000
      11 -> 16        -0.13085
      13 -> 17         0.30617
      13 -> 18         0.57564
      13 -> 19        -0.10793

 Excited State   9:      Singlet-A      9.6310 eV  128.73 nm  f=0.0025  <S**2>=0.000
      11 -> 16        -0.10369
      13 -> 16         0.10045
      13 -> 19         0.65644

 Excited State  10:      Singlet-A      9.7167 eV  127.60 nm  f=0.0012  <S**2>=0.000
      10 -> 15         0.11843
      10 -> 16         0.18117
      10 -> 18        -0.18983
      12 -> 15        -0.33411
      12 -> 16         0.20491
      12 -> 17         0.38782
      12 -> 18        -0.15359

 Excited State  11:      Singlet-A     10.2465 eV  121.00 nm  f=0.0794  <S**2>=0.000
      10 -> 16        -0.19683
      12 -> 15         0.16616
      12 -> 16         0.56863
      12 -> 18        -0.11402
      13 -> 20         0.16636
      13 -> 21        -0.14056

 Excited State  12:      Singlet-A     10.2518 eV  120.94 nm  f=0.0409  <S**2>=0.000
      11 -> 16        -0.15181
      12 -> 16        -0.20047
      13 -> 17        -0.12161
      13 -> 18         0.14611
      13 -> 20         0.50916
      13 -> 21        -0.33999

 Excited State  13:      Singlet-A     10.3448 eV  119.85 nm  f=0.2053  <S**2>=0.000
       8 -> 15        -0.11284
      10 -> 15         0.31407
      10 -> 17        -0.10463
      11 -> 15        -0.14062
      12 -> 15         0.48812
      12 -> 17         0.20736
      12 -> 18        -0.10868
      12 -> 19         0.11277

 Excited State  14:      Singlet-A     10.5488 eV  117.53 nm  f=0.0602  <S**2>=0.000
      11 -> 16        -0.25052
      13 -> 20         0.35088
      13 -> 21         0.50543

 Excited State  15:      Singlet-A     10.6690 eV  116.21 nm  f=0.0160  <S**2>=0.000
      10 -> 15         0.22596
      11 -> 15         0.47867
      11 -> 16         0.29073
      13 -> 19         0.10135
      13 -> 20         0.15430
      13 -> 21         0.22022

 The electronic state is 1-A.
 Alpha  occ. eigenvalues --   -2.00500  -1.27073  -1.01621  -0.90260  -0.85581
 Alpha  occ. eigenvalues --   -0.77014  -0.75172  -0.64998  -0.61993  -0.53356
 Alpha  occ. eigenvalues --   -0.52970  -0.49907  -0.37210
 Alpha virt. eigenvalues --    0.03347   0.10849   0.12067   0.18961   0.20101
 Alpha virt. eigenvalues --    0.22498   0.24513   0.26345   0.29701   0.37338
 Alpha virt. eigenvalues --    0.43287

 Mulliken charges:
               1
     1  C   -0.085448
     2  C   -1.890028
     3  O    3.178821
     4  C   -1.909034
     5  C   -0.175980
     6  H    0.165362
     7  H    0.285010
     8  H    0.285815
     9  H    0.145483
 Sum of Mulliken charges =   0.00000

 Dipole moment (field-independent basis, Debye):
    X=             -2.6101    Y=             -9.6922    Z=             -0.5969  Tot=             10.0552
 N-N= 1.058239207532D+02 E-N=-1.708101608988D+02  KE=-1.568021896380D+01
 Orbital energies and kinetic energies (alpha):
                                 1                 2
   1         O                -2.004997         -1.390125
   2         O                -1.270726         -1.041648
   3         O                -1.016207         -0.877163
   4         O                -0.902597         -0.596063
   5         O                -0.855811         -0.710309
   6         O                -0.770138         -0.605358
   7         O                -0.751722         -0.545908

 Normal termination of Gaussian 09 at Tue Dec 15 17:09:08 2015.
