 Gaussian 09, Revision D.01,
 Gaussian 09:  ES64L-G09RevD.01 24-Apr-2013

 ------------------------------------------------------------
 #P AM1(Input,print) CIS(Singlets,NStates=15) pop(full) force
 ------------------------------------------------------------

 -----------------
 AM1-Reparam Input
 -----------------
 Symbolic Z-matrix:
 Charge =  0 Multiplicity = 1

                         Standard orientation:
 ---------------------------------------------------------------------
 Center     Atomic      Atomic             Coordinates (Angstroms)
 Number     Number       Type             X           Y           Z
 ---------------------------------------------------------------------
      1          6           0        0.666294    1.023339    0.017408
      2          6           0        1.136860   -0.249874   -0.014082
      3          8           0        0.089896   -1.178830   -0.004540
      4          6           0       -1.096074   -0.398709    0.011096
      5          6           0       -0.792337    0.873631   -0.015119
      6          1           0       -1.484298    1.786474   -0.001429
      7          1           0       -2.044421   -0.954456    0.016592
      8          1           0        2.101279   -0.747939    0.035972
      9          1           0        1.219823    1.856243   -0.010626
 ---------------------------------------------------------------------

 SCF Done:  E(RAM1) =   1.87092876875     A.U. after   14 cycles

 Excitation energies and oscillator strengths:

 Excited State   1:      Singlet-A      5.4283 eV  228.40 nm  f=0.3436  <S**2>=0.000
      13 -> 14         0.69337
 This state for optimization and/or second-order correction.
 Total Energy, E(CIS) =   2.07041478998
 Copying the excited state density for this state as the 1-particle RhoCI density.

 Excited State   2:      Singlet-A      6.1242 eV  202.45 nm  f=0.0002  <S**2>=0.000
      13 -> 15         0.67196
      13 -> 17        -0.11316
      13 -> 19        -0.13495

 Excited State   3:      Singlet-A      6.3287 eV  195.91 nm  f=0.0009  <S**2>=0.000
      13 -> 16         0.67439
      13 -> 18        -0.11935

 Excited State   4:      Singlet-A      6.5269 eV  189.96 nm  f=0.0001  <S**2>=0.000
      12 -> 14         0.70159

 Excited State   5:      Singlet-A      7.6541 eV  161.98 nm  f=0.0056  <S**2>=0.000
      11 -> 14        -0.23480
      13 -> 15         0.12351
      13 -> 17         0.59102
      13 -> 18        -0.16395
      13 -> 19         0.10565
      13 -> 22        -0.16523

 Excited State   6:      Singlet-A      7.8352 eV  158.24 nm  f=0.0040  <S**2>=0.000
      11 -> 14         0.63875
      13 -> 17         0.13931
      13 -> 18        -0.20974

 Excited State   7:      Singlet-A      8.0785 eV  153.47 nm  f=0.0073  <S**2>=0.000
      11 -> 14         0.17542
      13 -> 16         0.12603
      13 -> 17         0.29123
      13 -> 18         0.55209
      13 -> 19        -0.11610
      13 -> 22         0.18575

 Excited State   8:      Singlet-A      8.6723 eV  142.97 nm  f=0.0072  <S**2>=0.000
      13 -> 18         0.19127
      13 -> 19         0.64806

 Excited State   9:      Singlet-A      8.7279 eV  142.05 nm  f=0.0517  <S**2>=0.000
       8 -> 16         0.13918
      10 -> 14         0.22605
      11 -> 17        -0.14655
      12 -> 15         0.39550
      12 -> 16        -0.30173
      12 -> 17        -0.22719
      12 -> 18         0.19713

 Excited State  10:      Singlet-A      8.8943 eV  139.40 nm  f=0.0392  <S**2>=0.000
       8 -> 15        -0.14448
      10 -> 14         0.52123
      11 -> 18         0.10537
      12 -> 15        -0.33860
      12 -> 16        -0.12579
      13 -> 20         0.18482

 Excited State  11:      Singlet-A      9.4049 eV  131.83 nm  f=0.0693  <S**2>=0.000
      10 -> 14         0.16751
      11 -> 16         0.17877
      12 -> 16         0.54255
      12 -> 17        -0.25409

 Excited State  12:      Singlet-A      9.4421 eV  131.31 nm  f=0.0233  <S**2>=0.000
      12 -> 16        -0.11944
      13 -> 17         0.10383
      13 -> 18        -0.23936
      13 -> 21         0.39788
      13 -> 22         0.47819

 Excited State  13:      Singlet-A      9.5562 eV  129.74 nm  f=0.2315  <S**2>=0.000
       8 -> 15         0.10121
      10 -> 14         0.22586
      11 -> 15        -0.20994
      11 -> 16        -0.16491
      11 -> 17         0.20042
      12 -> 15         0.35422
      12 -> 16         0.11890
      12 -> 17         0.24131
      12 -> 18        -0.24751
      13 -> 20         0.13178

 Excited State  14:      Singlet-A      9.7629 eV  126.99 nm  f=0.0602  <S**2>=0.000
      10 -> 16        -0.10952
      13 -> 21         0.54014
      13 -> 22        -0.40405

 Excited State  15:      Singlet-A      9.8940 eV  125.31 nm  f=0.1089  <S**2>=0.000
       8 -> 15         0.13357
       9 -> 15        -0.19789
       9 -> 16        -0.11784
      10 -> 14         0.20055
      11 -> 15         0.45646
      11 -> 18        -0.10533
      11 -> 19        -0.21443
      12 -> 16         0.10187
      12 -> 17         0.24404
      13 -> 20        -0.11798

 The electronic state is 1-A.
 Alpha  occ. eigenvalues --   -1.92412  -1.20529  -0.97185  -0.81183  -0.79470
 Alpha  occ. eigenvalues --   -0.67303  -0.66646  -0.51250  -0.49175  -0.41969
 Alpha  occ. eigenvalues --   -0.40678  -0.36402  -0.25751
 Alpha virt. eigenvalues --    0.14500   0.19243   0.19810   0.27104   0.29818
 Alpha virt. eigenvalues --    0.31337   0.33108   0.33966   0.35723   0.42610
 Alpha virt. eigenvalues --    0.46396

 Mulliken charges:
               1
     1  C   -0.155637
     2  C   -1.877381
     3  O    3.113345
     4  C   -1.872494
     5  C   -0.080361
     6  H    0.141219
     7  H    0.294824
     8  H    0.279692
     9  H    0.156794
 Sum of Mulliken charges =   0.00000

 Dipole moment (field-independent basis, Debye):
    X=              0.5521    Y=            -11.3288    Z=              0.0404  Tot=             11.3424
 N-N= 1.034927605777D+02 E-N=-1.686451113759D+02  KE=-1.559948954822D+01
 Orbital energies and kinetic energies (alpha):
                                 1                 2
   1         O                -1.924118         -1.371510
   2         O                -1.205291         -1.080145
   3         O                -0.971852         -0.912804
   4         O                -0.811833         -0.663098
   5         O                -0.794702         -0.649070
   6         O                -0.673031         -0.567290
   7         O                -0.666462         -0.581775

 Normal termination of Gaussian 09 at Tue Dec 15 17:09:54 2015.
