 Gaussian 09, Revision D.01,
 Gaussian 09:  ES64L-G09RevD.01 24-Apr-2013

 ------------------------------------------------------------
 #P AM1(Input,print) CIS(Singlets,NStates=15) pop(full) force
 ------------------------------------------------------------

 -----------------
 AM1-Reparam Input
 -----------------
 Symbolic Z-matrix:
 Charge =  0 Multiplicity = 1

                         Standard orientation:
 ---------------------------------------------------------------------
 Center     Atomic      Atomic             Coordinates (Angstroms)
 Number     Number       Type             X           Y           Z
 ---------------------------------------------------------------------
      1          6           0       -1.157311    0.290330   -0.028214
      2          6           0       -0.572330   -0.964085    0.039219
      3          8           0        0.763191   -0.880420   -0.007601
      4          6           0        1.032317    0.418708   -0.009386
      5          6           0       -0.081540    1.193798    0.014300
      6          1           0       -0.168388    2.210029    0.033333
      7          1           0        2.082468    0.696339   -0.010745
      8          1           0       -1.054420   -1.966954   -0.042835
      9          1           0       -2.292005    0.471443   -0.014456
 ---------------------------------------------------------------------

 SCF Done:  E(RAM1) =   2.82016732276     A.U. after   14 cycles

 Excitation energies and oscillator strengths:

 Excited State   1:      Singlet-A      5.4933 eV  225.70 nm  f=0.3302  <S**2>=0.000
      13 -> 14         0.69417
 This state for optimization and/or second-order correction.
 Total Energy, E(CIS) =   3.02204211933
 Copying the excited state density for this state as the 1-particle RhoCI density.

 Excited State   2:      Singlet-A      6.5952 eV  187.99 nm  f=0.0051  <S**2>=0.000
      11 -> 16        -0.10926
      13 -> 15         0.65091
      13 -> 17        -0.21742

 Excited State   3:      Singlet-A      6.7085 eV  184.82 nm  f=0.0003  <S**2>=0.000
      11 -> 15        -0.12647
      13 -> 16         0.64193
      13 -> 18         0.21096

 Excited State   4:      Singlet-A      6.9153 eV  179.29 nm  f=0.0002  <S**2>=0.000
       9 -> 14        -0.12949
      12 -> 14         0.68632

 Excited State   5:      Singlet-A      7.7575 eV  159.83 nm  f=0.0100  <S**2>=0.000
      10 -> 14         0.66628
      13 -> 17        -0.17429

 Excited State   6:      Singlet-A      8.0508 eV  154.00 nm  f=0.0020  <S**2>=0.000
      11 -> 15         0.11184
      13 -> 16        -0.17237
      13 -> 17        -0.23795
      13 -> 18         0.44032
      13 -> 20        -0.24130
      13 -> 21        -0.34366

 Excited State   7:      Singlet-A      8.0609 eV  153.81 nm  f=0.0118  <S**2>=0.000
      10 -> 14         0.17121
      11 -> 16        -0.10692
      13 -> 15         0.17135
      13 -> 17         0.58761
      13 -> 18         0.17278
      13 -> 20        -0.10567
      13 -> 21        -0.17274

 Excited State   8:      Singlet-A      8.5571 eV  144.89 nm  f=0.1019  <S**2>=0.000
      11 -> 14         0.68311

 Excited State   9:      Singlet-A      8.7415 eV  141.83 nm  f=0.0030  <S**2>=0.000
      13 -> 16         0.11270
      13 -> 18        -0.19469
      13 -> 19         0.53937
      13 -> 20        -0.32045
      13 -> 21        -0.19272

 Excited State  10:      Singlet-A      9.0531 eV  136.95 nm  f=0.0244  <S**2>=0.000
      13 -> 18         0.41879
      13 -> 19         0.39484
      13 -> 20         0.21372
      13 -> 21         0.31003

 Excited State  11:      Singlet-A      9.3474 eV  132.64 nm  f=0.0145  <S**2>=0.000
       8 -> 15        -0.17592
       9 -> 16        -0.10649
       9 -> 18        -0.11662
      10 -> 15        -0.18954
      10 -> 16        -0.11182
      10 -> 17         0.26819
      12 -> 15        -0.12782
      12 -> 16         0.39650
      12 -> 18         0.23871
      12 -> 20        -0.11389
      12 -> 21        -0.11903
      13 -> 21         0.10136

 Excited State  12:      Singlet-A      9.6019 eV  129.12 nm  f=0.0629  <S**2>=0.000
      11 -> 15         0.16016
      11 -> 16         0.14125
      12 -> 15        -0.13149
      13 -> 19         0.13100
      13 -> 20         0.48835
      13 -> 21        -0.38114

 Excited State  13:      Singlet-A      9.6723 eV  128.18 nm  f=0.0405  <S**2>=0.000
      10 -> 15        -0.10854
      10 -> 16         0.11881
      11 -> 15        -0.32437
      12 -> 15         0.48159
      13 -> 20         0.13939
      13 -> 21        -0.18123

 Excited State  14:      Singlet-A      9.7438 eV  127.24 nm  f=0.1101  <S**2>=0.000
       9 -> 16         0.14026
      10 -> 15         0.21979
      10 -> 16         0.22537
      10 -> 17        -0.15022
      11 -> 15         0.25131
      12 -> 15         0.15889
      12 -> 16         0.42627
      12 -> 17        -0.15666

 Excited State  15:      Singlet-A      9.7892 eV  126.65 nm  f=0.0754  <S**2>=0.000
      10 -> 15        -0.26550
      10 -> 17         0.14651
      11 -> 15         0.41232
      11 -> 16         0.17262
      12 -> 15         0.27773
      12 -> 16        -0.18702
      12 -> 19         0.10314
      13 -> 16         0.12834
      13 -> 21         0.11178

 The electronic state is 1-A.
 Alpha  occ. eigenvalues --   -1.72714  -1.12429  -0.91372  -0.79172  -0.74392
 Alpha  occ. eigenvalues --   -0.66278  -0.63968  -0.52658  -0.48742  -0.43203
 Alpha  occ. eigenvalues --   -0.42309  -0.40287  -0.29088
 Alpha virt. eigenvalues --    0.12032   0.18073   0.18506   0.24623   0.27000
 Alpha virt. eigenvalues --    0.28133   0.29946   0.31414   0.39488   0.48694
 Alpha virt. eigenvalues --    0.52252

 Mulliken charges:
               1
     1  C   -0.113983
     2  C   -1.976109
     3  O    3.203184
     4  C   -1.959660
     5  C   -0.118483
     6  H    0.173329
     7  H    0.306283
     8  H    0.311688
     9  H    0.173751
 Sum of Mulliken charges =   0.00000

 Dipole moment (field-independent basis, Debye):
    X=              6.5836    Y=             -7.7059    Z=             -0.4439  Tot=             10.1450
 N-N= 1.042248548063D+02 E-N=-1.696861756706D+02  KE=-1.479097498182D+01
 Orbital energies and kinetic energies (alpha):
                                 1                 2
   1         O                -1.727139         -1.236612
   2         O                -1.124285         -0.999853
   3         O                -0.913716         -0.837445
   4         O                -0.791716         -0.597143
   5         O                -0.743922         -0.669237
   6         O                -0.662777         -0.576663
   7         O                -0.639682         -0.527600

 Normal termination of Gaussian 09 at Tue Dec 15 17:05:49 2015.
