 Gaussian 09, Revision D.01,
 Gaussian 09:  ES64L-G09RevD.01 24-Apr-2013

 ------------------------------------------------------------
 #P AM1(Input,print) CIS(Singlets,NStates=15) pop(full) force
 ------------------------------------------------------------

 -----------------
 AM1-Reparam Input
 -----------------
 Symbolic Z-matrix:
 Charge =  0 Multiplicity = 1

                         Standard orientation:
 ---------------------------------------------------------------------
 Center     Atomic      Atomic             Coordinates (Angstroms)
 Number     Number       Type             X           Y           Z
 ---------------------------------------------------------------------
      1          6           0       -0.520978    1.102256   -0.031309
      2          6           0       -1.158001   -0.172240   -0.009191
      3          8           0       -0.207656   -1.147392    0.007263
      4          6           0        1.042012   -0.528583   -0.022241
      5          6           0        0.868888    0.809823    0.035096
      6          1           0        1.608042    1.564539    0.007360
      7          1           0        1.895582   -1.141840   -0.003126
      8          1           0       -2.203763   -0.517997    0.079096
      9          1           0       -1.030141    2.006900    0.024441
 ---------------------------------------------------------------------

 SCF Done:  E(RAM1) =   1.71092789988     A.U. after   13 cycles

 Excitation energies and oscillator strengths:

 Excited State   1:      Singlet-A      5.5560 eV  223.15 nm  f=0.3680  <S**2>=0.000
      13 -> 14         0.69337
 This state for optimization and/or second-order correction.
 Total Energy, E(CIS) =   1.91510804629
 Copying the excited state density for this state as the 1-particle RhoCI density.

 Excited State   2:      Singlet-A      7.0978 eV  174.68 nm  f=0.0012  <S**2>=0.000
      12 -> 14         0.70060

 Excited State   3:      Singlet-A      7.2806 eV  170.29 nm  f=0.0034  <S**2>=0.000
      10 -> 15        -0.11348
      13 -> 15         0.65918
      13 -> 17         0.19281

 Excited State   4:      Singlet-A      7.6409 eV  162.26 nm  f=0.0030  <S**2>=0.000
      10 -> 16         0.11476
      13 -> 16         0.66410
      13 -> 18        -0.14554
      13 -> 19         0.10923

 Excited State   5:      Singlet-A      7.9980 eV  155.02 nm  f=0.0056  <S**2>=0.000
      11 -> 14         0.69933

 Excited State   6:      Singlet-A      8.9922 eV  137.88 nm  f=0.0011  <S**2>=0.000
      10 -> 15         0.11497
      13 -> 15        -0.13252
      13 -> 17         0.43009
      13 -> 18         0.45773
      13 -> 22        -0.24429

 Excited State   7:      Singlet-A      9.3164 eV  133.08 nm  f=0.0912  <S**2>=0.000
      10 -> 14         0.67771

 Excited State   8:      Singlet-A      9.4282 eV  131.50 nm  f=0.0180  <S**2>=0.000
      10 -> 16        -0.10649
      13 -> 17         0.49705
      13 -> 18        -0.42930
      13 -> 22         0.13086

 Excited State   9:      Singlet-A      9.9915 eV  124.09 nm  f=0.0005  <S**2>=0.000
      13 -> 19         0.67843

 Excited State  10:      Singlet-A     10.0284 eV  123.63 nm  f=0.0189  <S**2>=0.000
       8 -> 15         0.10482
      11 -> 15        -0.12783
      11 -> 16        -0.19014
      11 -> 17        -0.17991
      11 -> 18         0.14766
      12 -> 15         0.38269
      12 -> 16        -0.18129
      12 -> 17         0.22290
      12 -> 18         0.26578

 Excited State  11:      Singlet-A     10.6208 eV  116.74 nm  f=0.0189  <S**2>=0.000
      11 -> 15         0.27351
      11 -> 17         0.11348
      12 -> 15         0.36989
      12 -> 16         0.45913
      12 -> 18        -0.12617

 Excited State  12:      Singlet-A     10.6829 eV  116.06 nm  f=0.3090  <S**2>=0.000
      11 -> 15        -0.36630
      11 -> 16        -0.16362
      11 -> 17        -0.16347
      12 -> 15        -0.23384
      12 -> 16         0.42866
      12 -> 19         0.16345

 Excited State  13:      Singlet-A     10.8139 eV  114.65 nm  f=0.0260  <S**2>=0.000
      13 -> 18         0.21665
      13 -> 20         0.40464
      13 -> 21        -0.13324
      13 -> 22         0.49356

 Excited State  14:      Singlet-A     10.9203 eV  113.54 nm  f=0.0673  <S**2>=0.000
      10 -> 15         0.21797
      13 -> 18        -0.15265
      13 -> 20         0.50063
      13 -> 21        -0.12524
      13 -> 22        -0.36020

 Excited State  15:      Singlet-A     10.9738 eV  112.98 nm  f=0.0298  <S**2>=0.000
       8 -> 15        -0.12585
       9 -> 15        -0.14707
      10 -> 15        -0.27807
      11 -> 15         0.28641
      11 -> 16        -0.16526
      11 -> 19        -0.22329
      12 -> 15        -0.16472
      12 -> 17         0.21542
      12 -> 18         0.12846
      12 -> 19         0.18110
      13 -> 21        -0.16635

 The electronic state is 1-A.
 Alpha  occ. eigenvalues --   -1.89804  -1.16844  -0.91395  -0.81661  -0.78546
 Alpha  occ. eigenvalues --   -0.70087  -0.66653  -0.57020  -0.55762  -0.46745
 Alpha  occ. eigenvalues --   -0.45230  -0.42410  -0.31060
 Alpha virt. eigenvalues --    0.10446   0.18498   0.20299   0.26861   0.28913
 Alpha virt. eigenvalues --    0.30261   0.32735   0.33142   0.35087   0.41626
 Alpha virt. eigenvalues --    0.45567

 Mulliken charges:
               1
     1  C   -0.193152
     2  C   -2.044278
     3  O    3.305199
     4  C   -2.019646
     5  C   -0.127013
     6  H    0.206251
     7  H    0.331058
     8  H    0.331630
     9  H    0.209951
 Sum of Mulliken charges =   0.00000

 Dipole moment (field-independent basis, Debye):
    X=             -1.8299    Y=            -10.5802    Z=              0.5863  Tot=             10.7533
 N-N= 1.033771551987D+02 E-N=-1.684023741082D+02  KE=-1.546570372337D+01
 Orbital energies and kinetic energies (alpha):
                                 1                 2
   1         O                -1.898044         -1.349450
   2         O                -1.168437         -1.050843
   3         O                -0.913954         -0.882540
   4         O                -0.816611         -0.571320
   5         O                -0.785465         -0.688682
   6         O                -0.700866         -0.606133
   7         O                -0.666527         -0.532433

 Normal termination of Gaussian 09 at Tue Dec 15 17:09:32 2015.
