 Gaussian 09, Revision D.01,
 Gaussian 09:  ES64L-G09RevD.01 24-Apr-2013

 ------------------------------------------------------------
 #P AM1(Input,print) CIS(Singlets,NStates=15) pop(full) force
 ------------------------------------------------------------

 -----------------
 AM1-Reparam Input
 -----------------
 Symbolic Z-matrix:
 Charge =  0 Multiplicity = 1

                         Standard orientation:
 ---------------------------------------------------------------------
 Center     Atomic      Atomic             Coordinates (Angstroms)
 Number     Number       Type             X           Y           Z
 ---------------------------------------------------------------------
      1          6           0        0.804052    0.840071    0.001280
      2          6           0        1.027364   -0.520018   -0.011118
      3          8           0       -0.188200   -1.107461    0.028342
      4          6           0       -1.102251   -0.202701   -0.025629
      5          6           0       -0.527351    1.054121   -0.014606
      6          1           0       -1.063821    1.971322    0.073959
      7          1           0       -2.176746   -0.569906    0.004219
      8          1           0        1.924076   -1.135306   -0.049914
      9          1           0        1.611208    1.564739    0.045441
 ---------------------------------------------------------------------

 SCF Done:  E(RAM1) =   2.81782611689     A.U. after   13 cycles

 Excitation energies and oscillator strengths:

 Excited State   1:      Singlet-A      5.7217 eV  216.69 nm  f=0.3057  <S**2>=0.000
      13 -> 14         0.68878
 This state for optimization and/or second-order correction.
 Total Energy, E(CIS) =   3.02809334996
 Copying the excited state density for this state as the 1-particle RhoCI density.

 Excited State   2:      Singlet-A      6.6445 eV  186.60 nm  f=0.0044  <S**2>=0.000
      11 -> 15        -0.12359
      13 -> 15         0.63317
      13 -> 16         0.12204
      13 -> 17         0.22452

 Excited State   3:      Singlet-A      7.0961 eV  174.72 nm  f=0.0022  <S**2>=0.000
       9 -> 14         0.16429
      12 -> 14         0.65597
      13 -> 16        -0.16118

 Excited State   4:      Singlet-A      7.1788 eV  172.71 nm  f=0.0040  <S**2>=0.000
      11 -> 16         0.10905
      12 -> 14         0.18027
      13 -> 15        -0.11823
      13 -> 16         0.60479
      13 -> 17         0.10086
      13 -> 18        -0.19543

 Excited State   5:      Singlet-A      7.6788 eV  161.46 nm  f=0.0059  <S**2>=0.000
      10 -> 14         0.58444
      11 -> 14        -0.37378

 Excited State   6:      Singlet-A      8.1504 eV  152.12 nm  f=0.0145  <S**2>=0.000
      11 -> 15         0.13019
      13 -> 15        -0.18287
      13 -> 17         0.57980
      13 -> 18         0.20925
      13 -> 21         0.20010

 Excited State   7:      Singlet-A      8.4160 eV  147.32 nm  f=0.0044  <S**2>=0.000
      11 -> 16         0.13479
      13 -> 16         0.11739
      13 -> 17        -0.25639
      13 -> 18         0.29226
      13 -> 19        -0.32035
      13 -> 21         0.43654

 Excited State   8:      Singlet-A      8.6390 eV  143.52 nm  f=0.0891  <S**2>=0.000
      10 -> 14         0.37057
      11 -> 14         0.57512

 Excited State   9:      Singlet-A      8.9134 eV  139.10 nm  f=0.0003  <S**2>=0.000
      11 -> 16         0.10638
      13 -> 16         0.14095
      13 -> 18         0.45832
      13 -> 19         0.45615
      13 -> 21        -0.10359

 Excited State  10:      Singlet-A      9.3285 eV  132.91 nm  f=0.0147  <S**2>=0.000
       8 -> 15         0.12288
      10 -> 16        -0.14840
      10 -> 17        -0.10200
      11 -> 15        -0.21514
      12 -> 15         0.54741
      12 -> 17         0.15428

 Excited State  11:      Singlet-A      9.3685 eV  132.34 nm  f=0.0924  <S**2>=0.000
       9 -> 15         0.18542
       9 -> 18         0.11404
      10 -> 15        -0.28628
      10 -> 16        -0.18540
      10 -> 17        -0.25713
      11 -> 15         0.32904
      11 -> 16         0.11489
      11 -> 17         0.18338
      12 -> 19        -0.17550
      13 -> 14        -0.10118

 Excited State  12:      Singlet-A      9.4743 eV  130.86 nm  f=0.0015  <S**2>=0.000
       9 -> 14         0.11657
      10 -> 15         0.16130
      11 -> 15         0.18683
      12 -> 15         0.13311
      13 -> 18        -0.28750
      13 -> 19         0.37035
      13 -> 21         0.38645

 Excited State  13:      Singlet-A      9.6089 eV  129.03 nm  f=0.0043  <S**2>=0.000
      10 -> 15         0.32485
      10 -> 17         0.11498
      11 -> 15         0.40631
      12 -> 15         0.13076
      12 -> 16         0.14097
      13 -> 15         0.15588
      13 -> 19        -0.17109
      13 -> 21        -0.26583

 Excited State  14:      Singlet-A      9.7209 eV  127.54 nm  f=0.0998  <S**2>=0.000
      10 -> 16        -0.13883
      11 -> 16         0.10749
      12 -> 16         0.56776
      12 -> 17         0.11071
      12 -> 18        -0.14495
      13 -> 20        -0.16077

 Excited State  15:      Singlet-A      9.8240 eV  126.21 nm  f=0.0838  <S**2>=0.000
       9 -> 14         0.14136
      12 -> 16         0.13411
      13 -> 20         0.64178

 The electronic state is 1-A.
 Alpha  occ. eigenvalues --   -1.74401  -1.13886  -0.92162  -0.79846  -0.74788
 Alpha  occ. eigenvalues --   -0.66857  -0.65043  -0.54579  -0.49059  -0.43422
 Alpha  occ. eigenvalues --   -0.42843  -0.40972  -0.30964
 Alpha virt. eigenvalues --    0.11741   0.16154   0.19348   0.23246   0.26385
 Alpha virt. eigenvalues --    0.27503   0.29093   0.30527   0.40479   0.48907
 Alpha virt. eigenvalues --    0.53680

 Mulliken charges:
               1
     1  C   -0.088343
     2  C   -1.986501
     3  O    3.219561
     4  C   -1.995274
     5  C   -0.145169
     6  H    0.184687
     7  H    0.319276
     8  H    0.310978
     9  H    0.180784
 Sum of Mulliken charges =   0.00000

 Dipole moment (field-independent basis, Debye):
    X=             -1.9357    Y=             -9.2553    Z=              0.7150  Tot=              9.4826
 N-N= 1.047108813254D+02 E-N=-1.703726646438D+02  KE=-1.483698711617D+01
 Orbital energies and kinetic energies (alpha):
                                 1                 2
   1         O                -1.744013         -1.261123
   2         O                -1.138855         -0.999731
   3         O                -0.921622         -0.833279
   4         O                -0.798460         -0.601542
   5         O                -0.747883         -0.666449
   6         O                -0.668570         -0.586710
   7         O                -0.650433         -0.534599

 Normal termination of Gaussian 09 at Tue Dec 15 17:05:53 2015.
