 Gaussian 09, Revision D.01,
 Gaussian 09:  ES64L-G09RevD.01 24-Apr-2013

 ------------------------------------------------------------
 #P AM1(Input,print) CIS(Singlets,NStates=15) pop(full) force
 ------------------------------------------------------------

 -----------------
 AM1-Reparam Input
 -----------------
 Symbolic Z-matrix:
 Charge =  0 Multiplicity = 1

                         Standard orientation:
 ---------------------------------------------------------------------
 Center     Atomic      Atomic             Coordinates (Angstroms)
 Number     Number       Type             X           Y           Z
 ---------------------------------------------------------------------
      1          6           0        0.910887    0.802540   -0.001698
      2          6           0        0.997376   -0.549908    0.016192
      3          8           0       -0.229411   -1.131440    0.005287
      4          6           0       -1.140191   -0.141281   -0.031029
      5          6           0       -0.524155    1.083897    0.002240
      6          1           0       -0.998771    2.070282    0.039637
      7          1           0       -2.167242   -0.445418    0.063473
      8          1           0        1.798177   -1.214087   -0.038172
      9          1           0        1.739618    1.469259   -0.021473
 ---------------------------------------------------------------------

 SCF Done:  E(RAM1) =  0.145361107056E-01 A.U. after   14 cycles

 Excitation energies and oscillator strengths:

 Excited State   1:      Singlet-A      4.4983 eV  275.62 nm  f=0.0766  <S**2>=0.000
      12 -> 15         0.22507
      13 -> 14         0.66335
 This state for optimization and/or second-order correction.
 Total Energy, E(CIS) =  0.179846200242
 Copying the excited state density for this state as the 1-particle RhoCI density.

 Excited State   2:      Singlet-A      4.9810 eV  248.91 nm  f=0.0054  <S**2>=0.000
      12 -> 14        -0.33834
      13 -> 15         0.49436
      13 -> 16         0.35897

 Excited State   3:      Singlet-A      5.1357 eV  241.42 nm  f=0.0011  <S**2>=0.000
      12 -> 14         0.25826
      13 -> 15        -0.26835
      13 -> 16         0.58545
      13 -> 22        -0.10032

 Excited State   4:      Singlet-A      5.9140 eV  209.65 nm  f=0.0036  <S**2>=0.000
      12 -> 16        -0.22441
      12 -> 18         0.11249
      12 -> 19        -0.12065
      12 -> 21         0.10761
      12 -> 22         0.15758
      13 -> 17        -0.25655
      13 -> 18         0.39186
      13 -> 19        -0.20836
      13 -> 21         0.12303
      13 -> 22         0.15912
      13 -> 23         0.20423

 Excited State   5:      Singlet-A      5.9719 eV  207.61 nm  f=0.0120  <S**2>=0.000
       7 -> 16        -0.16010
      12 -> 15         0.24248
      12 -> 16         0.55838
      13 -> 19        -0.11789

 Excited State   6:      Singlet-A      6.0956 eV  203.40 nm  f=0.0088  <S**2>=0.000
      12 -> 18        -0.22173
      12 -> 19        -0.12349
      12 -> 20         0.13034
      12 -> 21         0.10552
      12 -> 23        -0.13153
      13 -> 18         0.26775
      13 -> 19         0.34884
      13 -> 20        -0.16937
      13 -> 21        -0.23039
      13 -> 22        -0.19961
      13 -> 23         0.14472

 Excited State   7:      Singlet-A      6.2014 eV  199.93 nm  f=0.3844  <S**2>=0.000
      12 -> 14         0.51555
      12 -> 16        -0.10600
      13 -> 15         0.38900

 Excited State   8:      Singlet-A      6.2767 eV  197.53 nm  f=0.1358  <S**2>=0.000
      12 -> 15         0.59671
      12 -> 16        -0.23995
      13 -> 14        -0.19643

 Excited State   9:      Singlet-A      6.4960 eV  190.86 nm  f=0.0023  <S**2>=0.000
      13 -> 17         0.55095
      13 -> 18         0.36374
      13 -> 23        -0.10218

 Excited State  10:      Singlet-A      6.9261 eV  179.01 nm  f=0.0002  <S**2>=0.000
      12 -> 17         0.47641
      12 -> 18         0.33911
      12 -> 19        -0.11047
      12 -> 20        -0.22994
      12 -> 23        -0.16448
      13 -> 19         0.18247
      13 -> 22         0.11070

 Excited State  11:      Singlet-A      7.1636 eV  173.07 nm  f=0.0032  <S**2>=0.000
       9 -> 14         0.22102
       9 -> 15        -0.20169
      10 -> 14         0.42562
      10 -> 15         0.22476
      11 -> 14         0.36162
      12 -> 19        -0.11940

 Excited State  12:      Singlet-A      7.3316 eV  169.11 nm  f=0.0025  <S**2>=0.000
       8 -> 14         0.10782
       9 -> 14        -0.22867
      10 -> 14         0.25825
      11 -> 15         0.41235
      12 -> 17        -0.14898
      12 -> 18         0.19821
      12 -> 20         0.11902
      12 -> 23         0.11987
      13 -> 19         0.21699
      13 -> 20         0.12394

 Excited State  13:      Singlet-A      7.3983 eV  167.58 nm  f=0.0006  <S**2>=0.000
       9 -> 14         0.26838
       9 -> 15        -0.11543
      10 -> 14        -0.20506
      10 -> 15        -0.10179
      11 -> 14         0.14897
      11 -> 15        -0.18670
      12 -> 17        -0.16622
      12 -> 18         0.27482
      12 -> 19         0.10769
      12 -> 20         0.12373
      13 -> 19         0.32222
      13 -> 20         0.10682

 Excited State  14:      Singlet-A      7.5176 eV  164.93 nm  f=0.0007  <S**2>=0.000
      10 -> 14         0.13182
      12 -> 17         0.12892
      12 -> 19         0.36984
      12 -> 20        -0.13102
      12 -> 22        -0.20838
      13 -> 17        -0.20832
      13 -> 18         0.23761
      13 -> 20         0.22824
      13 -> 21        -0.11795
      13 -> 22        -0.12682
      13 -> 24         0.21306

 Excited State  15:      Singlet-A      7.6145 eV  162.83 nm  f=0.0058  <S**2>=0.000
      11 -> 15        -0.12763
      12 -> 17         0.10171
      12 -> 18        -0.21032
      12 -> 20         0.11557
      13 -> 19         0.13223
      13 -> 20         0.29177
      13 -> 21        -0.13822
      13 -> 22         0.43366
      13 -> 23         0.21750

 The electronic state is 1-A.
 Alpha  occ. eigenvalues --   -1.57239  -1.23054  -1.10457  -0.83055  -0.81061
 Alpha  occ. eigenvalues --   -0.68807  -0.60746  -0.56854  -0.51129  -0.50531
 Alpha  occ. eigenvalues --   -0.49514  -0.38982  -0.34804
 Alpha virt. eigenvalues --    0.03200   0.06020   0.10046   0.13990   0.14872
 Alpha virt. eigenvalues --    0.15578   0.17777   0.18142   0.19078   0.20670
 Alpha virt. eigenvalues --    0.22583

 Mulliken charges:
               1
     1  C   -0.198463
     2  C   -0.104077
     3  O   -0.074528
     4  C   -0.101209
     5  C   -0.211177
     6  H    0.162657
     7  H    0.186902
     8  H    0.178853
     9  H    0.161042
 Sum of Mulliken charges =   0.00000

 Dipole moment (field-independent basis, Debye):
    X=              0.0254    Y=              0.3437    Z=              0.0495  Tot=              0.3482
 N-N= 1.034982185154D+02 E-N=-1.710721599537D+02  KE=-1.657054403087D+01
 Orbital energies and kinetic energies (alpha):
                                 1                 2
   1         O                -1.572386         -1.314538
   2         O                -1.230541         -1.048609
   3         O                -1.104566         -0.964250
   4         O                -0.830552         -0.707955
   5         O                -0.810608         -0.725506
   6         O                -0.688071         -0.603716
   7         O                -0.607456         -0.490072

 Normal termination of Gaussian 09 at Tue Dec 15 16:24:45 2015.
