 Gaussian 09, Revision D.01,
 Gaussian 09:  ES64L-G09RevD.01 24-Apr-2013

 ------------------------------------------------------------
 #P AM1(Input,print) CIS(Singlets,NStates=15) pop(full) force
 ------------------------------------------------------------

 -----------------
 AM1-Reparam Input
 -----------------
 Symbolic Z-matrix:
 Charge =  0 Multiplicity = 1

                         Standard orientation:
 ---------------------------------------------------------------------
 Center     Atomic      Atomic             Coordinates (Angstroms)
 Number     Number       Type             X           Y           Z
 ---------------------------------------------------------------------
      1          6           0        0.666294    1.023339    0.017408
      2          6           0        1.136860   -0.249874   -0.014082
      3          8           0        0.089896   -1.178830   -0.004540
      4          6           0       -1.096074   -0.398709    0.011096
      5          6           0       -0.792337    0.873631   -0.015119
      6          1           0       -1.484298    1.786474   -0.001429
      7          1           0       -2.044421   -0.954456    0.016592
      8          1           0        2.101279   -0.747939    0.035972
      9          1           0        1.219823    1.856243   -0.010626
 ---------------------------------------------------------------------

 SCF Done:  E(RAM1) =   2.57392997783     A.U. after   13 cycles

 Excitation energies and oscillator strengths:

 Excited State   1:      Singlet-A      5.1117 eV  242.55 nm  f=0.3587  <S**2>=0.000
      13 -> 14         0.69713
 This state for optimization and/or second-order correction.
 Total Energy, E(CIS) =   2.76178199202
 Copying the excited state density for this state as the 1-particle RhoCI density.

 Excited State   2:      Singlet-A      6.0318 eV  205.55 nm  f=0.0002  <S**2>=0.000
      13 -> 15         0.66452
      13 -> 17        -0.13402
      13 -> 19        -0.14416

 Excited State   3:      Singlet-A      6.2411 eV  198.66 nm  f=0.0011  <S**2>=0.000
      13 -> 16         0.66936
      13 -> 17        -0.10494
      13 -> 18         0.13483

 Excited State   4:      Singlet-A      6.6523 eV  186.38 nm  f=0.0002  <S**2>=0.000
      12 -> 14         0.69927

 Excited State   5:      Singlet-A      7.4720 eV  165.93 nm  f=0.0010  <S**2>=0.000
      13 -> 15         0.14527
      13 -> 17         0.51349
      13 -> 18         0.35481
      13 -> 20         0.20287
      13 -> 21        -0.15395

 Excited State   6:      Singlet-A      7.8859 eV  157.22 nm  f=0.0129  <S**2>=0.000
      10 -> 14         0.44382
      11 -> 14         0.15628
      13 -> 16        -0.12116
      13 -> 17        -0.28444
      13 -> 18         0.38639
      13 -> 20         0.12907

 Excited State   7:      Singlet-A      8.0386 eV  154.24 nm  f=0.0010  <S**2>=0.000
      10 -> 14         0.48782
      11 -> 14         0.17113
      13 -> 17         0.32460
      13 -> 18        -0.31198

 Excited State   8:      Singlet-A      8.5553 eV  144.92 nm  f=0.0060  <S**2>=0.000
      13 -> 15         0.10373
      13 -> 18        -0.14970
      13 -> 19         0.66481

 Excited State   9:      Singlet-A      8.7902 eV  141.05 nm  f=0.0556  <S**2>=0.000
      10 -> 14        -0.21710
      11 -> 14         0.61808
      12 -> 16        -0.16234
      12 -> 17        -0.12416

 Excited State  10:      Singlet-A      9.1585 eV  135.38 nm  f=0.1178  <S**2>=0.000
       8 -> 15         0.10058
       8 -> 16         0.12736
      10 -> 17        -0.12093
      10 -> 18         0.10345
      11 -> 14        -0.11720
      12 -> 15         0.48982
      12 -> 16        -0.25051
      12 -> 17        -0.18818
      12 -> 18        -0.20159

 Excited State  11:      Singlet-A      9.2650 eV  133.82 nm  f=0.0184  <S**2>=0.000
      13 -> 17        -0.10604
      13 -> 18        -0.27794
      13 -> 20         0.54582
      13 -> 21        -0.30992

 Excited State  12:      Singlet-A      9.6817 eV  128.06 nm  f=0.0561  <S**2>=0.000
      10 -> 16         0.12458
      11 -> 14         0.11417
      12 -> 15         0.15402
      12 -> 16         0.58790
      12 -> 17        -0.19586

 Excited State  13:      Singlet-A      9.7746 eV  126.84 nm  f=0.1159  <S**2>=0.000
      12 -> 15         0.19549
      12 -> 18         0.10088
      13 -> 20         0.30438
      13 -> 21         0.53450

 Excited State  14:      Singlet-A      9.8163 eV  126.30 nm  f=0.2320  <S**2>=0.000
       8 -> 15         0.10944
      10 -> 15        -0.16063
      10 -> 16        -0.15382
      10 -> 17         0.18683
      11 -> 14         0.12860
      12 -> 15         0.30063
      12 -> 17         0.28552
      12 -> 18         0.22310
      12 -> 19        -0.10629
      13 -> 20        -0.16508
      13 -> 21        -0.25399

 Excited State  15:      Singlet-A     10.0120 eV  123.84 nm  f=0.0024  <S**2>=0.000
       7 -> 15         0.14784
      10 -> 15        -0.17277
      11 -> 15         0.60168
      11 -> 16         0.18469
      13 -> 15         0.14016

 The electronic state is 1-A.
 Alpha  occ. eigenvalues --   -1.71203  -1.14861  -0.94490  -0.80178  -0.76009
 Alpha  occ. eigenvalues --   -0.66968  -0.62895  -0.54190  -0.50340  -0.43579
 Alpha  occ. eigenvalues --   -0.43444  -0.39247  -0.26829
 Alpha virt. eigenvalues --    0.12030   0.17884   0.18519   0.25897   0.28542
 Alpha virt. eigenvalues --    0.29750   0.32409   0.33493   0.36378   0.45956
 Alpha virt. eigenvalues --    0.49849

 Mulliken charges:
               1
     1  C   -0.104527
     2  C   -1.890131
     3  O    3.225459
     4  C   -1.883577
     5  C   -0.062634
     6  H    0.113260
     7  H    0.251468
     8  H    0.234152
     9  H    0.116529
 Sum of Mulliken charges =   0.00000

 Dipole moment (field-independent basis, Debye):
    X=              0.6106    Y=            -11.6106    Z=              0.0375  Tot=             11.6267
 N-N= 1.030758855933D+02 E-N=-1.675494870204D+02  KE=-1.496975595491D+01
 Orbital energies and kinetic energies (alpha):
                                 1                 2
   1         O                -1.712028         -1.186991
   2         O                -1.148613         -1.009360
   3         O                -0.944896         -0.874653
   4         O                -0.801777         -0.612216
   5         O                -0.760088         -0.677762
   6         O                -0.669683         -0.569091
   7         O                -0.628954         -0.517611

 Normal termination of Gaussian 09 at Tue Dec 15 17:06:13 2015.
