 Gaussian 09, Revision D.01,
 Gaussian 09:  ES64L-G09RevD.01 24-Apr-2013

 ------------------------------------------------------------
 #P AM1(Input,print) CIS(Singlets,NStates=15) pop(full) force
 ------------------------------------------------------------

 -----------------
 AM1-Reparam Input
 -----------------
 Symbolic Z-matrix:
 Charge =  0 Multiplicity = 1

                         Standard orientation:
 ---------------------------------------------------------------------
 Center     Atomic      Atomic             Coordinates (Angstroms)
 Number     Number       Type             X           Y           Z
 ---------------------------------------------------------------------
      1          6           0       -0.885000    0.851222   -0.017525
      2          6           0       -1.028314   -0.529937    0.024752
      3          8           0        0.176282   -1.125813   -0.025403
      4          6           0        1.140646   -0.185201    0.009596
      5          6           0        0.603293    1.036301    0.004514
      6          1           0        1.084755    1.957468   -0.002401
      7          1           0        2.141008   -0.531214    0.041122
      8          1           0       -1.941124   -1.084861    0.040854
      9          1           0       -1.678640    1.630808   -0.004370
 ---------------------------------------------------------------------

 SCF Done:  E(RAM1) =   2.80735996465     A.U. after   13 cycles

 Excitation energies and oscillator strengths:

 Excited State   1:      Singlet-A      5.0391 eV  246.04 nm  f=0.3583  <S**2>=0.000
      13 -> 14         0.69705
 This state for optimization and/or second-order correction.
 Total Energy, E(CIS) =   2.99254394255
 Copying the excited state density for this state as the 1-particle RhoCI density.

 Excited State   2:      Singlet-A      6.4244 eV  192.99 nm  f=0.0024  <S**2>=0.000
      12 -> 14        -0.11801
      13 -> 16         0.61159
      13 -> 17         0.14612
      13 -> 18         0.26691

 Excited State   3:      Singlet-A      6.4418 eV  192.47 nm  f=0.0048  <S**2>=0.000
      12 -> 14         0.40450
      13 -> 15         0.52299
      13 -> 17         0.16850

 Excited State   4:      Singlet-A      6.4637 eV  191.82 nm  f=0.0015  <S**2>=0.000
      12 -> 14         0.55074
      13 -> 15        -0.38727
      13 -> 18         0.10940

 Excited State   5:      Singlet-A      7.4848 eV  165.65 nm  f=0.0001  <S**2>=0.000
      13 -> 16        -0.22967
      13 -> 18         0.43906
      13 -> 20         0.42704
      13 -> 21        -0.18220

 Excited State   6:      Singlet-A      7.8291 eV  158.36 nm  f=0.0102  <S**2>=0.000
      10 -> 14         0.61691
      13 -> 15        -0.10826
      13 -> 17         0.29321

 Excited State   7:      Singlet-A      8.0164 eV  154.66 nm  f=0.0056  <S**2>=0.000
      10 -> 14        -0.32845
      13 -> 15        -0.16512
      13 -> 17         0.57692

 Excited State   8:      Singlet-A      8.4634 eV  146.49 nm  f=0.1181  <S**2>=0.000
      11 -> 14         0.68255

 Excited State   9:      Singlet-A      8.4954 eV  145.94 nm  f=0.0027  <S**2>=0.000
      13 -> 16         0.15511
      13 -> 18        -0.30443
      13 -> 19         0.48018
      13 -> 20         0.34202

 Excited State  10:      Singlet-A      8.7975 eV  140.93 nm  f=0.0169  <S**2>=0.000
      13 -> 18         0.30415
      13 -> 19         0.48308
      13 -> 20        -0.35022
      13 -> 21         0.19564

 Excited State  11:      Singlet-A      9.2588 eV  133.91 nm  f=0.0711  <S**2>=0.000
      13 -> 20         0.24211
      13 -> 21         0.62637

 Excited State  12:      Singlet-A      9.3396 eV  132.75 nm  f=0.1035  <S**2>=0.000
       8 -> 15        -0.11036
       9 -> 18        -0.12853
      10 -> 17         0.19147
      12 -> 15        -0.22756
      12 -> 16         0.41890
      12 -> 18         0.32215
      12 -> 20         0.16655
      13 -> 21        -0.13239

 Excited State  13:      Singlet-A      9.5084 eV  130.39 nm  f=0.0005  <S**2>=0.000
       9 -> 14         0.68373
      12 -> 14         0.12161

 Excited State  14:      Singlet-A      9.6679 eV  128.24 nm  f=0.0388  <S**2>=0.000
       9 -> 15         0.11061
      10 -> 15         0.15495
      12 -> 15         0.59130
      12 -> 16         0.15287
      12 -> 17         0.15333
      12 -> 19         0.10932

 Excited State  15:      Singlet-A      9.9656 eV  124.41 nm  f=0.1059  <S**2>=0.000
       9 -> 16         0.13523
      10 -> 15        -0.22142
      10 -> 16        -0.23287
      10 -> 17        -0.20383
      12 -> 16         0.43891
      12 -> 18        -0.12903
      12 -> 19        -0.14351
      12 -> 20        -0.25620

 The electronic state is 1-A.
 Alpha  occ. eigenvalues --   -1.72221  -1.09996  -0.92988  -0.79628  -0.75039
 Alpha  occ. eigenvalues --   -0.66247  -0.63577  -0.54887  -0.49123  -0.44973
 Alpha  occ. eigenvalues --   -0.43666  -0.40142  -0.28183
 Alpha virt. eigenvalues --    0.10085   0.18426   0.19043   0.24902   0.26345
 Alpha virt. eigenvalues --    0.27947   0.28552   0.29725   0.38306   0.46876
 Alpha virt. eigenvalues --    0.51601

 Mulliken charges:
               1
     1  C   -0.150447
     2  C   -1.982993
     3  O    3.219111
     4  C   -1.940518
     5  C   -0.131413
     6  H    0.179032
     7  H    0.304906
     8  H    0.320541
     9  H    0.181781
 Sum of Mulliken charges =   0.00000

 Dipole moment (field-independent basis, Debye):
    X=              1.5365    Y=             -9.7744    Z=             -0.4691  Tot=              9.9055
 N-N= 1.037703747456D+02 E-N=-1.687627179102D+02  KE=-1.474988715224D+01
 Orbital energies and kinetic energies (alpha):
                                 1                 2
   1         O                -1.722213         -1.220264
   2         O                -1.099964         -0.968387
   3         O                -0.929875         -0.844746
   4         O                -0.796283         -0.599171
   5         O                -0.750390         -0.688571
   6         O                -0.662468         -0.561444
   7         O                -0.635771         -0.514697

 Normal termination of Gaussian 09 at Tue Dec 15 17:06:03 2015.
