 Gaussian 09, Revision D.01,
 Gaussian 09:  ES64L-G09RevD.01 24-Apr-2013

 ------------------------------------------------------------
 #P AM1(Input,print) CIS(Singlets,NStates=15) pop(full) force
 ------------------------------------------------------------

 -----------------
 AM1-Reparam Input
 -----------------
 Symbolic Z-matrix:
 Charge =  0 Multiplicity = 1

                         Standard orientation:
 ---------------------------------------------------------------------
 Center     Atomic      Atomic             Coordinates (Angstroms)
 Number     Number       Type             X           Y           Z
 ---------------------------------------------------------------------
      1          6           0       -0.580822    0.998465   -0.038253
      2          6           0       -1.094022   -0.221458    0.050986
      3          8           0       -0.151048   -1.125212   -0.037750
      4          6           0        1.033067   -0.491337    0.032976
      5          6           0        0.801596    0.893040    0.012313
      6          1           0        1.655578    1.614624   -0.044816
      7          1           0        1.897739   -1.124745   -0.014281
      8          1           0       -2.165750   -0.502364   -0.007960
      9          1           0       -1.138090    1.941924    0.020924
 ---------------------------------------------------------------------

 SCF Done:  E(RAM1) =   1.83586890353     A.U. after   13 cycles

 Excitation energies and oscillator strengths:

 Excited State   1:      Singlet-A      5.8571 eV  211.68 nm  f=0.2976  <S**2>=0.000
      11 -> 17        -0.12183
      13 -> 14         0.68422
 This state for optimization and/or second-order correction.
 Total Energy, E(CIS) =   2.05111514605
 Copying the excited state density for this state as the 1-particle RhoCI density.

 Excited State   2:      Singlet-A      6.5768 eV  188.52 nm  f=0.0044  <S**2>=0.000
      10 -> 15         0.12922
      13 -> 15         0.65647
      13 -> 16         0.11693
      13 -> 17        -0.15049

 Excited State   3:      Singlet-A      6.9131 eV  179.35 nm  f=0.0014  <S**2>=0.000
      12 -> 14         0.61005
      13 -> 16        -0.30863

 Excited State   4:      Singlet-A      6.9347 eV  178.79 nm  f=0.0011  <S**2>=0.000
      10 -> 16        -0.11043
      12 -> 14         0.34181
      13 -> 15        -0.10350
      13 -> 16         0.55971
      13 -> 17        -0.13284
      13 -> 19         0.12473

 Excited State   5:      Singlet-A      7.6229 eV  162.65 nm  f=0.0042  <S**2>=0.000
      11 -> 14         0.69432

 Excited State   6:      Singlet-A      8.2964 eV  149.44 nm  f=0.0084  <S**2>=0.000
      10 -> 16        -0.15754
      13 -> 16         0.15006
      13 -> 17         0.62439
      13 -> 18        -0.17295

 Excited State   7:      Singlet-A      8.4650 eV  146.47 nm  f=0.0035  <S**2>=0.000
      10 -> 15         0.10429
      13 -> 17         0.19205
      13 -> 18         0.58898
      13 -> 19         0.11099
      13 -> 21        -0.28116

 Excited State   8:      Singlet-A      8.8983 eV  139.33 nm  f=0.0288  <S**2>=0.000
       8 -> 15        -0.10848
      10 -> 14         0.54010
      11 -> 15        -0.11465
      11 -> 16        -0.10419
      11 -> 17         0.12657
      12 -> 15         0.25382
      12 -> 17         0.12296
      12 -> 18        -0.16456

 Excited State   9:      Singlet-A      9.0268 eV  137.35 nm  f=0.0573  <S**2>=0.000
       8 -> 16         0.12067
       9 -> 15         0.12124
      10 -> 14         0.34052
      11 -> 15         0.26466
      11 -> 16         0.15099
      11 -> 17        -0.24813
      12 -> 16         0.27830
      12 -> 18         0.21344
      13 -> 14        -0.10485

 Excited State  10:      Singlet-A      9.0855 eV  136.46 nm  f=0.0010  <S**2>=0.000
      10 -> 16         0.11391
      13 -> 18        -0.17308
      13 -> 19         0.64926

 Excited State  11:      Singlet-A      9.2106 eV  134.61 nm  f=0.1151  <S**2>=0.000
       9 -> 15         0.10653
      10 -> 14        -0.20122
      11 -> 15         0.21147
      12 -> 15         0.58969
      12 -> 17        -0.13278
      12 -> 19        -0.10981

 Excited State  12:      Singlet-A      9.6858 eV  128.01 nm  f=0.1113  <S**2>=0.000
       9 -> 16        -0.13440
      10 -> 15         0.11415
      11 -> 16         0.50651
      11 -> 17        -0.13328
      11 -> 19         0.17616
      12 -> 16        -0.30925
      12 -> 17         0.18723

 Excited State  13:      Singlet-A      9.7496 eV  127.17 nm  f=0.0103  <S**2>=0.000
      10 -> 15         0.40641
      10 -> 16         0.12711
      12 -> 16         0.12018
      13 -> 15        -0.10754
      13 -> 18        -0.23208
      13 -> 19        -0.14617
      13 -> 20         0.18836
      13 -> 21        -0.37534

 Excited State  14:      Singlet-A      9.8403 eV  126.00 nm  f=0.0616  <S**2>=0.000
       8 -> 16         0.16374
       9 -> 15        -0.16133
      10 -> 14        -0.16827
      10 -> 15         0.13883
      11 -> 15        -0.19864
      11 -> 18        -0.16760
      11 -> 19         0.15565
      12 -> 15         0.13718
      12 -> 16         0.38248
      12 -> 17         0.12718
      12 -> 19         0.12409
      12 -> 20        -0.11432
      13 -> 21         0.20763

 Excited State  15:      Singlet-A      9.9587 eV  124.50 nm  f=0.0305  <S**2>=0.000
      10 -> 15         0.37918
      10 -> 16         0.21705
      13 -> 15        -0.10290
      13 -> 18         0.11123
      13 -> 20        -0.33867
      13 -> 21         0.29995

 The electronic state is 1-A.
 Alpha  occ. eigenvalues --   -1.96007  -1.22748  -0.98538  -0.81318  -0.79829
 Alpha  occ. eigenvalues --   -0.70490  -0.66352  -0.52503  -0.49247  -0.42099
 Alpha  occ. eigenvalues --   -0.40628  -0.38618  -0.29018
 Alpha virt. eigenvalues --    0.14002   0.18011   0.19840   0.25568   0.27711
 Alpha virt. eigenvalues --    0.29963   0.31642   0.34933   0.38654   0.47127
 Alpha virt. eigenvalues --    0.52135

 Mulliken charges:
               1
     1  C   -0.090328
     2  C   -1.955060
     3  O    3.139069
     4  C   -1.952701
     5  C   -0.081230
     6  H    0.155087
     7  H    0.301375
     8  H    0.330607
     9  H    0.153182
 Sum of Mulliken charges =   0.00000

 Dipole moment (field-independent basis, Debye):
    X=             -1.8354    Y=             -9.5098    Z=             -1.2588  Tot=              9.7668
 N-N= 1.047453878278D+02 E-N=-1.707670481698D+02  KE=-1.570408248524D+01
 Orbital energies and kinetic energies (alpha):
                                 1                 2
   1         O                -1.960068         -1.451894
   2         O                -1.227479         -1.086852
   3         O                -0.985384         -0.906717
   4         O                -0.813185         -0.610564
   5         O                -0.798292         -0.693738
   6         O                -0.704897         -0.584097
   7         O                -0.663521         -0.579157

 Normal termination of Gaussian 09 at Tue Dec 15 17:10:05 2015.
