 Gaussian 09, Revision D.01,
 Gaussian 09:  ES64L-G09RevD.01 24-Apr-2013

 ------------------------------------------------------------
 #P AM1(Input,print) CIS(Singlets,NStates=15) pop(full) force
 ------------------------------------------------------------

 -----------------
 AM1-Reparam Input
 -----------------
 Symbolic Z-matrix:
 Charge =  0 Multiplicity = 1

                         Standard orientation:
 ---------------------------------------------------------------------
 Center     Atomic      Atomic             Coordinates (Angstroms)
 Number     Number       Type             X           Y           Z
 ---------------------------------------------------------------------
      1          6           0        0.961004    0.714901    0.003316
      2          6           0        0.937369   -0.618462   -0.000946
      3          8           0       -0.343133   -1.143220   -0.015483
      4          6           0       -1.091747   -0.002208    0.030209
      5          6           0       -0.447050    1.116828   -0.006390
      6          1           0       -0.799831    2.085926   -0.007749
      7          1           0       -2.187945   -0.289368   -0.041894
      8          1           0        1.755621   -1.305255    0.050051
      9          1           0        1.819766    1.388099   -0.033679
 ---------------------------------------------------------------------

 SCF Done:  E(RAM1) =  0.299609670192E-01 A.U. after   13 cycles

 Excitation energies and oscillator strengths:

 Excited State   1:      Singlet-A      4.6716 eV  265.40 nm  f=0.0670  <S**2>=0.000
      12 -> 15         0.20124
      13 -> 14         0.67082
 This state for optimization and/or second-order correction.
 Total Energy, E(CIS) =  0.201637830581
 Copying the excited state density for this state as the 1-particle RhoCI density.

 Excited State   2:      Singlet-A      5.3375 eV  232.29 nm  f=0.0042  <S**2>=0.000
      12 -> 14        -0.42664
      13 -> 15         0.54622
      13 -> 16         0.11173

 Excited State   3:      Singlet-A      5.5282 eV  224.28 nm  f=0.0003  <S**2>=0.000
      13 -> 16         0.66381
      13 -> 21        -0.10682
      13 -> 22         0.10819

 Excited State   4:      Singlet-A      6.0423 eV  205.19 nm  f=0.0034  <S**2>=0.000
       7 -> 16        -0.10086
      12 -> 16         0.41694
      12 -> 21        -0.21503
      13 -> 17         0.22323
      13 -> 18         0.37697
      13 -> 19         0.11964
      13 -> 21        -0.10752
      13 -> 23         0.12514

 Excited State   5:      Singlet-A      6.1624 eV  201.19 nm  f=0.0015  <S**2>=0.000
       7 -> 16        -0.15795
      12 -> 15         0.10022
      12 -> 16         0.46443
      12 -> 19        -0.12126
      12 -> 22         0.10682
      13 -> 17        -0.21568
      13 -> 18        -0.27185
      13 -> 19        -0.12401
      13 -> 21         0.17063
      13 -> 23        -0.12528

 Excited State   6:      Singlet-A      6.3471 eV  195.34 nm  f=0.0100  <S**2>=0.000
      12 -> 17        -0.12002
      12 -> 18        -0.28320
      12 -> 23        -0.11805
      12 -> 24        -0.12033
      13 -> 17         0.15694
      13 -> 18         0.18345
      13 -> 19        -0.25261
      13 -> 20         0.11582
      13 -> 21         0.42235

 Excited State   7:      Singlet-A      6.4049 eV  193.58 nm  f=0.2929  <S**2>=0.000
      12 -> 14         0.45480
      12 -> 15         0.30675
      13 -> 15         0.36460

 Excited State   8:      Singlet-A      6.4596 eV  191.94 nm  f=0.0041  <S**2>=0.000
      11 -> 14        -0.15280
      12 -> 15         0.10477
      12 -> 19        -0.13512
      13 -> 17         0.54358
      13 -> 18        -0.18870
      13 -> 19        -0.11426
      13 -> 23        -0.18469
      13 -> 24        -0.13450

 Excited State   9:      Singlet-A      6.5295 eV  189.88 nm  f=0.1972  <S**2>=0.000
      12 -> 14        -0.23176
      12 -> 15         0.56756
      12 -> 16        -0.10617
      13 -> 14        -0.17125
      13 -> 15        -0.19291

 Excited State  10:      Singlet-A      6.9138 eV  179.33 nm  f=0.0013  <S**2>=0.000
      12 -> 17         0.54094
      12 -> 18         0.17215
      12 -> 20         0.12586
      12 -> 24        -0.10957
      13 -> 18         0.10424
      13 -> 19        -0.30514

 Excited State  11:      Singlet-A      7.2897 eV  170.08 nm  f=0.0004  <S**2>=0.000
      10 -> 14         0.47203
      10 -> 15         0.14460
      11 -> 15        -0.43366

 Excited State  12:      Singlet-A      7.3315 eV  169.11 nm  f=0.0031  <S**2>=0.000
       9 -> 14         0.13735
      10 -> 15        -0.18102
      11 -> 14         0.59757
      11 -> 15        -0.18411
      13 -> 17         0.12904

 Excited State  13:      Singlet-A      7.5396 eV  164.44 nm  f=0.0009  <S**2>=0.000
      10 -> 14        -0.15534
      11 -> 14        -0.14001
      12 -> 17        -0.13495
      12 -> 18         0.39564
      12 -> 20        -0.12546
      12 -> 21         0.15412
      12 -> 23         0.15089
      12 -> 24        -0.11246
      13 -> 18         0.13949
      13 -> 20        -0.18873
      13 -> 21         0.25573
      13 -> 22        -0.14163
      13 -> 24        -0.10379

 Excited State  14:      Singlet-A      7.6294 eV  162.51 nm  f=0.0004  <S**2>=0.000
       9 -> 14        -0.18609
      10 -> 14         0.17738
      10 -> 15         0.11441
      12 -> 18         0.11268
      12 -> 20         0.23970
      13 -> 16         0.11770
      13 -> 19         0.37912
      13 -> 21         0.30962
      13 -> 22        -0.13567
      13 -> 23         0.11178

 Excited State  15:      Singlet-A      7.7404 eV  160.18 nm  f=0.0014  <S**2>=0.000
       8 -> 15         0.10693
       9 -> 14         0.39759
      10 -> 14        -0.10385
      10 -> 15        -0.17692
      11 -> 14        -0.20244
      11 -> 15        -0.28113
      12 -> 20         0.12460
      12 -> 23        -0.10657
      13 -> 18        -0.11100
      13 -> 19         0.19482
      13 -> 20         0.14562
      13 -> 22        -0.13047
      13 -> 23        -0.11031

 The electronic state is 1-A.
 Alpha  occ. eigenvalues --   -1.57096  -1.25034  -1.10373  -0.82485  -0.81002
 Alpha  occ. eigenvalues --   -0.68570  -0.60177  -0.55664  -0.52231  -0.50892
 Alpha  occ. eigenvalues --   -0.48625  -0.39887  -0.35812
 Alpha virt. eigenvalues --    0.03454   0.06510   0.10482   0.12901   0.14351
 Alpha virt. eigenvalues --    0.15768   0.17542   0.18508   0.18924   0.20508
 Alpha virt. eigenvalues --    0.22120

 Mulliken charges:
               1
     1  C   -0.206923
     2  C   -0.100080
     3  O   -0.086340
     4  C   -0.089519
     5  C   -0.194255
     6  H    0.159222
     7  H    0.176577
     8  H    0.176560
     9  H    0.164758
 Sum of Mulliken charges =   0.00000

 Dipole moment (field-independent basis, Debye):
    X=              0.1595    Y=              0.5098    Z=             -0.0352  Tot=              0.5353
 N-N= 1.036866186706D+02 E-N=-1.713777113179D+02  KE=-1.657863549933D+01
 Orbital energies and kinetic energies (alpha):
                                 1                 2
   1         O                -1.570959         -1.324490
   2         O                -1.250338         -1.054537
   3         O                -1.103734         -0.962399
   4         O                -0.824853         -0.702334
   5         O                -0.810020         -0.722039
   6         O                -0.685697         -0.604574
   7         O                -0.601766         -0.488374

 Normal termination of Gaussian 09 at Tue Dec 15 16:19:42 2015.
