 Gaussian 09, Revision D.01,
 Gaussian 09:  ES64L-G09RevD.01 24-Apr-2013

 ------------------------------------------------------------
 #P AM1(Input,print) CIS(Singlets,NStates=15) pop(full) force
 ------------------------------------------------------------

 -----------------
 AM1-Reparam Input
 -----------------
 Symbolic Z-matrix:
 Charge =  0 Multiplicity = 1

                         Standard orientation:
 ---------------------------------------------------------------------
 Center     Atomic      Atomic             Coordinates (Angstroms)
 Number     Number       Type             X           Y           Z
 ---------------------------------------------------------------------
      1          6           0       -1.130919    0.287243   -0.029313
      2          6           0       -0.637332   -0.884118    0.006210
      3          8           0        0.735099   -0.927321   -0.005206
      4          6           0        1.033423    0.377811   -0.009964
      5          6           0       -0.047682    1.198774    0.038390
      6          1           0        0.041450    2.270713   -0.035986
      7          1           0        2.146735    0.537052   -0.008008
      8          1           0       -1.150029   -1.903191    0.061767
      9          1           0       -2.223890    0.635741   -0.008065
 ---------------------------------------------------------------------

 SCF Done:  E(RAM1) =  0.422110253022E-01 A.U. after   13 cycles

 Excitation energies and oscillator strengths:

 Excited State   1:      Singlet-A      4.5741 eV  271.06 nm  f=0.0832  <S**2>=0.000
      12 -> 15         0.17937
      13 -> 14         0.67531
 This state for optimization and/or second-order correction.
 Total Energy, E(CIS) =  0.210304858332
 Copying the excited state density for this state as the 1-particle RhoCI density.

 Excited State   2:      Singlet-A      5.2898 eV  234.38 nm  f=0.0120  <S**2>=0.000
      12 -> 14        -0.37497
      13 -> 15         0.56341
      13 -> 16        -0.18249

 Excited State   3:      Singlet-A      5.3338 eV  232.45 nm  f=0.0008  <S**2>=0.000
      12 -> 14        -0.10578
      13 -> 15         0.15587
      13 -> 16         0.64650
      13 -> 19         0.10053
      13 -> 21        -0.15768

 Excited State   4:      Singlet-A      5.8715 eV  211.16 nm  f=0.0018  <S**2>=0.000
      12 -> 18         0.10504
      12 -> 20         0.10755
      12 -> 22        -0.11305
      13 -> 17         0.16539
      13 -> 18         0.46778
      13 -> 20         0.28350
      13 -> 22        -0.28083
      13 -> 23        -0.13479
      13 -> 24        -0.11401

 Excited State   5:      Singlet-A      6.2748 eV  197.59 nm  f=0.0049  <S**2>=0.000
       7 -> 16        -0.14338
      12 -> 16         0.57296
      12 -> 18         0.11286
      12 -> 21        -0.15354
      12 -> 22         0.12898
      13 -> 19         0.18326
      13 -> 22        -0.15761

 Excited State   6:      Singlet-A      6.3375 eV  195.63 nm  f=0.0139  <S**2>=0.000
      12 -> 14        -0.12954
      12 -> 16         0.22031
      13 -> 17         0.54114
      13 -> 18        -0.12457
      13 -> 19        -0.23216
      13 -> 22         0.14281

 Excited State   7:      Singlet-A      6.4584 eV  191.97 nm  f=0.3144  <S**2>=0.000
      12 -> 14         0.52425
      12 -> 15         0.12853
      13 -> 15         0.35087
      13 -> 17         0.15233

 Excited State   8:      Singlet-A      6.5017 eV  190.69 nm  f=0.0004  <S**2>=0.000
      12 -> 16        -0.18200
      12 -> 19        -0.20949
      12 -> 22         0.13329
      12 -> 23        -0.11737
      12 -> 24        -0.11085
      13 -> 17         0.22132
      13 -> 18        -0.14341
      13 -> 19         0.32177
      13 -> 21         0.10354
      13 -> 22        -0.26930
      13 -> 23         0.24634

 Excited State   9:      Singlet-A      6.7261 eV  184.33 nm  f=0.1496  <S**2>=0.000
      12 -> 15         0.65410
      13 -> 14        -0.16668

 Excited State  10:      Singlet-A      7.0108 eV  176.85 nm  f=0.0041  <S**2>=0.000
      12 -> 17         0.44360
      12 -> 18         0.14512
      12 -> 19        -0.12624
      13 -> 16         0.10260
      13 -> 17        -0.14136
      13 -> 18        -0.21228
      13 -> 19        -0.32627
      13 -> 21         0.12152
      13 -> 22        -0.13637

 Excited State  11:      Singlet-A      7.1041 eV  174.52 nm  f=0.0022  <S**2>=0.000
       9 -> 14        -0.17989
      10 -> 14        -0.38686
      11 -> 14         0.44429
      11 -> 15         0.25024

 Excited State  12:      Singlet-A      7.3866 eV  167.85 nm  f=0.0092  <S**2>=0.000
      11 -> 15        -0.10525
      12 -> 17         0.30246
      12 -> 19         0.20698
      12 -> 20         0.19803
      12 -> 21         0.11590
      12 -> 23         0.19923
      13 -> 19         0.27290
      13 -> 20         0.19420
      13 -> 22         0.29732
      13 -> 23         0.11236
      13 -> 24        -0.11984

 Excited State  13:      Singlet-A      7.4884 eV  165.57 nm  f=0.0010  <S**2>=0.000
      11 -> 14        -0.11799
      12 -> 18        -0.23525
      12 -> 19         0.28404
      12 -> 22        -0.10926
      13 -> 18        -0.19317
      13 -> 21         0.38979
      13 -> 22        -0.23586
      13 -> 23        -0.12807
      13 -> 24        -0.12663

 Excited State  14:      Singlet-A      7.6018 eV  163.10 nm  f=0.0064  <S**2>=0.000
       9 -> 14        -0.11634
      10 -> 14         0.38717
      10 -> 15        -0.24744
      11 -> 14         0.37834
      11 -> 15        -0.23806
      13 -> 17        -0.11143
      13 -> 19        -0.12363

 Excited State  15:      Singlet-A      7.6913 eV  161.20 nm  f=0.0019  <S**2>=0.000
       9 -> 14         0.19851
       9 -> 15        -0.10444
      12 -> 18        -0.26634
      12 -> 21        -0.22478
      12 -> 22         0.18812
      13 -> 18         0.24035
      13 -> 19        -0.10415
      13 -> 21         0.17562
      13 -> 23         0.31259
      13 -> 24         0.18301

 The electronic state is 1-A.
 Alpha  occ. eigenvalues --   -1.59167  -1.25737  -1.09398  -0.82687  -0.80165
 Alpha  occ. eigenvalues --   -0.68295  -0.61039  -0.54784  -0.51877  -0.50013
 Alpha  occ. eigenvalues --   -0.48775  -0.40341  -0.35098
 Alpha virt. eigenvalues --    0.03568   0.07042   0.10337   0.13098   0.13762
 Alpha virt. eigenvalues --    0.15308   0.17502   0.18126   0.18693   0.20644
 Alpha virt. eigenvalues --    0.22478

 Mulliken charges:
               1
     1  C   -0.188291
     2  C   -0.111300
     3  O   -0.066576
     4  C   -0.113761
     5  C   -0.212258
     6  H    0.164003
     7  H    0.181029
     8  H    0.180819
     9  H    0.166336
 Sum of Mulliken charges =   0.00000

 Dipole moment (field-independent basis, Debye):
    X=             -0.2721    Y=              0.3306    Z=             -0.0091  Tot=              0.4283
 N-N= 1.039071843398D+02 E-N=-1.718051381846D+02  KE=-1.657729489041D+01
 Orbital energies and kinetic energies (alpha):
                                 1                 2
   1         O                -1.591665         -1.338876
   2         O                -1.257366         -1.059297
   3         O                -1.093982         -0.953346
   4         O                -0.826867         -0.701710
   5         O                -0.801652         -0.709003
   6         O                -0.682953         -0.602958
   7         O                -0.610394         -0.494527

 Normal termination of Gaussian 09 at Tue Dec 15 16:11:17 2015.
