 Gaussian 09, Revision D.01,
 Gaussian 09:  ES64L-G09RevD.01 24-Apr-2013

 ------------------------------------------------------------
 #P AM1(Input,print) CIS(Singlets,NStates=15) pop(full) force
 ------------------------------------------------------------

 -----------------
 AM1-Reparam Input
 -----------------
 Symbolic Z-matrix:
 Charge =  0 Multiplicity = 1

                         Standard orientation:
 ---------------------------------------------------------------------
 Center     Atomic      Atomic             Coordinates (Angstroms)
 Number     Number       Type             X           Y           Z
 ---------------------------------------------------------------------
      1          6           0       -0.665865    0.957278    0.014724
      2          6           0       -1.132175   -0.269605   -0.006172
      3          8           0       -0.098945   -1.117611    0.002424
      4          6           0        1.108963   -0.423892   -0.004289
      5          6           0        0.776661    0.915995   -0.001533
      6          1           0        1.541009    1.678498   -0.014108
      7          1           0        2.043037   -1.016907    0.012523
      8          1           0       -2.092149   -0.719377   -0.010107
      9          1           0       -1.225847    1.920021   -0.024073
 ---------------------------------------------------------------------

 SCF Done:  E(RAM1) =   2.52999119663     A.U. after   13 cycles

 Excitation energies and oscillator strengths:

 Excited State   1:      Singlet-A      5.2347 eV  236.85 nm  f=0.3498  <S**2>=0.000
      13 -> 14         0.69567
 This state for optimization and/or second-order correction.
 Total Energy, E(CIS) =   2.72236246315
 Copying the excited state density for this state as the 1-particle RhoCI density.

 Excited State   2:      Singlet-A      6.3422 eV  195.49 nm  f=0.0026  <S**2>=0.000
      10 -> 15         0.10649
      13 -> 15         0.66298
      13 -> 17        -0.13447
      13 -> 19         0.10545

 Excited State   3:      Singlet-A      6.5792 eV  188.45 nm  f=0.0016  <S**2>=0.000
      10 -> 16        -0.10411
      13 -> 16         0.63934
      13 -> 17        -0.19115
      13 -> 19        -0.14907

 Excited State   4:      Singlet-A      6.7745 eV  183.01 nm  f=0.0004  <S**2>=0.000
       9 -> 14        -0.11735
      12 -> 14         0.69330

 Excited State   5:      Singlet-A      7.6863 eV  161.31 nm  f=0.0011  <S**2>=0.000
      11 -> 14         0.30645
      13 -> 16         0.15928
      13 -> 17         0.30115
      13 -> 18         0.45219
      13 -> 21        -0.26552

 Excited State   6:      Singlet-A      7.7377 eV  160.23 nm  f=0.0047  <S**2>=0.000
      11 -> 14         0.61315
      13 -> 18        -0.28444
      13 -> 21         0.14886

 Excited State   7:      Singlet-A      8.1633 eV  151.88 nm  f=0.0082  <S**2>=0.000
      11 -> 14        -0.12476
      13 -> 15         0.13611
      13 -> 16         0.10893
      13 -> 17         0.57827
      13 -> 18        -0.27604
      13 -> 21         0.11085

 Excited State   8:      Singlet-A      8.7795 eV  141.22 nm  f=0.0592  <S**2>=0.000
      10 -> 14         0.55820
      12 -> 15         0.10121
      13 -> 19        -0.36336

 Excited State   9:      Singlet-A      8.7882 eV  141.08 nm  f=0.0299  <S**2>=0.000
      10 -> 14         0.38135
      13 -> 18        -0.13708
      13 -> 19         0.53358

 Excited State  10:      Singlet-A      9.3426 eV  132.71 nm  f=0.0140  <S**2>=0.000
      12 -> 15         0.18193
      12 -> 16        -0.10507
      12 -> 18         0.11861
      13 -> 18         0.28045
      13 -> 19         0.14092
      13 -> 20        -0.13978
      13 -> 21         0.53032

 Excited State  11:      Singlet-A      9.3673 eV  132.36 nm  f=0.0536  <S**2>=0.000
      11 -> 17         0.16647
      12 -> 15         0.45520
      12 -> 16        -0.22290
      12 -> 18         0.24064
      13 -> 18        -0.12299
      13 -> 21        -0.24381

 Excited State  12:      Singlet-A      9.5400 eV  129.96 nm  f=0.0815  <S**2>=0.000
       9 -> 15         0.16633
      11 -> 15         0.25351
      11 -> 16         0.12482
      11 -> 17        -0.21886
      12 -> 15         0.41387
      12 -> 16         0.16229
      12 -> 17        -0.20450
      12 -> 18        -0.21919

 Excited State  13:      Singlet-A      9.7792 eV  126.78 nm  f=0.0998  <S**2>=0.000
      13 -> 20         0.66903
      13 -> 21         0.14891

 Excited State  14:      Singlet-A      9.8768 eV  125.53 nm  f=0.1381  <S**2>=0.000
      11 -> 16        -0.40030
      11 -> 17         0.11574
      12 -> 16         0.50611
      12 -> 18         0.12582

 Excited State  15:      Singlet-A      9.9021 eV  125.21 nm  f=0.0028  <S**2>=0.000
       9 -> 14         0.67202
      12 -> 14         0.11594

 The electronic state is 1-A.
 Alpha  occ. eigenvalues --   -1.74557  -1.15160  -0.96561  -0.81238  -0.76141
 Alpha  occ. eigenvalues --   -0.67058  -0.65028  -0.56679  -0.50614  -0.44638
 Alpha  occ. eigenvalues --   -0.44013  -0.40896  -0.29072
 Alpha virt. eigenvalues --    0.10567   0.17035   0.18437   0.24465   0.26540
 Alpha virt. eigenvalues --    0.28279   0.30542   0.30922   0.39228   0.47839
 Alpha virt. eigenvalues --    0.53517

 Mulliken charges:
               1
     1  C   -0.109894
     2  C   -1.913885
     3  O    3.241863
     4  C   -1.936069
     5  C   -0.064850
     6  H    0.127541
     7  H    0.259708
     8  H    0.263853
     9  H    0.131733
 Sum of Mulliken charges =   0.00000

 Dipole moment (field-independent basis, Debye):
    X=             -1.1823    Y=            -10.1526    Z=              0.0936  Tot=             10.2216
 N-N= 1.037111886747D+02 E-N=-1.685127849471D+02  KE=-1.501652596227D+01
 Orbital energies and kinetic energies (alpha):
                                 1                 2
   1         O                -1.745565         -1.241591
   2         O                -1.151596         -0.992991
   3         O                -0.965609         -0.864779
   4         O                -0.812376         -0.619212
   5         O                -0.761410         -0.688796
   6         O                -0.670583         -0.564171
   7         O                -0.650282         -0.521720

 Normal termination of Gaussian 09 at Tue Dec 15 17:06:17 2015.
