 Gaussian 09, Revision D.01,
 Gaussian 09:  ES64L-G09RevD.01 24-Apr-2013

 ------------------------------------------------------------
 #P AM1(Input,print) CIS(Singlets,NStates=15) pop(full) force
 ------------------------------------------------------------

 -----------------
 AM1-Reparam Input
 -----------------
 Symbolic Z-matrix:
 Charge =  0 Multiplicity = 1

                         Standard orientation:
 ---------------------------------------------------------------------
 Center     Atomic      Atomic             Coordinates (Angstroms)
 Number     Number       Type             X           Y           Z
 ---------------------------------------------------------------------
      1          6           0        0.867254    0.750367   -0.006659
      2          6           0        1.031277   -0.573175    0.003733
      3          8           0       -0.267478   -1.103384   -0.017968
      4          6           0       -1.161435   -0.142458    0.039961
      5          6           0       -0.452088    1.109645   -0.021723
      6          1           0       -0.915346    2.034524    0.000670
      7          1           0       -2.163544   -0.350638   -0.026643
      8          1           0        1.785176   -1.221629    0.023659
      9          1           0        1.723492    1.498536    0.054184
 ---------------------------------------------------------------------

 SCF Done:  E(RAM1) =   1.72801639041     A.U. after   13 cycles

 Excitation energies and oscillator strengths:

 Excited State   1:      Singlet-A      5.7707 eV  214.85 nm  f=0.3316  <S**2>=0.000
      13 -> 14         0.68750
 This state for optimization and/or second-order correction.
 Total Energy, E(CIS) =   1.94008495133
 Copying the excited state density for this state as the 1-particle RhoCI density.

 Excited State   2:      Singlet-A      7.1051 eV  174.50 nm  f=0.0061  <S**2>=0.000
      12 -> 14         0.69535

 Excited State   3:      Singlet-A      7.3891 eV  167.79 nm  f=0.0093  <S**2>=0.000
      13 -> 15         0.66868
      13 -> 17        -0.13337

 Excited State   4:      Singlet-A      8.0367 eV  154.27 nm  f=0.0056  <S**2>=0.000
      11 -> 14         0.67581
      13 -> 16         0.16165

 Excited State   5:      Singlet-A      8.1698 eV  151.76 nm  f=0.0013  <S**2>=0.000
      10 -> 16         0.10388
      11 -> 14        -0.17222
      13 -> 16         0.64545
      13 -> 19        -0.15857

 Excited State   6:      Singlet-A      9.2334 eV  134.28 nm  f=0.0016  <S**2>=0.000
      10 -> 15        -0.10086
      13 -> 17         0.49684
      13 -> 18         0.36096
      13 -> 19        -0.16372
      13 -> 22         0.24703

 Excited State   7:      Singlet-A      9.4475 eV  131.23 nm  f=0.0514  <S**2>=0.000
      10 -> 14         0.61133
      11 -> 15         0.10857
      12 -> 15        -0.14994
      12 -> 17         0.20028

 Excited State   8:      Singlet-A      9.8118 eV  126.36 nm  f=0.0091  <S**2>=0.000
      10 -> 16         0.13578
      13 -> 17         0.43400
      13 -> 18        -0.43103
      13 -> 19         0.22728
      13 -> 22        -0.13885

 Excited State   9:      Singlet-A      9.9623 eV  124.45 nm  f=0.2155  <S**2>=0.000
       9 -> 15         0.11988
      10 -> 14         0.29775
      11 -> 15        -0.14381
      11 -> 16        -0.16752
      11 -> 18        -0.15313
      11 -> 19         0.12202
      12 -> 15         0.43018
      12 -> 17        -0.23503
      13 -> 14        -0.10731

 Excited State  10:      Singlet-A     10.1929 eV  121.64 nm  f=0.0059  <S**2>=0.000
      10 -> 15         0.15583
      13 -> 18         0.35372
      13 -> 19         0.52993
      13 -> 22        -0.14806

 Excited State  11:      Singlet-A     10.5545 eV  117.47 nm  f=0.0150  <S**2>=0.000
      11 -> 15         0.51756
      11 -> 17        -0.11858
      11 -> 18         0.10929
      12 -> 15         0.26109
      12 -> 16         0.30571

 Excited State  12:      Singlet-A     10.6615 eV  116.29 nm  f=0.2217  <S**2>=0.000
      11 -> 15        -0.20498
      12 -> 15        -0.22602
      12 -> 16         0.52508
      12 -> 17        -0.14078
      12 -> 18        -0.17694
      12 -> 19        -0.19818

 Excited State  13:      Singlet-A     10.7424 eV  115.42 nm  f=0.0602  <S**2>=0.000
       9 -> 15         0.13503
      10 -> 14        -0.10633
      11 -> 15        -0.24807
      11 -> 16         0.10804
      11 -> 18        -0.12667
      12 -> 15         0.18746
      12 -> 16         0.25213
      12 -> 17         0.35971
      12 -> 18         0.30233
      12 -> 20         0.12636

 Excited State  14:      Singlet-A     11.0180 eV  112.53 nm  f=0.0071  <S**2>=0.000
       9 -> 14        -0.17089
      13 -> 17        -0.11342
      13 -> 18        -0.12254
      13 -> 19         0.27023
      13 -> 20         0.15513
      13 -> 22         0.56711

 Excited State  15:      Singlet-A     11.1356 eV  111.34 nm  f=0.0470  <S**2>=0.000
       9 -> 14         0.10277
      10 -> 15         0.45348
      13 -> 20         0.48521

 The electronic state is 1-A.
 Alpha  occ. eigenvalues --   -1.91788  -1.18816  -0.93854  -0.82512  -0.79912
 Alpha  occ. eigenvalues --   -0.70854  -0.68582  -0.59283  -0.55993  -0.47853
 Alpha  occ. eigenvalues --   -0.45783  -0.42483  -0.32797
 Alpha virt. eigenvalues --    0.10293   0.18350   0.21354   0.25602   0.27989
 Alpha virt. eigenvalues --    0.29222   0.32277   0.34173   0.34425   0.42109
 Alpha virt. eigenvalues --    0.46963

 Mulliken charges:
               1
     1  C   -0.086486
     2  C   -2.018641
     3  O    3.317566
     4  C   -2.084870
     5  C   -0.225365
     6  H    0.218830
     7  H    0.343656
     8  H    0.322280
     9  H    0.213029
 Sum of Mulliken charges =   0.00000

 Dipole moment (field-independent basis, Debye):
    X=             -2.2886    Y=             -9.5142    Z=             -0.5818  Tot=              9.8029
 N-N= 1.042261292962D+02 E-N=-1.696294540132D+02  KE=-1.555653565251D+01
 Orbital energies and kinetic energies (alpha):
                                 1                 2
   1         O                -1.917883         -1.381312
   2         O                -1.188164         -1.051018
   3         O                -0.938542         -0.888356
   4         O                -0.825122         -0.576366
   5         O                -0.799118         -0.707559
   6         O                -0.708544         -0.599861
   7         O                -0.685824         -0.541245

 Normal termination of Gaussian 09 at Tue Dec 15 17:09:49 2015.
