 Gaussian 09, Revision D.01,
 Gaussian 09:  ES64L-G09RevD.01 24-Apr-2013

 ------------------------------------------------------------
 #P AM1(Input,print) CIS(Singlets,NStates=15) pop(full) force
 ------------------------------------------------------------

 -----------------
 AM1-Reparam Input
 -----------------
 Symbolic Z-matrix:
 Charge =  0 Multiplicity = 1

                         Standard orientation:
 ---------------------------------------------------------------------
 Center     Atomic      Atomic             Coordinates (Angstroms)
 Number     Number       Type             X           Y           Z
 ---------------------------------------------------------------------
      1          6           0        0.906798    0.776835   -0.013504
      2          6           0        1.034385   -0.574751    0.020855
      3          8           0       -0.305036   -1.109669   -0.002194
      4          6           0       -1.147473   -0.105361   -0.002074
      5          6           0       -0.458687    1.060529   -0.015200
      6          1           0       -0.909003    2.133576    0.071905
      7          1           0       -2.221451   -0.316488    0.014679
      8          1           0        1.834847   -1.276483   -0.028184
      9          1           0        1.725766    1.393239    0.018693
 ---------------------------------------------------------------------

 SCF Done:  E(RAM1) =  -3.69513047743     A.U. after   14 cycles

 Excitation energies and oscillator strengths:

 Excited State   1:      Singlet-A      6.7102 eV  184.77 nm  f=0.1450  <S**2>=0.000
      12 -> 14        -0.31329
      13 -> 14         0.60702
 This state for optimization and/or second-order correction.
 Total Energy, E(CIS) =  -3.44853449781
 Copying the excited state density for this state as the 1-particle RhoCI density.

 Excited State   2:      Singlet-A      7.1027 eV  174.56 nm  f=0.0950  <S**2>=0.000
       9 -> 14        -0.13894
      10 -> 14         0.14720
      12 -> 14         0.58143
      13 -> 14         0.32373

 Excited State   3:      Singlet-A      7.9053 eV  156.84 nm  f=0.0083  <S**2>=0.000
      11 -> 14        -0.17986
      13 -> 15         0.66156

 Excited State   4:      Singlet-A      8.0887 eV  153.28 nm  f=0.0005  <S**2>=0.000
       8 -> 14         0.11932
       9 -> 14        -0.18182
      11 -> 14         0.62219
      13 -> 15         0.19775
      13 -> 16        -0.13037

 Excited State   5:      Singlet-A      8.4536 eV  146.66 nm  f=0.0139  <S**2>=0.000
      11 -> 14         0.16624
      13 -> 16         0.66991

 Excited State   6:      Singlet-A      8.8341 eV  140.35 nm  f=0.0050  <S**2>=0.000
       9 -> 14        -0.40855
      10 -> 14         0.48690
      11 -> 14        -0.12961
      12 -> 14        -0.23907

 Excited State   7:      Singlet-A      9.5235 eV  130.19 nm  f=0.0060  <S**2>=0.000
       9 -> 14         0.45425
      10 -> 14         0.38719
      12 -> 15        -0.27434
      12 -> 16        -0.12529
      13 -> 17         0.17798

 Excited State   8:      Singlet-A      9.7089 eV  127.70 nm  f=0.1471  <S**2>=0.000
       9 -> 14         0.13344
      10 -> 14         0.13806
      11 -> 15        -0.20340
      12 -> 15         0.56471
      13 -> 17         0.24901

 Excited State   9:      Singlet-A     10.2542 eV  120.91 nm  f=0.0013  <S**2>=0.000
       8 -> 14        -0.13972
      13 -> 17         0.19799
      13 -> 18         0.64958

 Excited State  10:      Singlet-A     10.2859 eV  120.54 nm  f=0.0676  <S**2>=0.000
       9 -> 16        -0.12692
      12 -> 15        -0.11431
      12 -> 16         0.56788
      13 -> 17         0.30103
      13 -> 18        -0.10398

 Excited State  11:      Singlet-A     10.3399 eV  119.91 nm  f=0.0023  <S**2>=0.000
       8 -> 14         0.66934
      11 -> 14        -0.11298
      13 -> 18         0.12104

 Excited State  12:      Singlet-A     10.8125 eV  114.67 nm  f=0.2166  <S**2>=0.000
       9 -> 14        -0.12072
       9 -> 15         0.11146
      10 -> 14        -0.13780
      10 -> 15         0.20529
      10 -> 16        -0.11315
      11 -> 15         0.28914
      12 -> 16        -0.22414
      13 -> 17         0.40910
      13 -> 18        -0.16242
      13 -> 19         0.18774

 Excited State  13:      Singlet-A     10.8219 eV  114.57 nm  f=0.0849  <S**2>=0.000
       9 -> 15         0.21482
       9 -> 16        -0.10939
      10 -> 15         0.40490
      12 -> 16         0.12209
      13 -> 17        -0.23072
      13 -> 19         0.40881

 Excited State  14:      Singlet-A     11.1689 eV  111.01 nm  f=0.0049  <S**2>=0.000
       9 -> 15        -0.14987
       9 -> 16        -0.14299
      10 -> 15        -0.38035
      10 -> 16        -0.29769
      11 -> 15        -0.11231
      11 -> 16        -0.13901
      13 -> 19         0.39144

 Excited State  15:      Singlet-A     11.3732 eV  109.01 nm  f=0.0173  <S**2>=0.000
      11 -> 15         0.11969
      12 -> 17         0.64393
      12 -> 18        -0.14162

 The electronic state is 1-A.
 Alpha  occ. eigenvalues --   -3.18770  -1.30131  -1.03226  -0.98762  -0.96354
 Alpha  occ. eigenvalues --   -0.84913  -0.79320  -0.62583  -0.58052  -0.57194
 Alpha  occ. eigenvalues --   -0.56614  -0.49958  -0.45485
 Alpha virt. eigenvalues --   -0.00524   0.07019   0.09176   0.15742   0.16021
 Alpha virt. eigenvalues --    0.19622   0.23915   0.29824   0.40634   0.42987
 Alpha virt. eigenvalues --    0.45029

 Mulliken charges:
               1
     1  C   -0.301709
     2  C   -0.996958
     3  O    2.498017
     4  C   -1.029412
     5  C   -0.367938
     6  H    0.116537
     7  H    0.000011
     8  H   -0.011470
     9  H    0.092921
 Sum of Mulliken charges =   0.00000

 Dipole moment (field-independent basis, Debye):
    X=             -3.0194    Y=             -9.4622    Z=             -0.0283  Tot=              9.9323
 N-N= 1.016572644956D+02 E-N=-1.647670161200D+02  KE=-2.111054551588D+01
 Orbital energies and kinetic energies (alpha):
                                 1                 2
   1         O                -3.187699         -2.400499
   2         O                -1.301314         -1.125076
   3         O                -1.032261         -0.914319
   4         O                -0.987621         -0.887606
   5         O                -0.963542         -0.899799
   6         O                -0.849127         -0.801844
   7         O                -0.793197         -0.631167

 Normal termination of Gaussian 09 at Fri Dec 11 13:41:36 2015.
