 Gaussian 09, Revision D.01,
 Gaussian 09:  ES64L-G09RevD.01 24-Apr-2013

 ------------------------------------------------------------
 #P AM1(Input,print) CIS(Singlets,NStates=15) pop(full) force
 ------------------------------------------------------------

 -----------------
 AM1-Reparam Input
 -----------------
 Symbolic Z-matrix:
 Charge =  0 Multiplicity = 1

                         Standard orientation:
 ---------------------------------------------------------------------
 Center     Atomic      Atomic             Coordinates (Angstroms)
 Number     Number       Type             X           Y           Z
 ---------------------------------------------------------------------
      1          6           0       -0.975310    0.715668   -0.009273
      2          6           0       -0.928919   -0.602198   -0.018064
      3          8           0        0.318882   -1.148367    0.018147
      4          6           0        1.166129   -0.012823   -0.013168
      5          6           0        0.405930    1.103118    0.015270
      6          1           0        0.802026    2.164230   -0.016746
      7          1           0        2.195371   -0.198491   -0.022500
      8          1           0       -1.727105   -1.367089   -0.003242
      9          1           0       -1.828327    1.365698    0.048715
 ---------------------------------------------------------------------

 SCF Done:  E(RAM1) =  -3.79632480812     A.U. after   14 cycles

 Excitation energies and oscillator strengths:

 Excited State   1:      Singlet-A      5.6900 eV  217.90 nm  f=0.0018  <S**2>=0.000
      13 -> 14         0.68958
 This state for optimization and/or second-order correction.
 Total Energy, E(CIS) =  -3.58722257982
 Copying the excited state density for this state as the 1-particle RhoCI density.

 Excited State   2:      Singlet-A      6.6465 eV  186.54 nm  f=0.0005  <S**2>=0.000
      13 -> 16         0.60508
      13 -> 17         0.26416
      13 -> 18        -0.11305
      13 -> 22         0.13244
      13 -> 23         0.11676

 Excited State   3:      Singlet-A      7.3412 eV  168.89 nm  f=0.1597  <S**2>=0.000
      12 -> 17         0.12268
      13 -> 15         0.64928
      13 -> 18        -0.16721

 Excited State   4:      Singlet-A      7.5263 eV  164.73 nm  f=0.0154  <S**2>=0.000
      12 -> 14         0.14448
      13 -> 15         0.13473
      13 -> 16         0.14170
      13 -> 18         0.61034
      13 -> 19         0.22325

 Excited State   5:      Singlet-A      7.8795 eV  157.35 nm  f=0.0460  <S**2>=0.000
      13 -> 17        -0.22504
      13 -> 18        -0.22450
      13 -> 19         0.58861
      13 -> 22         0.10260

 Excited State   6:      Singlet-A      7.9279 eV  156.39 nm  f=0.1517  <S**2>=0.000
      12 -> 15        -0.20400
      13 -> 16        -0.23429
      13 -> 17         0.56564
      13 -> 19         0.25135

 Excited State   7:      Singlet-A      8.3770 eV  148.01 nm  f=0.0008  <S**2>=0.000
      12 -> 14         0.65942
      12 -> 18        -0.11792
      13 -> 18        -0.11310
      13 -> 22        -0.10379

 Excited State   8:      Singlet-A      9.4204 eV  131.61 nm  f=0.0065  <S**2>=0.000
      12 -> 18        -0.12967
      13 -> 21         0.65837

 Excited State   9:      Singlet-A      9.7480 eV  127.19 nm  f=0.0031  <S**2>=0.000
      11 -> 15         0.18863
      12 -> 16         0.33251
      12 -> 18        -0.12140
      12 -> 19         0.10359
      13 -> 16        -0.12620
      13 -> 20        -0.17532
      13 -> 22         0.47458
      13 -> 23         0.10458

 Excited State  10:      Singlet-A      9.8215 eV  126.24 nm  f=0.0301  <S**2>=0.000
       9 -> 14        -0.12202
      11 -> 14         0.25923
      11 -> 15        -0.10743
      11 -> 16         0.35379
      11 -> 17         0.16567
      12 -> 16        -0.19194
      12 -> 17         0.32311
      13 -> 20        -0.16229
      13 -> 22         0.15486

 Excited State  11:      Singlet-A      9.9034 eV  125.19 nm  f=0.0281  <S**2>=0.000
      11 -> 14         0.11356
      12 -> 15        -0.18446
      12 -> 16         0.38334
      12 -> 17         0.26039
      12 -> 18        -0.16568
      12 -> 19        -0.12273
      12 -> 23         0.11365
      13 -> 20         0.30420
      13 -> 22        -0.19975

 Excited State  12:      Singlet-A      9.9943 eV  124.06 nm  f=0.0250  <S**2>=0.000
      11 -> 15         0.42481
      12 -> 18        -0.16605
      12 -> 19        -0.16476
      13 -> 20        -0.41404
      13 -> 22        -0.26223

 Excited State  13:      Singlet-A     10.0275 eV  123.64 nm  f=0.0087  <S**2>=0.000
      10 -> 15         0.11900
      11 -> 15         0.48873
      11 -> 16         0.11664
      12 -> 16        -0.17829
      12 -> 18         0.21359
      13 -> 20         0.33061
      13 -> 22         0.10019

 Excited State  14:      Singlet-A     10.1937 eV  121.63 nm  f=0.1071  <S**2>=0.000
      11 -> 14        -0.22870
      11 -> 16         0.14738
      11 -> 18        -0.10347
      11 -> 19         0.11406
      12 -> 15         0.49920
      12 -> 17         0.13090
      13 -> 17         0.17603
      13 -> 20         0.12329

 Excited State  15:      Singlet-A     10.3507 eV  119.78 nm  f=0.0071  <S**2>=0.000
      12 -> 14         0.12009
      12 -> 16         0.26768
      12 -> 18         0.53787
      13 -> 20        -0.16873
      13 -> 21         0.16353
      13 -> 22        -0.10759
      13 -> 23        -0.13183

 The electronic state is 1-A.
 Alpha  occ. eigenvalues --   -3.69998  -1.23733  -0.91627  -0.91294  -0.87409
 Alpha  occ. eigenvalues --   -0.80475  -0.73078  -0.58273  -0.56615  -0.48795
 Alpha  occ. eigenvalues --   -0.45778  -0.41470  -0.29940
 Alpha virt. eigenvalues --    0.15613   0.19397   0.20458   0.21030   0.23319
 Alpha virt. eigenvalues --    0.24046   0.30592   0.30994   0.31408   0.34467
 Alpha virt. eigenvalues --    0.39914

 Mulliken charges:
               1
     1  C    0.097283
     2  C   -1.056023
     3  O    2.273642
     4  C   -1.056358
     5  C    0.104773
     6  H   -0.132316
     7  H   -0.050901
     8  H   -0.055417
     9  H   -0.124682
 Sum of Mulliken charges =   0.00000

 Dipole moment (field-independent basis, Debye):
    X=              2.1444    Y=             -8.9839    Z=              0.3176  Tot=              9.2417
 N-N= 1.042463239858D+02 E-N=-1.709006377148D+02  KE=-2.121494372150D+01
 Orbital energies and kinetic energies (alpha):
                                 1                 2
   1         O                -3.699984         -3.044853
   2         O                -1.237331         -1.100946
   3         O                -0.916268         -0.848969
   4         O                -0.912944         -0.922425
   5         O                -0.874091         -0.766704
   6         O                -0.804749         -0.701950
   7         O                -0.730777         -0.705078

 Normal termination of Gaussian 09 at Fri Dec 11 13:41:20 2015.
