 Gaussian 09, Revision D.01,
 Gaussian 09:  ES64L-G09RevD.01 24-Apr-2013

 ------------------------------------------------------------
 #P AM1(Input,print) CIS(Singlets,NStates=15) pop(full) force
 ------------------------------------------------------------

 -----------------
 AM1-Reparam Input
 -----------------
 Symbolic Z-matrix:
 Charge =  0 Multiplicity = 1

                         Standard orientation:
 ---------------------------------------------------------------------
 Center     Atomic      Atomic             Coordinates (Angstroms)
 Number     Number       Type             X           Y           Z
 ---------------------------------------------------------------------
      1          6           0        0.811789    0.906537    0.025962
      2          6           0        1.075719   -0.432537   -0.019495
      3          8           0       -0.075229   -1.151355    0.012376
      4          6           0       -1.172783   -0.259584   -0.018905
      5          6           0       -0.628214    1.018835    0.000406
      6          1           0       -1.201693    1.945600   -0.018772
      7          1           0       -2.175478   -0.712502    0.035409
      8          1           0        1.920125   -1.066049   -0.008658
      9          1           0        1.539818    1.644287   -0.034797
 ---------------------------------------------------------------------

 SCF Done:  E(RAM1) =   2.51817999457     A.U. after   13 cycles

 Excitation energies and oscillator strengths:

 Excited State   1:      Singlet-A      5.3018 eV  233.85 nm  f=0.3543  <S**2>=0.000
      13 -> 14         0.69536
 This state for optimization and/or second-order correction.
 Total Energy, E(CIS) =   2.71301839509
 Copying the excited state density for this state as the 1-particle RhoCI density.

 Excited State   2:      Singlet-A      6.3494 eV  195.27 nm  f=0.0019  <S**2>=0.000
      11 -> 15         0.11646
      13 -> 15         0.65990
      13 -> 17         0.17741

 Excited State   3:      Singlet-A      6.7838 eV  182.76 nm  f=0.0020  <S**2>=0.000
      11 -> 16        -0.12087
      13 -> 16         0.64665
      13 -> 17         0.12769
      13 -> 18         0.15173
      13 -> 19         0.12260

 Excited State   4:      Singlet-A      6.9145 eV  179.31 nm  f=0.0007  <S**2>=0.000
       9 -> 14        -0.12213
      12 -> 14         0.69208

 Excited State   5:      Singlet-A      7.8209 eV  158.53 nm  f=0.0073  <S**2>=0.000
      10 -> 14         0.59967
      11 -> 14        -0.11420
      13 -> 17         0.21595
      13 -> 18        -0.21405
      13 -> 21         0.12746

 Excited State   6:      Singlet-A      7.8943 eV  157.06 nm  f=0.0001  <S**2>=0.000
      10 -> 14         0.31972
      13 -> 17        -0.20410
      13 -> 18         0.48760
      13 -> 20         0.21041
      13 -> 21        -0.20458

 Excited State   7:      Singlet-A      8.2346 eV  150.57 nm  f=0.0121  <S**2>=0.000
      10 -> 14        -0.11722
      11 -> 16         0.12202
      13 -> 15        -0.11289
      13 -> 16        -0.14129
      13 -> 17         0.58659
      13 -> 18         0.24315
      13 -> 20         0.10223

 Excited State   8:      Singlet-A      8.6956 eV  142.58 nm  f=0.0986  <S**2>=0.000
      10 -> 14         0.13313
      11 -> 14         0.67552

 Excited State   9:      Singlet-A      8.8635 eV  139.88 nm  f=0.0005  <S**2>=0.000
      11 -> 16         0.10292
      13 -> 16        -0.11390
      13 -> 19         0.66984

 Excited State  10:      Singlet-A      9.4670 eV  130.96 nm  f=0.0057  <S**2>=0.000
      12 -> 15        -0.15105
      13 -> 18         0.33263
      13 -> 20        -0.38540
      13 -> 21         0.41009

 Excited State  11:      Singlet-A      9.5100 eV  130.37 nm  f=0.0143  <S**2>=0.000
       8 -> 15         0.12685
      10 -> 16         0.13343
      10 -> 17         0.18862
      12 -> 15         0.44189
      12 -> 16        -0.17386
      12 -> 17         0.12583
      12 -> 18        -0.25432
      13 -> 18         0.10918
      13 -> 20        -0.17328
      13 -> 21         0.11919

 Excited State  12:      Singlet-A      9.8045 eV  126.46 nm  f=0.1250  <S**2>=0.000
       9 -> 15        -0.14817
      10 -> 15         0.37602
      10 -> 16         0.10354
      10 -> 17         0.21259
      11 -> 15        -0.21872
      12 -> 15        -0.36431
      12 -> 18        -0.18955
      12 -> 19         0.10897

 Excited State  13:      Singlet-A      9.9039 eV  125.19 nm  f=0.0998  <S**2>=0.000
      11 -> 16        -0.10011
      13 -> 20         0.48328
      13 -> 21         0.47447

 Excited State  14:      Singlet-A      9.9827 eV  124.20 nm  f=0.0889  <S**2>=0.000
      10 -> 16         0.15527
      11 -> 15        -0.22201
      11 -> 16        -0.12349
      12 -> 15         0.11429
      12 -> 16         0.56144
      12 -> 17         0.13894

 Excited State  15:      Singlet-A     10.0186 eV  123.75 nm  f=0.0395  <S**2>=0.000
       7 -> 15        -0.13120
       9 -> 14        -0.17490
      10 -> 15         0.12713
      10 -> 16         0.13783
      11 -> 15         0.52980
      12 -> 16         0.19573
      13 -> 15        -0.13250
      13 -> 20        -0.11357

 The electronic state is 1-A.
 Alpha  occ. eigenvalues --   -1.72467  -1.14491  -0.95005  -0.80959  -0.76073
 Alpha  occ. eigenvalues --   -0.67318  -0.63460  -0.55734  -0.50741  -0.44405
 Alpha  occ. eigenvalues --   -0.43827  -0.41239  -0.29070
 Alpha virt. eigenvalues --    0.10801   0.17077   0.18897   0.24948   0.27390
 Alpha virt. eigenvalues --    0.28485   0.30802   0.31567   0.37857   0.46755
 Alpha virt. eigenvalues --    0.51842

 Mulliken charges:
               1
     1  C   -0.093695
     2  C   -1.913558
     3  O    3.235919
     4  C   -1.919312
     5  C   -0.050078
     6  H    0.121350
     7  H    0.250996
     8  H    0.243323
     9  H    0.125055
 Sum of Mulliken charges =   0.00000

 Dipole moment (field-independent basis, Debye):
    X=             -0.4381    Y=            -10.7015    Z=              0.4980  Tot=             10.7220
 N-N= 1.031155138185D+02 E-N=-1.675203789946D+02  KE=-1.497849724016D+01
 Orbital energies and kinetic energies (alpha):
                                 1                 2
   1         O                -1.724670         -1.206002
   2         O                -1.144912         -1.001761
   3         O                -0.950052         -0.853209
   4         O                -0.809587         -0.630991
   5         O                -0.760734         -0.677701
   6         O                -0.673178         -0.577370
   7         O                -0.634604         -0.512961

 Normal termination of Gaussian 09 at Tue Dec 15 17:06:23 2015.
