 Gaussian 09, Revision D.01,
 Gaussian 09:  ES64L-G09RevD.01 24-Apr-2013

 ------------------------------------------------------------
 #P AM1(Input,print) CIS(Singlets,NStates=15) pop(full) force
 ------------------------------------------------------------

 -----------------
 AM1-Reparam Input
 -----------------
 Symbolic Z-matrix:
 Charge =  0 Multiplicity = 1

                         Standard orientation:
 ---------------------------------------------------------------------
 Center     Atomic      Atomic             Coordinates (Angstroms)
 Number     Number       Type             X           Y           Z
 ---------------------------------------------------------------------
      1          6           0       -0.771177    0.857452   -0.007565
      2          6           0       -1.028867   -0.432706    0.000097
      3          8           0        0.101544   -1.122845   -0.009403
      4          6           0        1.127116   -0.225692    0.001740
      5          6           0        0.584698    0.984843    0.015259
      6          1           0        1.141704    1.894237   -0.041266
      7          1           0        2.137814   -0.626432    0.017541
      8          1           0       -1.978290   -1.078726    0.041361
      9          1           0       -1.584198    1.690297    0.000396
 ---------------------------------------------------------------------

 SCF Done:  E(RAM1) =  0.420804327012E-01 A.U. after   13 cycles

 Excitation energies and oscillator strengths:

 Excited State   1:      Singlet-A      4.6198 eV  268.38 nm  f=0.1030  <S**2>=0.000
      12 -> 15         0.19122
      13 -> 14         0.67219
 This state for optimization and/or second-order correction.
 Total Energy, E(CIS) =  0.211853773676
 Copying the excited state density for this state as the 1-particle RhoCI density.

 Excited State   2:      Singlet-A      5.0299 eV  246.49 nm  f=0.0005  <S**2>=0.000
      13 -> 16         0.67602
      13 -> 20        -0.11262

 Excited State   3:      Singlet-A      5.2956 eV  234.13 nm  f=0.0103  <S**2>=0.000
      12 -> 14        -0.40708
      13 -> 15         0.57157

 Excited State   4:      Singlet-A      6.1732 eV  200.84 nm  f=0.0003  <S**2>=0.000
      12 -> 16        -0.11283
      12 -> 18         0.14488
      12 -> 20         0.13949
      12 -> 23        -0.10901
      13 -> 18         0.46630
      13 -> 20         0.19232
      13 -> 21        -0.15129
      13 -> 22         0.30104
      13 -> 23        -0.17780

 Excited State   5:      Singlet-A      6.1850 eV  200.46 nm  f=0.0021  <S**2>=0.000
       7 -> 16        -0.14259
      12 -> 16         0.57473
      12 -> 22         0.16759
      13 -> 17        -0.11501
      13 -> 19        -0.20418
      13 -> 23        -0.10902

 Excited State   6:      Singlet-A      6.2075 eV  199.73 nm  f=0.0003  <S**2>=0.000
      12 -> 16         0.26372
      12 -> 17        -0.11988
      12 -> 19        -0.17250
      13 -> 17         0.22356
      13 -> 19         0.39701
      13 -> 22         0.24682
      13 -> 23         0.24269

 Excited State   7:      Singlet-A      6.4626 eV  191.85 nm  f=0.3018  <S**2>=0.000
      12 -> 14         0.49222
      13 -> 15         0.35564
      13 -> 17        -0.23343
      13 -> 19         0.13657

 Excited State   8:      Singlet-A      6.5433 eV  189.48 nm  f=0.0671  <S**2>=0.000
      12 -> 14         0.21622
      13 -> 15         0.15969
      13 -> 17         0.53025
      13 -> 19        -0.29465

 Excited State   9:      Singlet-A      6.8212 eV  181.76 nm  f=0.1378  <S**2>=0.000
      12 -> 15         0.66860
      13 -> 14        -0.17654

 Excited State  10:      Singlet-A      7.1738 eV  172.83 nm  f=0.0029  <S**2>=0.000
       9 -> 14         0.45392
       9 -> 15         0.10218
      11 -> 14         0.39466
      11 -> 15        -0.26181

 Excited State  11:      Singlet-A      7.2176 eV  171.78 nm  f=0.0004  <S**2>=0.000
      12 -> 17         0.27301
      12 -> 19        -0.30606
      12 -> 20         0.10052
      12 -> 21        -0.12929
      13 -> 18        -0.31302
      13 -> 19        -0.20600
      13 -> 21        -0.16176
      13 -> 22         0.31571

 Excited State  12:      Singlet-A      7.4131 eV  167.25 nm  f=0.0003  <S**2>=0.000
       9 -> 14         0.25107
       9 -> 15         0.12303
      11 -> 14        -0.17161
      12 -> 18         0.31870
      12 -> 22         0.12232
      13 -> 18        -0.24990
      13 -> 19         0.16029
      13 -> 20         0.30386
      13 -> 22        -0.12167
      13 -> 23        -0.11494

 Excited State  13:      Singlet-A      7.5212 eV  164.85 nm  f=0.0006  <S**2>=0.000
       8 -> 14        -0.10313
       9 -> 14        -0.27064
       9 -> 15        -0.23199
      10 -> 14         0.15639
      11 -> 14         0.41629
      11 -> 15        -0.12258
      12 -> 18         0.19407
      13 -> 18        -0.12552
      13 -> 19         0.13165
      13 -> 23        -0.12284

 Excited State  14:      Singlet-A      7.6512 eV  162.04 nm  f=0.0031  <S**2>=0.000
      10 -> 15         0.10969
      12 -> 17         0.22271
      12 -> 19        -0.22454
      12 -> 20         0.11282
      12 -> 21        -0.27580
      12 -> 23         0.26904
      13 -> 17         0.10814
      13 -> 18         0.10916
      13 -> 19         0.11562
      13 -> 21         0.27709
      13 -> 22        -0.15612
      13 -> 23        -0.18032

 Excited State  15:      Singlet-A      7.7959 eV  159.04 nm  f=0.0086  <S**2>=0.000
      10 -> 15        -0.10262
      12 -> 17        -0.11079
      12 -> 19        -0.24879
      12 -> 20         0.18651
      12 -> 21         0.10648
      13 -> 17        -0.16438
      13 -> 19        -0.11439
      13 -> 20         0.34150
      13 -> 22        -0.13758
      13 -> 23         0.35162

 The electronic state is 1-A.
 Alpha  occ. eigenvalues --   -1.60764  -1.25391  -1.10674  -0.82501  -0.81159
 Alpha  occ. eigenvalues --   -0.68683  -0.61586  -0.55596  -0.50324  -0.50278
 Alpha  occ. eigenvalues --   -0.49563  -0.40415  -0.34881
 Alpha virt. eigenvalues --    0.03632   0.07400   0.09634   0.13561   0.14119
 Alpha virt. eigenvalues --    0.15326   0.17893   0.18752   0.19324   0.20764
 Alpha virt. eigenvalues --    0.22992

 Mulliken charges:
               1
     1  C   -0.218291
     2  C   -0.101056
     3  O   -0.074695
     4  C   -0.115198
     5  C   -0.191984
     6  H    0.149391
     7  H    0.193552
     8  H    0.194990
     9  H    0.163290
 Sum of Mulliken charges =   0.00000

 Dipole moment (field-independent basis, Debye):
    X=             -0.1628    Y=              0.2347    Z=              0.0211  Tot=              0.2864
 N-N= 1.044112764198D+02 E-N=-1.726662842576D+02  KE=-1.663582775443D+01
 Orbital energies and kinetic energies (alpha):
                                 1                 2
   1         O                -1.607639         -1.352413
   2         O                -1.253908         -1.057156
   3         O                -1.106739         -0.961799
   4         O                -0.825007         -0.701144
   5         O                -0.811593         -0.713118
   6         O                -0.686829         -0.606367
   7         O                -0.615856         -0.499538

 Normal termination of Gaussian 09 at Tue Dec 15 16:15:31 2015.
