 Gaussian 09, Revision D.01,
 Gaussian 09:  ES64L-G09RevD.01 24-Apr-2013

 ------------------------------------------------------------
 #P AM1(Input,print) CIS(Singlets,NStates=15) pop(full) force
 ------------------------------------------------------------

 -----------------
 AM1-Reparam Input
 -----------------
 Symbolic Z-matrix:
 Charge =  0 Multiplicity = 1

                         Standard orientation:
 ---------------------------------------------------------------------
 Center     Atomic      Atomic             Coordinates (Angstroms)
 Number     Number       Type             X           Y           Z
 ---------------------------------------------------------------------
      1          6           0        0.225668    1.175268    0.009621
      2          6           0        1.134246    0.127333   -0.014697
      3          8           0        0.512387   -1.068016    0.009717
      4          6           0       -0.839463   -0.714196   -0.009019
      5          6           0       -1.062685    0.545460   -0.011297
      6          1           0       -1.968830    1.034051    0.041291
      7          1           0       -1.511663   -1.649770    0.015622
      8          1           0        2.190800    0.169636    0.015316
      9          1           0        0.443995    2.187015    0.002382
 ---------------------------------------------------------------------

 SCF Done:  E(RAM1) =   2.87817465254     A.U. after   14 cycles

 Excitation energies and oscillator strengths:

 Excited State   1:      Singlet-A      5.2319 eV  236.98 nm  f=0.3362  <S**2>=0.000
      13 -> 14         0.69612
 This state for optimization and/or second-order correction.
 Total Energy, E(CIS) =   3.07044453289
 Copying the excited state density for this state as the 1-particle RhoCI density.

 Excited State   2:      Singlet-A      5.9762 eV  207.46 nm  f=0.0002  <S**2>=0.000
      11 -> 15         0.12243
      13 -> 15         0.67444
      13 -> 18         0.13871

 Excited State   3:      Singlet-A      6.3783 eV  194.38 nm  f=0.0036  <S**2>=0.000
      11 -> 16        -0.10092
      13 -> 16         0.64386
      13 -> 17         0.21969
      13 -> 18        -0.12684

 Excited State   4:      Singlet-A      6.7173 eV  184.57 nm  f=0.0002  <S**2>=0.000
      12 -> 14         0.69692

 Excited State   5:      Singlet-A      7.6581 eV  161.90 nm  f=0.0063  <S**2>=0.000
      13 -> 15        -0.10691
      13 -> 17         0.14646
      13 -> 18         0.55187
      13 -> 19         0.18964
      13 -> 20         0.10329
      13 -> 21         0.30674

 Excited State   6:      Singlet-A      7.8484 eV  157.97 nm  f=0.0178  <S**2>=0.000
      10 -> 14         0.47469
      11 -> 14        -0.11126
      13 -> 16        -0.15876
      13 -> 17         0.44454

 Excited State   7:      Singlet-A      7.9899 eV  155.18 nm  f=0.0032  <S**2>=0.000
      10 -> 14         0.48507
      11 -> 14        -0.12332
      13 -> 16         0.13147
      13 -> 17        -0.46238

 Excited State   8:      Singlet-A      8.5246 eV  145.44 nm  f=0.0001  <S**2>=0.000
      13 -> 18        -0.31096
      13 -> 19         0.56699
      13 -> 21         0.23775

 Excited State   9:      Singlet-A      8.5830 eV  144.45 nm  f=0.0684  <S**2>=0.000
       8 -> 15         0.13094
      10 -> 14         0.14528
      11 -> 14         0.55708
      12 -> 15        -0.33349

 Excited State  10:      Singlet-A      9.0419 eV  137.12 nm  f=0.2199  <S**2>=0.000
       8 -> 15        -0.13716
      11 -> 14         0.36245
      12 -> 15         0.49560
      12 -> 16        -0.19336
      12 -> 18         0.15069

 Excited State  11:      Singlet-A      9.1474 eV  135.54 nm  f=0.0047  <S**2>=0.000
      13 -> 18        -0.22862
      13 -> 19        -0.30335
      13 -> 20         0.40949
      13 -> 21         0.41692

 Excited State  12:      Singlet-A      9.4597 eV  131.07 nm  f=0.0761  <S**2>=0.000
      13 -> 19         0.18542
      13 -> 20         0.53146
      13 -> 21        -0.37373

 Excited State  13:      Singlet-A      9.5475 eV  129.86 nm  f=0.0174  <S**2>=0.000
       9 -> 15         0.12184
      10 -> 15         0.20365
      10 -> 17         0.18704
      10 -> 18         0.10263
      11 -> 15        -0.11949
      12 -> 15         0.26570
      12 -> 16         0.36824
      12 -> 17         0.12495
      12 -> 18        -0.22977
      12 -> 19        -0.14470
      12 -> 21        -0.12310
      13 -> 20        -0.13298

 Excited State  14:      Singlet-A      9.7795 eV  126.78 nm  f=0.0043  <S**2>=0.000
       7 -> 15        -0.12690
      11 -> 15         0.61370
      11 -> 16         0.19563
      13 -> 15        -0.13331

 Excited State  15:      Singlet-A      9.8653 eV  125.68 nm  f=0.0761  <S**2>=0.000
       9 -> 16         0.15636
      10 -> 16        -0.35578
      10 -> 17        -0.24715
      12 -> 16         0.39698
      12 -> 17         0.18745
      12 -> 18         0.11946
      12 -> 19         0.19690

 The electronic state is 1-A.
 Alpha  occ. eigenvalues --   -1.71008  -1.12990  -0.91541  -0.79013  -0.74770
 Alpha  occ. eigenvalues --   -0.66564  -0.63243  -0.51901  -0.49240  -0.43094
 Alpha  occ. eigenvalues --   -0.42338  -0.39003  -0.27025
 Alpha virt. eigenvalues --    0.12745   0.17071   0.19565   0.26413   0.28294
 Alpha virt. eigenvalues --    0.30058   0.31547   0.32464   0.36612   0.46287
 Alpha virt. eigenvalues --    0.49124

 Mulliken charges:
               1
     1  C   -0.192879
     2  C   -1.963528
     3  O    3.195265
     4  C   -1.886114
     5  C   -0.080139
     6  H    0.166428
     7  H    0.279045
     8  H    0.307390
     9  H    0.174532
 Sum of Mulliken charges =   0.00000

 Dipole moment (field-independent basis, Debye):
    X=              4.3872    Y=            -10.3258    Z=              0.4132  Tot=             11.2268
 N-N= 1.041395699354D+02 E-N=-1.694903636233D+02  KE=-1.479781120343D+01
 Orbital energies and kinetic energies (alpha):
                                 1                 2
   1         O                -1.710079         -1.202322
   2         O                -1.129896         -1.009929
   3         O                -0.915415         -0.859879
   4         O                -0.790128         -0.588117
   5         O                -0.747702         -0.671004
   6         O                -0.665645         -0.570638
   7         O                -0.632429         -0.526333

 Normal termination of Gaussian 09 at Tue Dec 15 17:05:52 2015.
