 Gaussian 09, Revision D.01,
 Gaussian 09:  ES64L-G09RevD.01 24-Apr-2013

 ------------------------------------------------------------
 #P AM1(Input,print) CIS(Singlets,NStates=15) pop(full) force
 ------------------------------------------------------------

 -----------------
 AM1-Reparam Input
 -----------------
 Symbolic Z-matrix:
 Charge =  0 Multiplicity = 1

                         Standard orientation:
 ---------------------------------------------------------------------
 Center     Atomic      Atomic             Coordinates (Angstroms)
 Number     Number       Type             X           Y           Z
 ---------------------------------------------------------------------
      1          6           0       -0.876845    0.810863    0.003037
      2          6           0       -1.038661   -0.488756    0.018427
      3          8           0        0.198093   -1.086035   -0.031322
      4          6           0        1.112108   -0.203469    0.036920
      5          6           0        0.596026    1.014068   -0.009220
      6          1           0        1.077561    1.972741   -0.017671
      7          1           0        2.108694   -0.511949   -0.013008
      8          1           0       -1.906568   -1.134547    0.030369
      9          1           0       -1.620199    1.565802   -0.044097
 ---------------------------------------------------------------------

 SCF Done:  E(RAM1) =   1.11344081907     A.U. after   14 cycles

 Excitation energies and oscillator strengths:

 Excited State   1:      Singlet-A      5.2425 eV  236.50 nm  f=0.2332  <S**2>=0.000
      13 -> 14         0.68716
 This state for optimization and/or second-order correction.
 Total Energy, E(CIS) =   1.30610041569
 Copying the excited state density for this state as the 1-particle RhoCI density.

 Excited State   2:      Singlet-A      6.0702 eV  204.25 nm  f=0.0041  <S**2>=0.000
      13 -> 15         0.68048
      13 -> 19         0.12640

 Excited State   3:      Singlet-A      6.6350 eV  186.86 nm  f=0.0021  <S**2>=0.000
      13 -> 16         0.48153
      13 -> 17        -0.44172
      13 -> 18        -0.19614
      13 -> 21        -0.13156

 Excited State   4:      Singlet-A      6.9492 eV  178.42 nm  f=0.0005  <S**2>=0.000
       9 -> 14         0.16718
      11 -> 14        -0.46766
      12 -> 14         0.48258

 Excited State   5:      Singlet-A      7.0411 eV  176.09 nm  f=0.0080  <S**2>=0.000
      11 -> 14        -0.34378
      12 -> 14        -0.19541
      13 -> 16         0.38189
      13 -> 17         0.42089

 Excited State   6:      Singlet-A      7.7711 eV  159.54 nm  f=0.0007  <S**2>=0.000
      13 -> 16         0.12818
      13 -> 17        -0.12993
      13 -> 18         0.63690
      13 -> 22        -0.16006

 Excited State   7:      Singlet-A      7.9579 eV  155.80 nm  f=0.0437  <S**2>=0.000
      10 -> 14         0.58139
      11 -> 14         0.16219
      11 -> 16        -0.11021
      12 -> 14         0.22291
      13 -> 17         0.12714

 Excited State   8:      Singlet-A      8.1658 eV  151.83 nm  f=0.1986  <S**2>=0.000
      10 -> 14        -0.31693
      11 -> 14         0.31713
      12 -> 14         0.37842
      13 -> 16         0.22487
      13 -> 17         0.21369
      13 -> 20        -0.10484

 Excited State   9:      Singlet-A      8.4327 eV  147.03 nm  f=0.0007  <S**2>=0.000
      12 -> 16        -0.10007
      13 -> 20         0.63531
      13 -> 23         0.14032

 Excited State  10:      Singlet-A      8.5838 eV  144.44 nm  f=0.0170  <S**2>=0.000
       9 -> 15         0.11589
       9 -> 16        -0.14801
       9 -> 17        -0.10394
      10 -> 14        -0.21052
      11 -> 15         0.15875
      11 -> 16        -0.32048
      11 -> 17        -0.19576
      12 -> 15        -0.22661
      12 -> 16         0.32877
      12 -> 17         0.17751
      13 -> 20         0.14129

 Excited State  11:      Singlet-A      8.7760 eV  141.28 nm  f=0.0104  <S**2>=0.000
      11 -> 15         0.24168
      11 -> 16        -0.14058
      12 -> 15         0.54210
      12 -> 17         0.14998
      13 -> 19        -0.17072
      13 -> 21         0.10109

 Excited State  12:      Singlet-A      8.9010 eV  139.29 nm  f=0.0450  <S**2>=0.000
       9 -> 14        -0.11288
       9 -> 15         0.16877
       9 -> 17         0.10801
      11 -> 15         0.53112
      11 -> 17         0.17046
      11 -> 20         0.10911
      12 -> 16        -0.16221

 Excited State  13:      Singlet-A      9.0264 eV  137.36 nm  f=0.0093  <S**2>=0.000
       9 -> 14         0.59097
       9 -> 15         0.10508
      11 -> 14         0.13336
      11 -> 16         0.12510
      11 -> 17         0.14081
      13 -> 19        -0.12976
      13 -> 21         0.10942

 Excited State  14:      Singlet-A      9.0537 eV  136.94 nm  f=0.0069  <S**2>=0.000
       9 -> 14         0.22140
      11 -> 16        -0.17264
      12 -> 16        -0.19716
      12 -> 17         0.23359
      13 -> 15        -0.10216
      13 -> 19         0.52609

 Excited State  15:      Singlet-A      9.1295 eV  135.81 nm  f=0.0169  <S**2>=0.000
       8 -> 15        -0.10393
       9 -> 14        -0.14994
       9 -> 15         0.20913
       9 -> 16         0.11739
       9 -> 18        -0.10181
      11 -> 17         0.32683
      11 -> 18         0.22072
      12 -> 15         0.15124
      12 -> 16         0.26652
      12 -> 18        -0.19110
      13 -> 19         0.12831

 The electronic state is 1-A.
 Alpha  occ. eigenvalues --   -1.87171  -1.19846  -1.02347  -0.89040  -0.80912
 Alpha  occ. eigenvalues --   -0.74988  -0.73561  -0.62257  -0.55325  -0.53219
 Alpha  occ. eigenvalues --   -0.49185  -0.48892  -0.37638
 Alpha virt. eigenvalues --    0.02555   0.08977   0.10827   0.11365   0.17463
 Alpha virt. eigenvalues --    0.19228   0.19912   0.21418   0.26734   0.27361
 Alpha virt. eigenvalues --    0.29020

 Mulliken charges:
               1
     1  C   -0.076004
     2  C   -1.261019
     3  O    2.155013
     4  C   -1.243389
     5  C   -0.227172
     6  H    0.120517
     7  H    0.218661
     8  H    0.206997
     9  H    0.106397
 Sum of Mulliken charges =   0.00000

 Dipole moment (field-independent basis, Debye):
    X=              1.3372    Y=             -6.7376    Z=             -0.5598  Tot=              6.8918
 N-N= 1.053178584107D+02 E-N=-1.726281688647D+02  KE=-1.509304473903D+01
 Orbital energies and kinetic energies (alpha):
                                 1                 2
   1         O                -1.871714         -1.290460
   2         O                -1.198459         -0.961297
   3         O                -1.023473         -0.828103
   4         O                -0.890398         -0.637045
   5         O                -0.809121         -0.688909
   6         O                -0.749884         -0.563267
   7         O                -0.735605         -0.537095

 Normal termination of Gaussian 09 at Tue Dec 15 17:05:42 2015.
