 Gaussian 09, Revision D.01,
 Gaussian 09:  ES64L-G09RevD.01 24-Apr-2013

 ------------------------------------------------------------
 #P AM1(Input,print) CIS(Singlets,NStates=15) pop(full) force
 ------------------------------------------------------------

 -----------------
 AM1-Reparam Input
 -----------------
 Symbolic Z-matrix:
 Charge =  0 Multiplicity = 1

                         Standard orientation:
 ---------------------------------------------------------------------
 Center     Atomic      Atomic             Coordinates (Angstroms)
 Number     Number       Type             X           Y           Z
 ---------------------------------------------------------------------
      1          6           0       -0.684561    0.942479   -0.004022
      2          6           0       -1.128426   -0.256752    0.028697
      3          8           0       -0.062078   -1.183638   -0.026626
      4          6           0        1.134487   -0.371953    0.024121
      5          6           0        0.738963    0.954621   -0.025195
      6          1           0        1.430802    1.758637    0.020651
      7          1           0        2.086086   -0.898317    0.043721
      8          1           0       -2.030648   -0.814098   -0.001215
      9          1           0       -1.352394    1.812515    0.008243
 ---------------------------------------------------------------------

 SCF Done:  E(RAM1) =   2.64350032333     A.U. after   13 cycles

 Excitation energies and oscillator strengths:

 Excited State   1:      Singlet-A      4.9732 eV  249.31 nm  f=0.3524  <S**2>=0.000
      13 -> 14         0.69836
 This state for optimization and/or second-order correction.
 Total Energy, E(CIS) =   2.82626043422
 Copying the excited state density for this state as the 1-particle RhoCI density.

 Excited State   2:      Singlet-A      5.9099 eV  209.79 nm  f=0.0003  <S**2>=0.000
      13 -> 15         0.67273
      13 -> 19        -0.10639

 Excited State   3:      Singlet-A      6.4126 eV  193.34 nm  f=0.0025  <S**2>=0.000
      13 -> 16         0.66769

 Excited State   4:      Singlet-A      6.6228 eV  187.21 nm  f=0.0008  <S**2>=0.000
      12 -> 14         0.69327

 Excited State   5:      Singlet-A      7.3080 eV  169.66 nm  f=0.0045  <S**2>=0.000
      11 -> 14         0.69370

 Excited State   6:      Singlet-A      7.7318 eV  160.36 nm  f=0.0002  <S**2>=0.000
      13 -> 17         0.66237
      13 -> 18        -0.13593
      13 -> 21         0.11788

 Excited State   7:      Singlet-A      8.5104 eV  145.69 nm  f=0.1043  <S**2>=0.000
      10 -> 14         0.68899
      12 -> 15        -0.10071

 Excited State   8:      Singlet-A      8.9277 eV  138.88 nm  f=0.0084  <S**2>=0.000
      10 -> 15         0.21241
      13 -> 17         0.13912
      13 -> 18         0.62492
      13 -> 19         0.12152

 Excited State   9:      Singlet-A      9.2214 eV  134.45 nm  f=0.1563  <S**2>=0.000
      10 -> 14         0.10964
      12 -> 15         0.61856
      12 -> 16        -0.13270
      12 -> 17         0.15585

 Excited State  10:      Singlet-A      9.3612 eV  132.45 nm  f=0.0429  <S**2>=0.000
      10 -> 16         0.23143
      11 -> 15        -0.17680
      11 -> 16        -0.12684
      11 -> 18         0.13251
      12 -> 15        -0.16239
      12 -> 16        -0.18122
      12 -> 17         0.19938
      13 -> 19         0.48580

 Excited State  11:      Singlet-A      9.3919 eV  132.01 nm  f=0.0553  <S**2>=0.000
      10 -> 16         0.17755
      11 -> 15         0.25592
      11 -> 16         0.11499
      11 -> 18        -0.17792
      12 -> 15         0.18015
      12 -> 16         0.23016
      12 -> 17        -0.28165
      13 -> 19         0.37438

 Excited State  12:      Singlet-A     10.0269 eV  123.65 nm  f=0.1776  <S**2>=0.000
      11 -> 15        -0.25549
      11 -> 16         0.54661
      11 -> 19         0.17472
      12 -> 16        -0.22055
      12 -> 17        -0.11111

 Excited State  13:      Singlet-A     10.0974 eV  122.79 nm  f=0.0021  <S**2>=0.000
       7 -> 15        -0.15220
      10 -> 15         0.62861
      13 -> 15        -0.13792
      13 -> 18        -0.20194

 Excited State  14:      Singlet-A     10.3233 eV  120.10 nm  f=0.0299  <S**2>=0.000
       8 -> 15         0.15868
       9 -> 16         0.17762
      10 -> 16         0.36643
      11 -> 15         0.17316
      11 -> 17        -0.16385
      12 -> 16        -0.33460
      12 -> 17        -0.15390
      13 -> 19        -0.17805

 Excited State  15:      Singlet-A     10.4004 eV  119.21 nm  f=0.0120  <S**2>=0.000
       8 -> 15        -0.16138
       9 -> 14         0.11210
       9 -> 16        -0.13914
      10 -> 16         0.44630
      11 -> 15        -0.18328
      11 -> 17         0.14814
      12 -> 16         0.25099
      13 -> 16         0.11112
      13 -> 18         0.10079
      13 -> 19        -0.18854

 The electronic state is 1-A.
 Alpha  occ. eigenvalues --   -1.83036  -1.12381  -0.87619  -0.78603  -0.74463
 Alpha  occ. eigenvalues --   -0.66285  -0.61792  -0.55063  -0.54348  -0.43840
 Alpha  occ. eigenvalues --   -0.43105  -0.41206  -0.28199
 Alpha virt. eigenvalues --    0.10079   0.16739   0.19030   0.26476   0.28585
 Alpha virt. eigenvalues --    0.30898   0.37402   0.41642   0.43951   0.52051
 Alpha virt. eigenvalues --    0.55186

 Mulliken charges:
               1
     1  C   -0.223293
     2  C   -1.924472
     3  O    3.450883
     4  C   -1.987676
     5  C   -0.194658
     6  H    0.186193
     7  H    0.257646
     8  H    0.233519
     9  H    0.201857
 Sum of Mulliken charges =   0.00000

 Dipole moment (field-independent basis, Debye):
    X=             -1.0832    Y=            -12.6773    Z=             -0.7371  Tot=             12.7448
 N-N= 1.033627360917D+02 E-N=-1.685157068301D+02  KE=-1.432397781087D+01
 Orbital energies and kinetic energies (alpha):
                                 1                 2
   1         O                -1.830359         -1.191576
   2         O                -1.123815         -0.971080
   3         O                -0.876186         -0.807965
   4         O                -0.786028         -0.544034
   5         O                -0.744629         -0.600759
   6         O                -0.662853         -0.554063
   7         O                -0.617919         -0.495129

 Normal termination of Gaussian 09 at Tue Dec 15 17:07:36 2015.
