 Gaussian 09, Revision D.01,
 Gaussian 09:  ES64L-G09RevD.01 24-Apr-2013

 ------------------------------------------------------------
 #P AM1(Input,print) CIS(Singlets,NStates=15) pop(full) force
 ------------------------------------------------------------

 -----------------
 AM1-Reparam Input
 -----------------
 Symbolic Z-matrix:
 Charge =  0 Multiplicity = 1

                         Standard orientation:
 ---------------------------------------------------------------------
 Center     Atomic      Atomic             Coordinates (Angstroms)
 Number     Number       Type             X           Y           Z
 ---------------------------------------------------------------------
      1          6           0       -0.665865    0.957278    0.014724
      2          6           0       -1.132175   -0.269605   -0.006172
      3          8           0       -0.098945   -1.117611    0.002424
      4          6           0        1.108963   -0.423892   -0.004289
      5          6           0        0.776661    0.915995   -0.001533
      6          1           0        1.541009    1.678498   -0.014108
      7          1           0        2.043037   -1.016907    0.012523
      8          1           0       -2.092149   -0.719377   -0.010107
      9          1           0       -1.225847    1.920021   -0.024073
 ---------------------------------------------------------------------

 SCF Done:  E(RAM1) =   2.81945262979     A.U. after   13 cycles

 Excitation energies and oscillator strengths:

 Excited State   1:      Singlet-A      5.1856 eV  239.09 nm  f=0.3432  <S**2>=0.000
      13 -> 14         0.69546
 This state for optimization and/or second-order correction.
 Total Energy, E(CIS) =   3.01002074397
 Copying the excited state density for this state as the 1-particle RhoCI density.

 Excited State   2:      Singlet-A      6.4132 eV  193.33 nm  f=0.0039  <S**2>=0.000
      10 -> 15         0.10457
      13 -> 15         0.65180
      13 -> 17         0.17024
      13 -> 18         0.13901

 Excited State   3:      Singlet-A      6.6176 eV  187.36 nm  f=0.0021  <S**2>=0.000
      12 -> 14         0.20578
      13 -> 16         0.58667
      13 -> 17         0.21299
      13 -> 18        -0.16734
      13 -> 19         0.10204

 Excited State   4:      Singlet-A      6.6603 eV  186.15 nm  f=0.0009  <S**2>=0.000
       9 -> 14        -0.11273
      12 -> 14         0.65976
      13 -> 16        -0.18588

 Excited State   5:      Singlet-A      7.5914 eV  163.32 nm  f=0.0027  <S**2>=0.000
      11 -> 14         0.33715
      13 -> 16         0.21207
      13 -> 17        -0.26733
      13 -> 18         0.32833
      13 -> 19         0.16773
      13 -> 20         0.10899
      13 -> 21        -0.31414

 Excited State   6:      Singlet-A      7.6473 eV  162.13 nm  f=0.0056  <S**2>=0.000
      10 -> 14        -0.13629
      11 -> 14         0.56315
      13 -> 18        -0.25656
      13 -> 20        -0.14737
      13 -> 21         0.21784

 Excited State   7:      Singlet-A      7.8872 eV  157.20 nm  f=0.0121  <S**2>=0.000
      11 -> 14         0.17663
      13 -> 15        -0.17641
      13 -> 16        -0.11062
      13 -> 17         0.57773
      13 -> 18         0.21996
      13 -> 21        -0.13308

 Excited State   8:      Singlet-A      8.4661 eV  146.45 nm  f=0.0004  <S**2>=0.000
      13 -> 16        -0.15446
      13 -> 18        -0.19563
      13 -> 19         0.63443

 Excited State   9:      Singlet-A      8.6073 eV  144.05 nm  f=0.0946  <S**2>=0.000
      10 -> 14         0.66163
      11 -> 14         0.15773
      12 -> 15         0.11476

 Excited State  10:      Singlet-A      8.9028 eV  139.26 nm  f=0.0093  <S**2>=0.000
      13 -> 18         0.42652
      13 -> 19         0.18702
      13 -> 20        -0.21062
      13 -> 21         0.47747

 Excited State  11:      Singlet-A      9.3065 eV  133.22 nm  f=0.0619  <S**2>=0.000
       8 -> 15        -0.10546
      11 -> 17        -0.19710
      12 -> 15         0.43824
      12 -> 16        -0.24942
      12 -> 18         0.28383
      12 -> 21        -0.11466
      13 -> 20        -0.15449

 Excited State  12:      Singlet-A      9.3432 eV  132.70 nm  f=0.0824  <S**2>=0.000
      12 -> 15         0.13766
      13 -> 20         0.61145
      13 -> 21         0.27921

 Excited State  13:      Singlet-A      9.5127 eV  130.34 nm  f=0.0572  <S**2>=0.000
       9 -> 15         0.15297
      11 -> 15         0.23025
      11 -> 17         0.22060
      12 -> 15         0.43728
      12 -> 16         0.17703
      12 -> 17         0.19826
      12 -> 18        -0.13046
      12 -> 19        -0.14785
      12 -> 20        -0.12711

 Excited State  14:      Singlet-A      9.8389 eV  126.01 nm  f=0.1367  <S**2>=0.000
       9 -> 14        -0.29731
      11 -> 16        -0.33131
      11 -> 17        -0.13983
      12 -> 16         0.44888
      12 -> 19         0.14588

 Excited State  15:      Singlet-A      9.8413 eV  125.98 nm  f=0.0292  <S**2>=0.000
       9 -> 14         0.61446
      11 -> 16        -0.16494
      12 -> 14         0.10791
      12 -> 16         0.21583

 The electronic state is 1-A.
 Alpha  occ. eigenvalues --   -1.72342  -1.11160  -0.93302  -0.79483  -0.74897
 Alpha  occ. eigenvalues --   -0.65988  -0.64021  -0.55358  -0.50185  -0.43688
 Alpha  occ. eigenvalues --   -0.43375  -0.40066  -0.28559
 Alpha virt. eigenvalues --    0.10824   0.17796   0.19222   0.24020   0.26748
 Alpha virt. eigenvalues --    0.27498   0.29341   0.29381   0.36990   0.45389
 Alpha virt. eigenvalues --    0.50454

 Mulliken charges:
               1
     1  C   -0.171811
     2  C   -1.940144
     3  O    3.228125
     4  C   -1.963163
     5  C   -0.135622
     6  H    0.186017
     7  H    0.301891
     8  H    0.305568
     9  H    0.189138
 Sum of Mulliken charges =   0.00000

 Dipole moment (field-independent basis, Debye):
    X=             -1.1601    Y=            -10.0012    Z=              0.0835  Tot=             10.0686
 N-N= 1.038945503855D+02 E-N=-1.689481212149D+02  KE=-1.475358270948D+01
 Orbital energies and kinetic energies (alpha):
                                 1                 2
   1         O                -1.723418         -1.217422
   2         O                -1.111604         -0.968009
   3         O                -0.933021         -0.843617
   4         O                -0.794831         -0.602933
   5         O                -0.748975         -0.679358
   6         O                -0.659881         -0.561490
   7         O                -0.640209         -0.520633

 Normal termination of Gaussian 09 at Tue Dec 15 17:05:56 2015.
