 Gaussian 09, Revision D.01,
 Gaussian 09:  ES64L-G09RevD.01 24-Apr-2013

 ------------------------------------------------------------
 #P AM1(Input,print) CIS(Singlets,NStates=15) pop(full) force
 ------------------------------------------------------------

 -----------------
 AM1-Reparam Input
 -----------------
 Symbolic Z-matrix:
 Charge =  0 Multiplicity = 1

                         Standard orientation:
 ---------------------------------------------------------------------
 Center     Atomic      Atomic             Coordinates (Angstroms)
 Number     Number       Type             X           Y           Z
 ---------------------------------------------------------------------
      1          6           0        0.906798    0.776835   -0.013504
      2          6           0        1.034385   -0.574751    0.020855
      3          8           0       -0.305036   -1.109669   -0.002194
      4          6           0       -1.147473   -0.105361   -0.002074
      5          6           0       -0.458687    1.060529   -0.015200
      6          1           0       -0.909003    2.133576    0.071905
      7          1           0       -2.221451   -0.316488    0.014679
      8          1           0        1.834847   -1.276483   -0.028184
      9          1           0        1.725766    1.393239    0.018693
 ---------------------------------------------------------------------

 SCF Done:  E(RAM1) =  -5.40795797866     A.U. after   14 cycles

 Excitation energies and oscillator strengths:

 Excited State   1:      Singlet-A      5.6558 eV  219.22 nm  f=0.0018  <S**2>=0.000
      13 -> 15         0.69286
 This state for optimization and/or second-order correction.
 Total Energy, E(CIS) =  -5.20011074226
 Copying the excited state density for this state as the 1-particle RhoCI density.

 Excited State   2:      Singlet-A      6.7842 eV  182.75 nm  f=0.2236  <S**2>=0.000
      12 -> 16        -0.10949
      13 -> 14         0.67095

 Excited State   3:      Singlet-A      7.2015 eV  172.16 nm  f=0.1136  <S**2>=0.000
      12 -> 14         0.18566
      13 -> 14        -0.10350
      13 -> 16         0.65744

 Excited State   4:      Singlet-A      8.2197 eV  150.84 nm  f=0.0009  <S**2>=0.000
      10 -> 14         0.10877
      11 -> 14         0.14804
      12 -> 15         0.17564
      13 -> 17         0.63117
      13 -> 20        -0.10867

 Excited State   5:      Singlet-A      8.2258 eV  150.73 nm  f=0.0010  <S**2>=0.000
      12 -> 15         0.66446
      13 -> 17        -0.18835

 Excited State   6:      Singlet-A      8.5637 eV  144.78 nm  f=0.0043  <S**2>=0.000
      11 -> 14         0.65337
      11 -> 16        -0.13602
      13 -> 17        -0.16093

 Excited State   7:      Singlet-A      8.9005 eV  139.30 nm  f=0.0049  <S**2>=0.000
      10 -> 14         0.67059

 Excited State   8:      Singlet-A      9.3651 eV  132.39 nm  f=0.1919  <S**2>=0.000
      10 -> 15        -0.14025
      11 -> 15        -0.25802
      12 -> 14         0.58692
      12 -> 16         0.11831
      13 -> 16        -0.12646

 Excited State   9:      Singlet-A      9.4175 eV  131.65 nm  f=0.1769  <S**2>=0.000
      10 -> 15         0.11832
      12 -> 14        -0.13656
      12 -> 16         0.65235

 Excited State  10:      Singlet-A      9.6718 eV  128.19 nm  f=0.0319  <S**2>=0.000
      13 -> 18         0.57911
      13 -> 19         0.29449
      13 -> 20        -0.13270
      13 -> 21         0.16130

 Excited State  11:      Singlet-A      9.8122 eV  126.36 nm  f=0.0222  <S**2>=0.000
      11 -> 15         0.15164
      13 -> 18        -0.36257
      13 -> 19         0.46662
      13 -> 20        -0.15539
      13 -> 21         0.24977
      13 -> 23        -0.10174

 Excited State  12:      Singlet-A      9.8536 eV  125.83 nm  f=0.2743  <S**2>=0.000
      10 -> 15         0.14360
      11 -> 15         0.57308
      11 -> 17         0.10583
      12 -> 14         0.22262
      13 -> 16        -0.14873
      13 -> 19        -0.12869

 Excited State  13:      Singlet-A     10.1118 eV  122.61 nm  f=0.0040  <S**2>=0.000
      10 -> 16         0.29460
      11 -> 14         0.11688
      11 -> 16         0.59852

 Excited State  14:      Singlet-A     10.2773 eV  120.64 nm  f=0.0063  <S**2>=0.000
      12 -> 17         0.11478
      13 -> 19        -0.34458
      13 -> 21         0.56217
      13 -> 23        -0.11056

 Excited State  15:      Singlet-A     10.4866 eV  118.23 nm  f=0.2693  <S**2>=0.000
      10 -> 15         0.63285
      11 -> 15        -0.20119
      12 -> 16        -0.10211

 The electronic state is 1-A.
 Alpha  occ. eigenvalues --   -3.73219  -1.26271  -0.95838  -0.94258  -0.88672
 Alpha  occ. eigenvalues --   -0.85061  -0.81689  -0.66199  -0.63566  -0.57284
 Alpha  occ. eigenvalues --   -0.55601  -0.52545  -0.42752
 Alpha virt. eigenvalues --    0.01951   0.03270   0.04446   0.12861   0.17783
 Alpha virt. eigenvalues --    0.18888   0.19460   0.21230   0.22392   0.25737
 Alpha virt. eigenvalues --    0.28589

 Mulliken charges:
               1
     1  C   -0.356362
     2  C   -1.167473
     3  O    2.321377
     4  C   -1.193509
     5  C   -0.463611
     6  H    0.276911
     7  H    0.188704
     8  H    0.162528
     9  H    0.231435
 Sum of Mulliken charges =   0.00000

 Dipole moment (field-independent basis, Debye):
    X=             -2.6754    Y=             -7.5352    Z=              0.0278  Tot=              7.9961
 N-N= 1.019015510048D+02 E-N=-1.666342435241D+02  KE=-2.232568518010D+01
 Orbital energies and kinetic energies (alpha):
                                 1                 2
   1         O                -3.732191         -3.044395
   2         O                -1.262715         -1.102791
   3         O                -0.958382         -0.823697
   4         O                -0.942577         -0.866974
   5         O                -0.886720         -0.807323
   6         O                -0.850612         -0.768806
   7         O                -0.816886         -0.678967

 Normal termination of Gaussian 09 at Fri Dec 11 13:41:27 2015.
