 Gaussian 09, Revision D.01,
 Gaussian 09:  ES64L-G09RevD.01 24-Apr-2013

 ------------------------------------------------------------
 #P AM1(Input,print) CIS(Singlets,NStates=15) pop(full) force
 ------------------------------------------------------------

 -----------------
 AM1-Reparam Input
 -----------------
 Symbolic Z-matrix:
 Charge =  0 Multiplicity = 1

                         Standard orientation:
 ---------------------------------------------------------------------
 Center     Atomic      Atomic             Coordinates (Angstroms)
 Number     Number       Type             X           Y           Z
 ---------------------------------------------------------------------
      1          6           0        0.924730    0.802116   -0.001519
      2          6           0        0.978904   -0.505533   -0.017753
      3          8           0       -0.216221   -1.150469    0.005277
      4          6           0       -1.100722   -0.163239    0.001189
      5          6           0       -0.573084    1.091656    0.000874
      6          1           0       -1.070051    1.991082   -0.016060
      7          1           0       -2.123968   -0.465702    0.005121
      8          1           0        1.856634   -1.238558    0.028856
      9          1           0        1.688186    1.566931    0.043121
 ---------------------------------------------------------------------

 SCF Done:  E(RAM1) =   1.83245081218     A.U. after   13 cycles

 Excitation energies and oscillator strengths:

 Excited State   1:      Singlet-A      5.1113 eV  242.57 nm  f=0.3763  <S**2>=0.000
      13 -> 14         0.69675
 This state for optimization and/or second-order correction.
 Total Energy, E(CIS) =   2.02028693870
 Copying the excited state density for this state as the 1-particle RhoCI density.

 Excited State   2:      Singlet-A      6.0512 eV  204.89 nm  f=0.0000  <S**2>=0.000
      13 -> 15         0.63176
      13 -> 16        -0.23684
      13 -> 17        -0.14518

 Excited State   3:      Singlet-A      6.2575 eV  198.14 nm  f=0.0047  <S**2>=0.000
      13 -> 15         0.24722
      13 -> 16         0.63466
      13 -> 17         0.10189
      13 -> 18         0.11834

 Excited State   4:      Singlet-A      7.1333 eV  173.81 nm  f=0.0002  <S**2>=0.000
      12 -> 14         0.70284

 Excited State   5:      Singlet-A      7.6849 eV  161.34 nm  f=0.0004  <S**2>=0.000
      13 -> 15         0.12415
      13 -> 17         0.57888
      13 -> 18        -0.29441
      13 -> 21         0.18718

 Excited State   6:      Singlet-A      8.5219 eV  145.49 nm  f=0.0177  <S**2>=0.000
      10 -> 14         0.48146
      13 -> 17         0.21358
      13 -> 18         0.44181

 Excited State   7:      Singlet-A      8.6790 eV  142.86 nm  f=0.0022  <S**2>=0.000
      10 -> 14         0.49744
      13 -> 17        -0.21361
      13 -> 18        -0.42340

 Excited State   8:      Singlet-A      9.0090 eV  137.62 nm  f=0.0860  <S**2>=0.000
       8 -> 15        -0.11083
      10 -> 14         0.10387
      11 -> 14         0.63187
      12 -> 15         0.19888
      12 -> 17        -0.10420

 Excited State   9:      Singlet-A      9.0909 eV  136.38 nm  f=0.0005  <S**2>=0.000
      13 -> 19         0.68379

 Excited State  10:      Singlet-A      9.4443 eV  131.28 nm  f=0.2009  <S**2>=0.000
       8 -> 16        -0.11974
      10 -> 18         0.13008
      11 -> 14        -0.20769
      12 -> 15         0.49941
      12 -> 16        -0.24379
      12 -> 17        -0.23955
      12 -> 18         0.11554

 Excited State  11:      Singlet-A     10.0496 eV  123.37 nm  f=0.0102  <S**2>=0.000
      12 -> 15         0.12080
      12 -> 16         0.15366
      13 -> 17        -0.16959
      13 -> 20        -0.25984
      13 -> 21         0.57421

 Excited State  12:      Singlet-A     10.0633 eV  123.20 nm  f=0.0355  <S**2>=0.000
      10 -> 15        -0.15455
      10 -> 18        -0.12632
      12 -> 15         0.34644
      12 -> 16         0.43525
      12 -> 17         0.21405
      13 -> 20         0.11806
      13 -> 21        -0.19071

 Excited State  13:      Singlet-A     10.2335 eV  121.15 nm  f=0.0883  <S**2>=0.000
      11 -> 15         0.19955
      13 -> 20         0.59204
      13 -> 21         0.28580

 Excited State  14:      Singlet-A     10.3738 eV  119.52 nm  f=0.0952  <S**2>=0.000
      10 -> 16         0.29808
      10 -> 18         0.14514
      11 -> 15        -0.27796
      12 -> 15        -0.10855
      12 -> 16         0.34780
      12 -> 17        -0.24103
      12 -> 18         0.16099
      12 -> 19        -0.15402
      13 -> 20         0.10132

 Excited State  15:      Singlet-A     10.3767 eV  119.48 nm  f=0.0237  <S**2>=0.000
       7 -> 15        -0.11695
      10 -> 16         0.16345
      11 -> 15         0.50184
      11 -> 16         0.31976
      12 -> 16         0.11017
      12 -> 17        -0.14041

 The electronic state is 1-A.
 Alpha  occ. eigenvalues --   -2.00314  -1.25890  -1.00353  -0.90382  -0.83527
 Alpha  occ. eigenvalues --   -0.77061  -0.74586  -0.61543  -0.60789  -0.53326
 Alpha  occ. eigenvalues --   -0.52270  -0.48443  -0.34577
 Alpha virt. eigenvalues --    0.04246   0.09938   0.11161   0.20429   0.21168
 Alpha virt. eigenvalues --    0.23545   0.26674   0.27649   0.30187   0.38737
 Alpha virt. eigenvalues --    0.42963

 Mulliken charges:
               1
     1  C   -0.096810
     2  C   -1.853563
     3  O    3.144200
     4  C   -1.881215
     5  C   -0.156666
     6  H    0.136545
     7  H    0.282949
     8  H    0.284598
     9  H    0.139962
 Sum of Mulliken charges =   0.00000

 Dipole moment (field-independent basis, Debye):
    X=             -1.7525    Y=            -11.1327    Z=              0.2807  Tot=             11.2733
 N-N= 1.056323393527D+02 E-N=-1.706907617598D+02  KE=-1.564778335085D+01
 Orbital energies and kinetic energies (alpha):
                                 1                 2
   1         O                -2.003139         -1.388654
   2         O                -1.258902         -1.048110
   3         O                -1.003532         -0.882137
   4         O                -0.903817         -0.594690
   5         O                -0.835271         -0.692612
   6         O                -0.770610         -0.587413
   7         O                -0.745863         -0.541236

 Normal termination of Gaussian 09 at Tue Dec 15 17:09:02 2015.
