 Gaussian 09, Revision D.01,
 Gaussian 09:  ES64L-G09RevD.01 24-Apr-2013

 ------------------------------------------------------------
 #P AM1(Input,print) CIS(Singlets,NStates=15) pop(full) force
 ------------------------------------------------------------

 -----------------
 AM1-Reparam Input
 -----------------
 Symbolic Z-matrix:
 Charge =  0 Multiplicity = 1

                         Standard orientation:
 ---------------------------------------------------------------------
 Center     Atomic      Atomic             Coordinates (Angstroms)
 Number     Number       Type             X           Y           Z
 ---------------------------------------------------------------------
      1          6           0       -0.716696    0.974194   -0.001533
      2          6           0       -1.107298   -0.366008   -0.010851
      3          8           0       -0.014993   -1.126145    0.021393
      4          6           0        1.125713   -0.343801   -0.025532
      5          6           0        0.713331    0.902906    0.003358
      6          1           0        1.455381    1.817331    0.048706
      7          1           0        2.036707   -0.850826   -0.004192
      8          1           0       -2.092884   -0.817018   -0.011359
      9          1           0       -1.369558    1.855927    0.003043
 ---------------------------------------------------------------------

 SCF Done:  E(RAM1) =  0.270322270458E-01 A.U. after   14 cycles

 Excitation energies and oscillator strengths:

 Excited State   1:      Singlet-A      4.5003 eV  275.50 nm  f=0.0931  <S**2>=0.000
      12 -> 15         0.20911
      13 -> 14         0.66498
 This state for optimization and/or second-order correction.
 Total Energy, E(CIS) =  0.192415372189
 Copying the excited state density for this state as the 1-particle RhoCI density.

 Excited State   2:      Singlet-A      4.7881 eV  258.94 nm  f=0.0009  <S**2>=0.000
      13 -> 15        -0.10247
      13 -> 16         0.68035

 Excited State   3:      Singlet-A      5.1022 eV  243.00 nm  f=0.0081  <S**2>=0.000
      12 -> 14        -0.41673
      13 -> 15         0.55560
      13 -> 16         0.10207

 Excited State   4:      Singlet-A      5.7620 eV  215.18 nm  f=0.0007  <S**2>=0.000
      12 -> 16         0.13408
      12 -> 17         0.11501
      12 -> 20        -0.10426
      12 -> 22        -0.12256
      13 -> 17         0.43580
      13 -> 18         0.18432
      13 -> 20        -0.30771
      13 -> 22        -0.26894
      13 -> 23         0.14731

 Excited State   5:      Singlet-A      5.7983 eV  213.83 nm  f=0.0011  <S**2>=0.000
       7 -> 16        -0.16407
      12 -> 16         0.64130
      12 -> 22        -0.10463

 Excited State   6:      Singlet-A      6.2085 eV  199.70 nm  f=0.3588  <S**2>=0.000
      11 -> 16        -0.11527
      12 -> 14         0.52662
      13 -> 15         0.39636

 Excited State   7:      Singlet-A      6.2983 eV  196.85 nm  f=0.0019  <S**2>=0.000
      10 -> 14         0.10484
      12 -> 18        -0.11849
      12 -> 19        -0.18510
      12 -> 21        -0.17112
      12 -> 23         0.15758
      13 -> 17        -0.17760
      13 -> 18         0.38407
      13 -> 19         0.22680
      13 -> 21         0.10834
      13 -> 22        -0.16763
      13 -> 23        -0.25861

 Excited State   8:      Singlet-A      6.4493 eV  192.24 nm  f=0.1342  <S**2>=0.000
      12 -> 15         0.65098
      13 -> 14        -0.18997

 Excited State   9:      Singlet-A      6.5600 eV  189.00 nm  f=0.0022  <S**2>=0.000
      12 -> 17         0.11616
      12 -> 18        -0.10274
      12 -> 23         0.15007
      13 -> 17         0.18949
      13 -> 18        -0.36369
      13 -> 19         0.44825
      13 -> 21         0.22551

 Excited State  10:      Singlet-A      6.8210 eV  181.77 nm  f=0.0091  <S**2>=0.000
      10 -> 14         0.60951
      10 -> 15         0.16608
      11 -> 14        -0.13091
      11 -> 15         0.17245

 Excited State  11:      Singlet-A      7.1310 eV  173.87 nm  f=0.0008  <S**2>=0.000
      12 -> 18         0.52450
      12 -> 19        -0.12117
      12 -> 21        -0.21869
      12 -> 23        -0.11767
      13 -> 17        -0.15665
      13 -> 18        -0.18511
      13 -> 19         0.10325
      13 -> 22        -0.16015

 Excited State  12:      Singlet-A      7.2311 eV  171.46 nm  f=0.0028  <S**2>=0.000
       9 -> 14         0.11727
      10 -> 15         0.12800
      11 -> 14         0.29218
      11 -> 15        -0.17078
      12 -> 17        -0.22730
      12 -> 19         0.22238
      13 -> 17         0.13071
      13 -> 18         0.15481
      13 -> 19         0.35346
      13 -> 21        -0.18639

 Excited State  13:      Singlet-A      7.3532 eV  168.61 nm  f=0.0033  <S**2>=0.000
       9 -> 15        -0.15855
      10 -> 15         0.21310
      11 -> 14         0.47409
      12 -> 17         0.12894
      12 -> 19        -0.18678
      13 -> 18        -0.16125
      13 -> 19        -0.14552
      13 -> 21         0.14525
      13 -> 22        -0.15090

 Excited State  14:      Singlet-A      7.4617 eV  166.16 nm  f=0.0001  <S**2>=0.000
      12 -> 17        -0.24767
      12 -> 19        -0.24303
      12 -> 20        -0.17125
      12 -> 21        -0.13172
      12 -> 22         0.25008
      13 -> 17         0.30260
      13 -> 19        -0.11978
      13 -> 22         0.20639
      13 -> 23        -0.26969

 Excited State  15:      Singlet-A      7.5284 eV  164.69 nm  f=0.0075  <S**2>=0.000
      11 -> 14         0.11474
      12 -> 17         0.31397
      13 -> 19         0.10369
      13 -> 20        -0.36227
      13 -> 22         0.43252

 The electronic state is 1-A.
 Alpha  occ. eigenvalues --   -1.57110  -1.22404  -1.10800  -0.82191  -0.80491
 Alpha  occ. eigenvalues --   -0.68337  -0.60411  -0.57235  -0.51025  -0.48957
 Alpha  occ. eigenvalues --   -0.48819  -0.39379  -0.34450
 Alpha virt. eigenvalues --    0.03322   0.06665   0.09024   0.13658   0.14568
 Alpha virt. eigenvalues --    0.15834   0.16994   0.18344   0.19371   0.20773
 Alpha virt. eigenvalues --    0.22907

 Mulliken charges:
               1
     1  C   -0.228382
     2  C   -0.085146
     3  O   -0.094581
     4  C   -0.097619
     5  C   -0.199158
     6  H    0.156216
     7  H    0.189367
     8  H    0.194459
     9  H    0.164844
 Sum of Mulliken charges =   0.00000

 Dipole moment (field-independent basis, Debye):
    X=             -0.0421    Y=              0.3741    Z=              0.0471  Tot=              0.3794
 N-N= 1.034822989493D+02 E-N=-1.711415343998D+02  KE=-1.653683350857D+01
 Orbital energies and kinetic energies (alpha):
                                 1                 2
   1         O                -1.571099         -1.317468
   2         O                -1.224043         -1.039953
   3         O                -1.108000         -0.967207
   4         O                -0.821908         -0.708891
   5         O                -0.804906         -0.712913
   6         O                -0.683367         -0.601476
   7         O                -0.604115         -0.490004

 Normal termination of Gaussian 09 at Tue Dec 15 16:15:33 2015.
