 Gaussian 09, Revision D.01,
 Gaussian 09:  ES64L-G09RevD.01 24-Apr-2013

 ------------------------------------------------------------
 #P AM1(Input,print) CIS(Singlets,NStates=15) pop(full) force
 ------------------------------------------------------------

 -----------------
 AM1-Reparam Input
 -----------------
 Symbolic Z-matrix:
 Charge =  0 Multiplicity = 1

                         Standard orientation:
 ---------------------------------------------------------------------
 Center     Atomic      Atomic             Coordinates (Angstroms)
 Number     Number       Type             X           Y           Z
 ---------------------------------------------------------------------
      1          6           0        0.811789    0.906537    0.025962
      2          6           0        1.075719   -0.432537   -0.019495
      3          8           0       -0.075229   -1.151355    0.012376
      4          6           0       -1.172783   -0.259584   -0.018905
      5          6           0       -0.628214    1.018835    0.000406
      6          1           0       -1.201693    1.945600   -0.018772
      7          1           0       -2.175478   -0.712502    0.035409
      8          1           0        1.920125   -1.066049   -0.008658
      9          1           0        1.539818    1.644287   -0.034797
 ---------------------------------------------------------------------

 SCF Done:  E(RAM1) =   2.09762097105     A.U. after   13 cycles

 Excitation energies and oscillator strengths:

 Excited State   1:      Singlet-A      5.4592 eV  227.11 nm  f=0.3588  <S**2>=0.000
      13 -> 14         0.69511
 This state for optimization and/or second-order correction.
 Total Energy, E(CIS) =   2.29824368739
 Copying the excited state density for this state as the 1-particle RhoCI density.

 Excited State   2:      Singlet-A      6.4679 eV  191.69 nm  f=0.0014  <S**2>=0.000
      11 -> 15         0.12056
      13 -> 15         0.66812
      13 -> 17        -0.14912

 Excited State   3:      Singlet-A      6.9260 eV  179.01 nm  f=0.0012  <S**2>=0.000
      11 -> 16        -0.12600
      13 -> 16         0.65830
      13 -> 17        -0.10229
      13 -> 18         0.11271
      13 -> 19        -0.12254

 Excited State   4:      Singlet-A      7.2734 eV  170.46 nm  f=0.0007  <S**2>=0.000
      12 -> 14         0.69779

 Excited State   5:      Singlet-A      8.0730 eV  153.58 nm  f=0.0092  <S**2>=0.000
      10 -> 14         0.59114
      11 -> 14        -0.12125
      13 -> 17        -0.25346
      13 -> 18        -0.17693
      13 -> 22         0.15475

 Excited State   6:      Singlet-A      8.1615 eV  151.91 nm  f=0.0001  <S**2>=0.000
      10 -> 14         0.32096
      13 -> 17         0.21968
      13 -> 18         0.44750
      13 -> 19        -0.13056
      13 -> 21         0.14034
      13 -> 22        -0.28749

 Excited State   7:      Singlet-A      8.4477 eV  146.77 nm  f=0.0111  <S**2>=0.000
      10 -> 14         0.13910
      11 -> 16        -0.11840
      13 -> 16         0.12103
      13 -> 17         0.57945
      13 -> 18        -0.27132
      13 -> 22         0.12957

 Excited State   8:      Singlet-A      8.9045 eV  139.24 nm  f=0.0799  <S**2>=0.000
      10 -> 14         0.14151
      11 -> 14         0.65304
      13 -> 20        -0.15075

 Excited State   9:      Singlet-A      9.1613 eV  135.33 nm  f=0.0012  <S**2>=0.000
      13 -> 18         0.20349
      13 -> 19         0.64188

 Excited State  10:      Singlet-A      9.5993 eV  129.16 nm  f=0.0026  <S**2>=0.000
      13 -> 18         0.36484
      13 -> 19        -0.10547
      13 -> 21        -0.26100
      13 -> 22         0.51394

 Excited State  11:      Singlet-A      9.8572 eV  125.78 nm  f=0.0272  <S**2>=0.000
       8 -> 15         0.12619
      10 -> 16         0.12973
      10 -> 17        -0.17345
      12 -> 15         0.43717
      12 -> 16        -0.18895
      12 -> 17        -0.12642
      12 -> 18        -0.21566
      13 -> 21        -0.24712

 Excited State  12:      Singlet-A      9.9153 eV  125.04 nm  f=0.0790  <S**2>=0.000
      11 -> 16        -0.10143
      12 -> 15         0.19638
      13 -> 19        -0.11186
      13 -> 20        -0.36911
      13 -> 21         0.41639
      13 -> 22         0.27451

 Excited State  13:      Singlet-A     10.1380 eV  122.30 nm  f=0.0776  <S**2>=0.000
      10 -> 15        -0.14714
      11 -> 14         0.13483
      11 -> 15         0.14113
      12 -> 15         0.10055
      13 -> 20         0.52666
      13 -> 21         0.33821
      13 -> 22         0.10508

 Excited State  14:      Singlet-A     10.2097 eV  121.44 nm  f=0.1143  <S**2>=0.000
      10 -> 15        -0.25166
      10 -> 17         0.16748
      11 -> 14        -0.10666
      11 -> 15         0.44979
      11 -> 16         0.11904
      12 -> 15         0.21703
      12 -> 18         0.16483
      13 -> 20        -0.11996
      13 -> 21        -0.15287

 Excited State  15:      Singlet-A     10.2579 eV  120.87 nm  f=0.0376  <S**2>=0.000
      10 -> 15         0.30265
      10 -> 17        -0.14540
      11 -> 15         0.38747
      11 -> 16         0.12432
      12 -> 15        -0.25567
      12 -> 16        -0.24907
      12 -> 18        -0.16400
      13 -> 15        -0.10275

 The electronic state is 1-A.
 Alpha  occ. eigenvalues --   -1.93058  -1.17677  -0.92793  -0.81265  -0.78032
 Alpha  occ. eigenvalues --   -0.69026  -0.65013  -0.55933  -0.54490  -0.45010
 Alpha  occ. eigenvalues --   -0.44500  -0.42238  -0.29357
 Alpha virt. eigenvalues --    0.11131   0.17266   0.19064   0.25453   0.27750
 Alpha virt. eigenvalues --    0.29374   0.30375   0.30842   0.31522   0.38547
 Alpha virt. eigenvalues --    0.43068

 Mulliken charges:
               1
     1  C   -0.172910
     2  C   -1.874807
     3  O    3.219781
     4  C   -1.881994
     5  C   -0.125005
     6  H    0.159823
     7  H    0.260240
     8  H    0.251842
     9  H    0.163029
 Sum of Mulliken charges =   0.00000

 Dipole moment (field-independent basis, Debye):
    X=             -0.4885    Y=            -10.8911    Z=              0.4770  Tot=             10.9125
 N-N= 1.034991793598D+02 E-N=-1.681578641703D+02  KE=-1.527743116150D+01
 Orbital energies and kinetic energies (alpha):
                                 1                 2
   1         O                -1.930585         -1.339176
   2         O                -1.176773         -1.036816
   3         O                -0.927930         -0.869830
   4         O                -0.812650         -0.594167
   5         O                -0.780323         -0.669108
   6         O                -0.690257         -0.596065
   7         O                -0.650126         -0.518810

 Normal termination of Gaussian 09 at Tue Dec 15 17:09:25 2015.
