 Gaussian 09, Revision D.01,
 Gaussian 09:  ES64L-G09RevD.01 24-Apr-2013

 ------------------------------------------------------------
 #P AM1(Input,print) CIS(Singlets,NStates=15) pop(full) force
 ------------------------------------------------------------

 -----------------
 AM1-Reparam Input
 -----------------
 Symbolic Z-matrix:
 Charge =  0 Multiplicity = 1

                         Standard orientation:
 ---------------------------------------------------------------------
 Center     Atomic      Atomic             Coordinates (Angstroms)
 Number     Number       Type             X           Y           Z
 ---------------------------------------------------------------------
      1          6           0       -1.115220    0.506248    0.010032
      2          6           0       -0.781567   -0.769679   -0.008981
      3          8           0        0.554626   -1.039254   -0.005218
      4          6           0        1.133608    0.197050    0.015542
      5          6           0        0.174769    1.171781   -0.010840
      6          1           0        0.351075    2.265793    0.005408
      7          1           0        2.262143    0.197772   -0.014644
      8          1           0       -1.455427   -1.702582    0.031262
      9          1           0       -2.064344    0.920648   -0.014796
 ---------------------------------------------------------------------

 SCF Done:  E(RAM1) =   1.80430957349     A.U. after   14 cycles

 Excitation energies and oscillator strengths:

 Excited State   1:      Singlet-A      5.3842 eV  230.27 nm  f=0.3561  <S**2>=0.000
      13 -> 14         0.69360
 This state for optimization and/or second-order correction.
 Total Energy, E(CIS) =   2.00217623938
 Copying the excited state density for this state as the 1-particle RhoCI density.

 Excited State   2:      Singlet-A      6.2659 eV  197.87 nm  f=0.0014  <S**2>=0.000
      11 -> 15         0.10018
      13 -> 15         0.67933
      13 -> 17        -0.11828

 Excited State   3:      Singlet-A      6.6403 eV  186.71 nm  f=0.0024  <S**2>=0.000
      13 -> 16         0.67091
      13 -> 18        -0.14890

 Excited State   4:      Singlet-A      7.4103 eV  167.31 nm  f=0.0002  <S**2>=0.000
      12 -> 14         0.70094

 Excited State   5:      Singlet-A      8.0473 eV  154.07 nm  f=0.0014  <S**2>=0.000
      13 -> 17        -0.38537
      13 -> 18         0.52444
      13 -> 21         0.20814

 Excited State   6:      Singlet-A      8.4667 eV  146.44 nm  f=0.0098  <S**2>=0.000
      10 -> 14         0.66835
      13 -> 17        -0.14158
      13 -> 18        -0.13662

 Excited State   7:      Singlet-A      8.7255 eV  142.09 nm  f=0.0097  <S**2>=0.000
      10 -> 14         0.20438
      11 -> 16        -0.10886
      13 -> 16         0.12397
      13 -> 17         0.53889
      13 -> 18         0.34479

 Excited State   8:      Singlet-A      9.0818 eV  136.52 nm  f=0.0914  <S**2>=0.000
      11 -> 14         0.66367
      12 -> 15         0.12290

 Excited State   9:      Singlet-A      9.2792 eV  133.62 nm  f=0.0008  <S**2>=0.000
      13 -> 19         0.68700

 Excited State  10:      Singlet-A      9.5742 eV  129.50 nm  f=0.0588  <S**2>=0.000
       8 -> 16         0.12310
       9 -> 15         0.16123
      10 -> 16         0.12748
      10 -> 17        -0.13416
      10 -> 18        -0.11991
      11 -> 14        -0.10726
      12 -> 15         0.49911
      12 -> 16        -0.18390
      12 -> 17        -0.16871
      12 -> 18         0.22198

 Excited State  11:      Singlet-A     10.1693 eV  121.92 nm  f=0.1757  <S**2>=0.000
      10 -> 16         0.22260
      10 -> 17        -0.10894
      11 -> 15         0.16557
      12 -> 16         0.44789
      12 -> 17        -0.21649
      12 -> 19        -0.12149
      13 -> 20         0.21849
      13 -> 21        -0.16621

 Excited State  12:      Singlet-A     10.1833 eV  121.75 nm  f=0.0440  <S**2>=0.000
      10 -> 15        -0.16126
      11 -> 15        -0.22317
      12 -> 15         0.19971
      12 -> 16         0.42228
      12 -> 18        -0.15532
      13 -> 18        -0.11477
      13 -> 20        -0.27936
      13 -> 21         0.22552

 Excited State  13:      Singlet-A     10.2183 eV  121.34 nm  f=0.1363  <S**2>=0.000
      10 -> 15         0.27549
      10 -> 16         0.13938
      10 -> 17        -0.14640
      11 -> 15        -0.12036
      12 -> 15        -0.25359
      12 -> 17        -0.15820
      12 -> 18         0.21834
      13 -> 18        -0.13058
      13 -> 20        -0.27153
      13 -> 21         0.27187

 Excited State  14:      Singlet-A     10.2984 eV  120.39 nm  f=0.0052  <S**2>=0.000
       7 -> 15        -0.11192
      11 -> 15         0.53111
      11 -> 16         0.28113
      13 -> 15        -0.10801
      13 -> 20        -0.23484
      13 -> 21         0.18291

 Excited State  15:      Singlet-A     10.4261 eV  118.92 nm  f=0.0286  <S**2>=0.000
      11 -> 15        -0.23784
      11 -> 16         0.49745
      13 -> 18         0.13010
      13 -> 20        -0.20882
      13 -> 21        -0.31532

 The electronic state is 1-A.
 Alpha  occ. eigenvalues --   -1.98803  -1.26932  -0.98764  -0.89223  -0.83650
 Alpha  occ. eigenvalues --   -0.75779  -0.74026  -0.61717  -0.60641  -0.52062
 Alpha  occ. eigenvalues --   -0.51427  -0.48519  -0.35371
 Alpha virt. eigenvalues --    0.05270   0.10177   0.11633   0.20263   0.21449
 Alpha virt. eigenvalues --    0.23583   0.26484   0.28265   0.29341   0.37962
 Alpha virt. eigenvalues --    0.42216

 Mulliken charges:
               1
     1  C   -0.106326
     2  C   -1.887239
     3  O    3.155327
     4  C   -1.880165
     5  C   -0.146155
     6  H    0.149939
     7  H    0.282324
     8  H    0.296293
     9  H    0.136002
 Sum of Mulliken charges =   0.00000

 Dipole moment (field-independent basis, Debye):
    X=              4.9157    Y=            -10.2160    Z=             -0.0975  Tot=             11.3376
 N-N= 1.053610076664D+02 E-N=-1.703616693523D+02  KE=-1.561352025435D+01
 Orbital energies and kinetic energies (alpha):
                                 1                 2
   1         O                -1.988026         -1.370331
   2         O                -1.269316         -1.059465
   3         O                -0.987640         -0.883510
   4         O                -0.892227         -0.576709
   5         O                -0.836497         -0.681785
   6         O                -0.757787         -0.605161
   7         O                -0.740255         -0.545266

 Normal termination of Gaussian 09 at Tue Dec 15 17:08:53 2015.
