 Gaussian 09, Revision D.01,
 Gaussian 09:  ES64L-G09RevD.01 24-Apr-2013

 ------------------------------------------------------------
 #P AM1(Input,print) CIS(Singlets,NStates=15) pop(full) force
 ------------------------------------------------------------

 -----------------
 AM1-Reparam Input
 -----------------
 Symbolic Z-matrix:
 Charge =  0 Multiplicity = 1

                         Standard orientation:
 ---------------------------------------------------------------------
 Center     Atomic      Atomic             Coordinates (Angstroms)
 Number     Number       Type             X           Y           Z
 ---------------------------------------------------------------------
      1          6           0       -0.635852    0.987878    0.013521
      2          6           0       -1.130008   -0.288040    0.007647
      3          8           0       -0.073227   -1.147976    0.000258
      4          6           0        1.100177   -0.403273   -0.007055
      5          6           0        0.726460    0.910716   -0.029787
      6          1           0        1.488692    1.726728    0.064265
      7          1           0        2.010116   -0.945801    0.059112
      8          1           0       -2.049912   -0.717208   -0.032770
      9          1           0       -1.227742    1.876404    0.001369
 ---------------------------------------------------------------------

 SCF Done:  E(RAM1) =   2.53753807342     A.U. after   14 cycles

 Excitation energies and oscillator strengths:

 Excited State   1:      Singlet-A      5.6056 eV  221.18 nm  f=0.3129  <S**2>=0.000
      13 -> 14         0.68980
 This state for optimization and/or second-order correction.
 Total Energy, E(CIS) =   2.74353919874
 Copying the excited state density for this state as the 1-particle RhoCI density.

 Excited State   2:      Singlet-A      6.7614 eV  183.37 nm  f=0.0080  <S**2>=0.000
      10 -> 16        -0.10217
      13 -> 15         0.65772
      13 -> 17        -0.20162

 Excited State   3:      Singlet-A      7.0268 eV  176.44 nm  f=0.0000  <S**2>=0.000
      10 -> 15        -0.13140
      13 -> 16         0.65352
      13 -> 19         0.18227

 Excited State   4:      Singlet-A      7.1788 eV  172.71 nm  f=0.0013  <S**2>=0.000
       9 -> 14         0.13223
      12 -> 14         0.68724

 Excited State   5:      Singlet-A      7.6908 eV  161.21 nm  f=0.0053  <S**2>=0.000
      10 -> 14        -0.14911
      11 -> 14         0.67946

 Excited State   6:      Singlet-A      8.2586 eV  150.13 nm  f=0.0002  <S**2>=0.000
      13 -> 17        -0.15296
      13 -> 18         0.58555
      13 -> 21         0.32780

 Excited State   7:      Singlet-A      8.5122 eV  145.65 nm  f=0.0090  <S**2>=0.000
      10 -> 16        -0.17270
      13 -> 15         0.15374
      13 -> 17         0.63598
      13 -> 18         0.13688

 Excited State   8:      Singlet-A      8.9087 eV  139.17 nm  f=0.0882  <S**2>=0.000
      10 -> 14         0.67367
      11 -> 14         0.14611

 Excited State   9:      Singlet-A      9.2113 eV  134.60 nm  f=0.0011  <S**2>=0.000
      10 -> 15         0.16599
      13 -> 16        -0.12828
      13 -> 18         0.11629
      13 -> 19         0.63230
      13 -> 21        -0.14922

 Excited State  10:      Singlet-A      9.4415 eV  131.32 nm  f=0.1042  <S**2>=0.000
       8 -> 15        -0.10037
       9 -> 16         0.14836
       9 -> 19         0.10029
      11 -> 15         0.35625
      11 -> 16         0.13271
      11 -> 17        -0.28939
      12 -> 15        -0.15554
      12 -> 16         0.12642
      12 -> 17         0.14177
      12 -> 18        -0.30071
      13 -> 14         0.11757

 Excited State  11:      Singlet-A      9.7471 eV  127.20 nm  f=0.0031  <S**2>=0.000
       9 -> 14         0.10417
      13 -> 18        -0.33107
      13 -> 19         0.17805
      13 -> 20        -0.18020
      13 -> 21         0.54486

 Excited State  12:      Singlet-A      9.8751 eV  125.55 nm  f=0.0338  <S**2>=0.000
      11 -> 16        -0.25150
      11 -> 19        -0.10913
      12 -> 15         0.43271
      12 -> 16         0.40477
      12 -> 17        -0.13643

 Excited State  13:      Singlet-A      9.9299 eV  124.86 nm  f=0.1450  <S**2>=0.000
      11 -> 15        -0.34523
      11 -> 16         0.13867
      12 -> 15        -0.29791
      12 -> 16         0.45814
      12 -> 19         0.12761

 Excited State  14:      Singlet-A     10.1070 eV  122.67 nm  f=0.1088  <S**2>=0.000
      10 -> 16        -0.16018
      13 -> 20         0.64821
      13 -> 21         0.18594

 Excited State  15:      Singlet-A     10.2250 eV  121.26 nm  f=0.0087  <S**2>=0.000
       9 -> 14        -0.17758
      10 -> 15         0.57098
      13 -> 16         0.16025
      13 -> 21         0.13380

 The electronic state is 1-A.
 Alpha  occ. eigenvalues --   -1.73742  -1.16992  -0.96017  -0.80802  -0.77297
 Alpha  occ. eigenvalues --   -0.67730  -0.64676  -0.56060  -0.50766  -0.43945
 Alpha  occ. eigenvalues --   -0.43048  -0.41435  -0.30223
 Alpha virt. eigenvalues --    0.11807   0.18614   0.19133   0.24653   0.26926
 Alpha virt. eigenvalues --    0.28712   0.30779   0.32348   0.38569   0.47569
 Alpha virt. eigenvalues --    0.52565

 Mulliken charges:
               1
     1  C   -0.073380
     2  C   -1.936421
     3  O    3.239391
     4  C   -1.934128
     5  C   -0.052092
     6  H    0.125271
     7  H    0.253900
     8  H    0.252328
     9  H    0.125133
 Sum of Mulliken charges =   0.00000

 Dipole moment (field-independent basis, Debye):
    X=             -0.6282    Y=            -10.3337    Z=              0.0833  Tot=             10.3531
 N-N= 1.039228025113D+02 E-N=-1.688489563164D+02  KE=-1.506691785983D+01
 Orbital energies and kinetic energies (alpha):
                                 1                 2
   1         O                -1.737416         -1.232864
   2         O                -1.169924         -1.015038
   3         O                -0.960173         -0.869546
   4         O                -0.808018         -0.621490
   5         O                -0.772974         -0.685063
   6         O                -0.677297         -0.582341
   7         O                -0.646757         -0.526376

 Normal termination of Gaussian 09 at Tue Dec 15 17:06:19 2015.
