 Gaussian 09, Revision D.01,
 Gaussian 09:  ES64L-G09RevD.01 24-Apr-2013

 ------------------------------------------------------------
 #P AM1(Input,print) CIS(Singlets,NStates=15) pop(full) force
 ------------------------------------------------------------

 -----------------
 AM1-Reparam Input
 -----------------
 Symbolic Z-matrix:
 Charge =  0 Multiplicity = 1

                         Standard orientation:
 ---------------------------------------------------------------------
 Center     Atomic      Atomic             Coordinates (Angstroms)
 Number     Number       Type             X           Y           Z
 ---------------------------------------------------------------------
      1          6           0        0.906798    0.776835   -0.013504
      2          6           0        1.034385   -0.574751    0.020855
      3          8           0       -0.305036   -1.109669   -0.002194
      4          6           0       -1.147473   -0.105361   -0.002074
      5          6           0       -0.458687    1.060529   -0.015200
      6          1           0       -0.909003    2.133576    0.071905
      7          1           0       -2.221451   -0.316488    0.014679
      8          1           0        1.834847   -1.276483   -0.028184
      9          1           0        1.725766    1.393239    0.018693
 ---------------------------------------------------------------------

 SCF Done:  E(RAM1) =  -4.07973947119     A.U. after   14 cycles

 Excitation energies and oscillator strengths:

 Excited State   1:      Singlet-A      6.7359 eV  184.06 nm  f=0.2654  <S**2>=0.000
      13 -> 14         0.68808
 This state for optimization and/or second-order correction.
 Total Energy, E(CIS) =  -3.83219927542
 Copying the excited state density for this state as the 1-particle RhoCI density.

 Excited State   2:      Singlet-A      7.7634 eV  159.70 nm  f=0.0031  <S**2>=0.000
      12 -> 14         0.11471
      13 -> 15         0.66837
      13 -> 17         0.13545

 Excited State   3:      Singlet-A      7.9958 eV  155.06 nm  f=0.0068  <S**2>=0.000
      10 -> 14        -0.28108
      11 -> 14        -0.11182
      12 -> 14         0.61513
      13 -> 15        -0.13934

 Excited State   4:      Singlet-A      8.3948 eV  147.69 nm  f=0.0055  <S**2>=0.000
      10 -> 14         0.13811
      11 -> 14        -0.32931
      13 -> 15        -0.12655
      13 -> 17         0.57739

 Excited State   5:      Singlet-A      8.5393 eV  145.19 nm  f=0.0045  <S**2>=0.000
      10 -> 14        -0.17727
      11 -> 14         0.57186
      13 -> 17         0.34888

 Excited State   6:      Singlet-A      8.7733 eV  141.32 nm  f=0.0683  <S**2>=0.000
       9 -> 14        -0.13413
      13 -> 16         0.67737
      13 -> 17        -0.10952

 Excited State   7:      Singlet-A      9.9111 eV  125.10 nm  f=0.0023  <S**2>=0.000
      10 -> 14         0.55611
      11 -> 14         0.18660
      12 -> 14         0.30365
      13 -> 18        -0.18351

 Excited State   8:      Singlet-A     10.0640 eV  123.20 nm  f=0.0043  <S**2>=0.000
      10 -> 14         0.17460
      13 -> 18         0.65408

 Excited State   9:      Singlet-A     10.6205 eV  116.74 nm  f=0.0171  <S**2>=0.000
      11 -> 15        -0.10745
      12 -> 15         0.20570
      13 -> 19         0.61183

 Excited State  10:      Singlet-A     10.6659 eV  116.24 nm  f=0.0538  <S**2>=0.000
       9 -> 14         0.23338
      11 -> 15        -0.20295
      12 -> 15         0.48296
      12 -> 17         0.18906
      13 -> 19        -0.27472

 Excited State  11:      Singlet-A     10.8636 eV  114.13 nm  f=0.0717  <S**2>=0.000
       9 -> 14         0.52709
      10 -> 17         0.11983
      11 -> 15         0.31450
      11 -> 17         0.17134
      12 -> 19         0.10343

 Excited State  12:      Singlet-A     11.0953 eV  111.75 nm  f=0.0323  <S**2>=0.000
       9 -> 14        -0.25511
      10 -> 15        -0.28777
      11 -> 17         0.18680
      12 -> 15         0.39116
      12 -> 17        -0.25364
      12 -> 18         0.11139
      12 -> 19         0.15959

 Excited State  13:      Singlet-A     11.4859 eV  107.95 nm  f=0.0005  <S**2>=0.000
       8 -> 14        -0.35882
       8 -> 16        -0.11870
      12 -> 16         0.56761

 Excited State  14:      Singlet-A     11.6366 eV  106.55 nm  f=0.0034  <S**2>=0.000
       9 -> 15        -0.19639
       9 -> 17        -0.13182
      13 -> 20         0.63942

 Excited State  15:      Singlet-A     11.8236 eV  104.86 nm  f=0.1821  <S**2>=0.000
       8 -> 14         0.38110
       9 -> 15        -0.20129
       9 -> 16         0.17559
      10 -> 15        -0.35316
      12 -> 16         0.22663
      12 -> 17         0.21011

 The electronic state is 1-A.
 Alpha  occ. eigenvalues --   -3.76066  -1.18180  -0.90776  -0.88702  -0.86015
 Alpha  occ. eigenvalues --   -0.75558  -0.74116  -0.60587  -0.55045  -0.53008
 Alpha  occ. eigenvalues --   -0.50878  -0.48059  -0.38075
 Alpha virt. eigenvalues --    0.08968   0.14991   0.17175   0.17837   0.24199
 Alpha virt. eigenvalues --    0.26987   0.31157   0.34837   0.42841   0.48931
 Alpha virt. eigenvalues --    0.51642

 Mulliken charges:
               1
     1  C   -0.015646
     2  C   -1.311884
     3  O    2.913845
     4  C   -1.383859
     5  C   -0.110472
     6  H   -0.022216
     7  H   -0.002497
     8  H   -0.034223
     9  H   -0.033049
 Sum of Mulliken charges =   0.00000

 Dipole moment (field-independent basis, Debye):
    X=             -3.1690    Y=            -10.4047    Z=             -0.1417  Tot=             10.8775
 N-N= 1.044330119425D+02 E-N=-1.710896007927D+02  KE=-2.163458380404D+01
 Orbital energies and kinetic energies (alpha):
                                 1                 2
   1         O                -3.760657         -2.951167
   2         O                -1.181801         -1.043405
   3         O                -0.907762         -0.752843
   4         O                -0.887020         -0.809362
   5         O                -0.860154         -0.821036
   6         O                -0.755576         -0.678583
   7         O                -0.741162         -0.768659

 Normal termination of Gaussian 09 at Fri Dec 11 13:41:22 2015.
