 Gaussian 09, Revision D.01,
 Gaussian 09:  ES64L-G09RevD.01 24-Apr-2013

 ------------------------------------------------------------
 #P AM1(Input,print) CIS(Singlets,NStates=15) pop(full) force
 ------------------------------------------------------------

 -----------------
 AM1-Reparam Input
 -----------------
 Symbolic Z-matrix:
 Charge =  0 Multiplicity = 1

                         Standard orientation:
 ---------------------------------------------------------------------
 Center     Atomic      Atomic             Coordinates (Angstroms)
 Number     Number       Type             X           Y           Z
 ---------------------------------------------------------------------
      1          6           0       -1.115220    0.506248    0.010032
      2          6           0       -0.781567   -0.769679   -0.008981
      3          8           0        0.554626   -1.039254   -0.005218
      4          6           0        1.133608    0.197050    0.015542
      5          6           0        0.174769    1.171781   -0.010840
      6          1           0        0.351075    2.265793    0.005408
      7          1           0        2.262143    0.197772   -0.014644
      8          1           0       -1.455427   -1.702582    0.031262
      9          1           0       -2.064344    0.920648   -0.014796
 ---------------------------------------------------------------------

 SCF Done:  E(RAM1) =   2.05418081183     A.U. after   13 cycles

 Excitation energies and oscillator strengths:

 Excited State   1:      Singlet-A      5.2768 eV  234.96 nm  f=0.3495  <S**2>=0.000
      13 -> 14         0.69613
 This state for optimization and/or second-order correction.
 Total Energy, E(CIS) =   2.24810005081
 Copying the excited state density for this state as the 1-particle RhoCI density.

 Excited State   2:      Singlet-A      6.3835 eV  194.23 nm  f=0.0023  <S**2>=0.000
      11 -> 15         0.10670
      13 -> 15         0.65507
      13 -> 17         0.15404
      13 -> 18         0.16698

 Excited State   3:      Singlet-A      6.6675 eV  185.95 nm  f=0.0013  <S**2>=0.000
      12 -> 14         0.64829
      13 -> 16         0.23368

 Excited State   4:      Singlet-A      6.7360 eV  184.06 nm  f=0.0028  <S**2>=0.000
      12 -> 14        -0.26541
      13 -> 16         0.59124
      13 -> 17         0.14383
      13 -> 18        -0.20178

 Excited State   5:      Singlet-A      7.7539 eV  159.90 nm  f=0.0056  <S**2>=0.000
      10 -> 14         0.14509
      13 -> 15        -0.16072
      13 -> 16         0.11156
      13 -> 17         0.29998
      13 -> 18         0.40929
      13 -> 19         0.28050
      13 -> 20        -0.26649
      13 -> 21        -0.13166

 Excited State   6:      Singlet-A      7.8939 eV  157.06 nm  f=0.0058  <S**2>=0.000
      10 -> 14         0.68135
      13 -> 18        -0.10959

 Excited State   7:      Singlet-A      8.3348 eV  148.75 nm  f=0.0251  <S**2>=0.000
      11 -> 16         0.12488
      13 -> 16        -0.19300
      13 -> 17         0.59176
      13 -> 18        -0.19987
      13 -> 19        -0.12755
      13 -> 20         0.14214

 Excited State   8:      Singlet-A      8.7328 eV  141.98 nm  f=0.0076  <S**2>=0.000
      11 -> 14        -0.18139
      13 -> 16        -0.10886
      13 -> 18        -0.39064
      13 -> 19         0.49149
      13 -> 20        -0.20086

 Excited State   9:      Singlet-A      8.7358 eV  141.93 nm  f=0.1022  <S**2>=0.000
      11 -> 14         0.65728
      13 -> 18        -0.10910
      13 -> 19         0.13241

 Excited State  10:      Singlet-A      9.3372 eV  132.78 nm  f=0.0986  <S**2>=0.000
       9 -> 15         0.16830
      10 -> 16         0.12402
      10 -> 17         0.15960
      12 -> 15         0.46748
      12 -> 16        -0.21192
      12 -> 17         0.12970
      12 -> 18         0.26324
      12 -> 19         0.12871

 Excited State  11:      Singlet-A      9.4474 eV  131.24 nm  f=0.0140  <S**2>=0.000
      13 -> 18         0.16241
      13 -> 19         0.36839
      13 -> 20         0.54526
      13 -> 21         0.17131

 Excited State  12:      Singlet-A      9.8624 eV  125.71 nm  f=0.0597  <S**2>=0.000
      13 -> 20        -0.20538
      13 -> 21         0.65123

 Excited State  13:      Singlet-A      9.9002 eV  125.23 nm  f=0.0497  <S**2>=0.000
      10 -> 15        -0.10588
      11 -> 14        -0.10474
      12 -> 15         0.31409
      12 -> 16         0.49238
      12 -> 17         0.11180
      12 -> 18        -0.23233
      12 -> 19        -0.13718

 Excited State  14:      Singlet-A      9.9951 eV  124.04 nm  f=0.1883  <S**2>=0.000
       9 -> 15        -0.10146
      10 -> 15         0.16842
      10 -> 16         0.23973
      10 -> 17         0.19379
      10 -> 18        -0.10547
      12 -> 15        -0.22541
      12 -> 16         0.28200
      12 -> 17         0.26713
      12 -> 19         0.28555

 Excited State  15:      Singlet-A     10.1183 eV  122.53 nm  f=0.0015  <S**2>=0.000
       7 -> 15        -0.11827
      11 -> 15         0.57537
      11 -> 16         0.29561
      11 -> 17         0.14390
      13 -> 15        -0.11892

 The electronic state is 1-A.
 Alpha  occ. eigenvalues --   -1.93343  -1.19558  -0.93919  -0.81753  -0.77626
 Alpha  occ. eigenvalues --   -0.67797  -0.64429  -0.53395  -0.52511  -0.43715
 Alpha  occ. eigenvalues --   -0.43298  -0.39856  -0.27984
 Alpha virt. eigenvalues --    0.11876   0.18062   0.19403   0.26479   0.27774
 Alpha virt. eigenvalues --    0.30215   0.31108   0.32306   0.35845   0.45246
 Alpha virt. eigenvalues --    0.48796

 Mulliken charges:
               1
     1  C   -0.199352
     2  C   -1.990190
     3  O    3.168310
     4  C   -1.992132
     5  C   -0.219913
     6  H    0.250163
     7  H    0.365174
     8  H    0.372773
     9  H    0.245166
 Sum of Mulliken charges =   0.00000

 Dipole moment (field-independent basis, Debye):
    X=              4.7314    Y=             -9.8436    Z=             -0.1012  Tot=             10.9221
 N-N= 1.041366989258D+02 E-N=-1.695275694094D+02  KE=-1.545377021029D+01
 Orbital energies and kinetic energies (alpha):
                                 1                 2
   1         O                -1.933427         -1.381839
   2         O                -1.195576         -1.075813
   3         O                -0.939193         -0.869534
   4         O                -0.817534         -0.591764
   5         O                -0.776263         -0.660397
   6         O                -0.677966         -0.571300
   7         O                -0.644288         -0.522605

 Normal termination of Gaussian 09 at Tue Dec 15 17:07:13 2015.
