 Gaussian 09, Revision D.01,
 Gaussian 09:  ES64L-G09RevD.01 24-Apr-2013

 ------------------------------------------------------------
 #P AM1(Input,print) CIS(Singlets,NStates=15) pop(full) force
 ------------------------------------------------------------

 -----------------
 AM1-Reparam Input
 -----------------
 Symbolic Z-matrix:
 Charge =  0 Multiplicity = 1

                         Standard orientation:
 ---------------------------------------------------------------------
 Center     Atomic      Atomic             Coordinates (Angstroms)
 Number     Number       Type             X           Y           Z
 ---------------------------------------------------------------------
      1          6           0       -1.115220    0.506248    0.010032
      2          6           0       -0.781567   -0.769679   -0.008981
      3          8           0        0.554626   -1.039254   -0.005218
      4          6           0        1.133608    0.197050    0.015542
      5          6           0        0.174769    1.171781   -0.010840
      6          1           0        0.351075    2.265793    0.005408
      7          1           0        2.262143    0.197772   -0.014644
      8          1           0       -1.455427   -1.702582    0.031262
      9          1           0       -2.064344    0.920648   -0.014796
 ---------------------------------------------------------------------

 SCF Done:  E(RAM1) =   1.40482538814     A.U. after   13 cycles

 Excitation energies and oscillator strengths:

 Excited State   1:      Singlet-A      5.7708 eV  214.85 nm  f=0.0062  <S**2>=0.000
      12 -> 15         0.11464
      13 -> 14        -0.12429
      13 -> 15         0.66319
 This state for optimization and/or second-order correction.
 Total Energy, E(CIS) =   1.61689844763
 Copying the excited state density for this state as the 1-particle RhoCI density.

 Excited State   2:      Singlet-A      5.8785 eV  210.91 nm  f=0.3028  <S**2>=0.000
      13 -> 14         0.68202
      13 -> 15         0.12164

 Excited State   3:      Singlet-A      6.1993 eV  200.00 nm  f=0.0001  <S**2>=0.000
      12 -> 16        -0.12160
      13 -> 16         0.66332
      13 -> 21        -0.11538

 Excited State   4:      Singlet-A      7.3337 eV  169.06 nm  f=0.0001  <S**2>=0.000
      11 -> 14         0.69200

 Excited State   5:      Singlet-A      7.5515 eV  164.19 nm  f=0.0086  <S**2>=0.000
      13 -> 15        -0.10112
      13 -> 17         0.66344
      13 -> 20        -0.11242
      13 -> 22         0.13934

 Excited State   6:      Singlet-A      7.9397 eV  156.16 nm  f=0.0011  <S**2>=0.000
      12 -> 15        -0.12199
      12 -> 16        -0.10981
      13 -> 16         0.10018
      13 -> 17        -0.14510
      13 -> 19         0.37501
      13 -> 20        -0.23578
      13 -> 21         0.16921
      13 -> 22         0.44951

 Excited State   7:      Singlet-A      8.2865 eV  149.62 nm  f=0.0063  <S**2>=0.000
      11 -> 15         0.11819
      12 -> 14         0.52340
      13 -> 18         0.44549

 Excited State   8:      Singlet-A      8.5107 eV  145.68 nm  f=0.0055  <S**2>=0.000
      10 -> 14         0.20495
      12 -> 15         0.18026
      13 -> 19         0.48358
      13 -> 20         0.22106
      13 -> 21        -0.34231

 Excited State   9:      Singlet-A      8.5499 eV  145.01 nm  f=0.0000  <S**2>=0.000
      10 -> 14         0.65836
      13 -> 19        -0.15787
      13 -> 20        -0.14197

 Excited State  10:      Singlet-A      8.7427 eV  141.81 nm  f=0.0035  <S**2>=0.000
      12 -> 15         0.12289
      13 -> 19         0.24423
      13 -> 21         0.49686
      13 -> 22        -0.38509

 Excited State  11:      Singlet-A      8.8711 eV  139.76 nm  f=0.0013  <S**2>=0.000
      12 -> 15         0.59226
      12 -> 16         0.12323
      13 -> 16         0.11090
      13 -> 19        -0.14353
      13 -> 20        -0.11060
      13 -> 22         0.21665

 Excited State  12:      Singlet-A      9.0065 eV  137.66 nm  f=0.0388  <S**2>=0.000
      12 -> 15        -0.10671
      12 -> 16         0.53904
      13 -> 20        -0.33117
      13 -> 21        -0.11645
      13 -> 22        -0.13610

 Excited State  13:      Singlet-A      9.1892 eV  134.92 nm  f=0.2159  <S**2>=0.000
       8 -> 15         0.18289
       9 -> 15         0.20487
      11 -> 15         0.51207
      11 -> 16        -0.25632
      13 -> 18        -0.16805

 Excited State  14:      Singlet-A      9.2142 eV  134.56 nm  f=0.2615  <S**2>=0.000
      11 -> 16        -0.10840
      12 -> 14        -0.43892
      13 -> 18         0.49733

 Excited State  15:      Singlet-A      9.2895 eV  133.47 nm  f=0.0461  <S**2>=0.000
      11 -> 15        -0.10876
      12 -> 16         0.34785
      13 -> 20         0.45613
      13 -> 21         0.25524
      13 -> 22         0.20687

 The electronic state is 1-A.
 Alpha  occ. eigenvalues --   -1.88808  -1.18995  -0.94313  -0.78740  -0.76412
 Alpha  occ. eigenvalues --   -0.66906  -0.61735  -0.48469  -0.47537  -0.40766
 Alpha  occ. eigenvalues --   -0.36890  -0.36609  -0.23768
 Alpha virt. eigenvalues --    0.17979   0.19985   0.21398   0.29591   0.30318
 Alpha virt. eigenvalues --    0.31513   0.34186   0.34360   0.36104   0.41068
 Alpha virt. eigenvalues --    0.45670

 Mulliken charges:
               1
     1  C   -0.047450
     2  C   -1.517488
     3  O    2.757922
     4  C   -1.527438
     5  C   -0.078604
     6  H    0.056638
     7  H    0.150354
     8  H    0.146118
     9  H    0.059949
 Sum of Mulliken charges =   0.00000

 Dipole moment (field-independent basis, Debye):
    X=              4.3614    Y=             -9.0175    Z=             -0.0897  Tot=             10.0172
 N-N= 1.033900756224D+02 E-N=-1.697416714332D+02  KE=-1.582986278213D+01
 Orbital energies and kinetic energies (alpha):
                                 1                 2
   1         O                -1.888082         -1.378566
   2         O                -1.189950         -1.083099
   3         O                -0.943128         -0.876353
   4         O                -0.787404         -0.621187
   5         O                -0.764121         -0.688123
   6         O                -0.669058         -0.625114
   7         O                -0.617353         -0.544288

 Normal termination of Gaussian 09 at Tue Dec 15 17:07:53 2015.
