 Gaussian 09, Revision D.01,
 Gaussian 09:  ES64L-G09RevD.01 24-Apr-2013

 ------------------------------------------------------------
 #P AM1(Input,print) CIS(Singlets,NStates=15) pop(full) force
 ------------------------------------------------------------

 -----------------
 AM1-Reparam Input
 -----------------
 Symbolic Z-matrix:
 Charge =  0 Multiplicity = 1

                         Standard orientation:
 ---------------------------------------------------------------------
 Center     Atomic      Atomic             Coordinates (Angstroms)
 Number     Number       Type             X           Y           Z
 ---------------------------------------------------------------------
      1          6           0       -1.158379    0.268987    0.024399
      2          6           0       -0.594766   -0.916088    0.019218
      3          8           0        0.769663   -0.928633   -0.014536
      4          6           0        1.047387    0.466421   -0.002715
      5          6           0       -0.099143    1.174056   -0.022885
      6          1           0       -0.130116    2.278516    0.031869
      7          1           0        2.082167    0.677807    0.071047
      8          1           0       -1.035090   -1.957870   -0.020945
      9          1           0       -2.244857    0.470356   -0.073788
 ---------------------------------------------------------------------

 SCF Done:  E(RAM1) =   2.15630383600     A.U. after   14 cycles

 Excitation energies and oscillator strengths:

 Excited State   1:      Singlet-A      5.5831 eV  222.07 nm  f=0.3141  <S**2>=0.000
      13 -> 14         0.68831
 This state for optimization and/or second-order correction.
 Total Energy, E(CIS) =   2.36147889957
 Copying the excited state density for this state as the 1-particle RhoCI density.

 Excited State   2:      Singlet-A      5.8949 eV  210.32 nm  f=0.0091  <S**2>=0.000
      10 -> 15         0.12251
      13 -> 15         0.67921

 Excited State   3:      Singlet-A      6.7178 eV  184.56 nm  f=0.0030  <S**2>=0.000
      10 -> 16        -0.13286
      13 -> 16         0.66843
      13 -> 17        -0.12317

 Excited State   4:      Singlet-A      7.4184 eV  167.13 nm  f=0.0007  <S**2>=0.000
      12 -> 14         0.69884

 Excited State   5:      Singlet-A      8.0374 eV  154.26 nm  f=0.0130  <S**2>=0.000
      11 -> 14         0.54299
      13 -> 17         0.41758

 Excited State   6:      Singlet-A      8.2142 eV  150.94 nm  f=0.0029  <S**2>=0.000
      11 -> 14        -0.41344
      13 -> 17         0.42569
      13 -> 18        -0.28601
      13 -> 20        -0.15905
      13 -> 22        -0.15505

 Excited State   7:      Singlet-A      8.3099 eV  149.20 nm  f=0.0012  <S**2>=0.000
      11 -> 14        -0.15484
      13 -> 17         0.32609
      13 -> 18         0.49623
      13 -> 20         0.14415
      13 -> 22         0.27775

 Excited State   8:      Singlet-A      8.9684 eV  138.25 nm  f=0.0201  <S**2>=0.000
       9 -> 15        -0.12343
      10 -> 14         0.56043
      12 -> 15        -0.22620
      13 -> 19        -0.29577

 Excited State   9:      Singlet-A      9.0311 eV  137.29 nm  f=0.0005  <S**2>=0.000
      13 -> 18        -0.30945
      13 -> 20         0.59558

 Excited State  10:      Singlet-A      9.3138 eV  133.12 nm  f=0.0864  <S**2>=0.000
       9 -> 15         0.19249
      10 -> 14         0.20591
      11 -> 17        -0.13268
      12 -> 15         0.53695
      12 -> 16        -0.16332
      12 -> 18         0.12190
      13 -> 19        -0.10639

 Excited State  11:      Singlet-A      9.6714 eV  128.20 nm  f=0.0198  <S**2>=0.000
       7 -> 15        -0.10231
      10 -> 15         0.52027
      11 -> 15         0.28111
      13 -> 15        -0.12311
      13 -> 19         0.16087
      13 -> 21         0.16030
      13 -> 22        -0.13624

 Excited State  12:      Singlet-A      9.6972 eV  127.86 nm  f=0.0148  <S**2>=0.000
      11 -> 15         0.12338
      13 -> 18        -0.23564
      13 -> 20        -0.22911
      13 -> 21         0.13956
      13 -> 22         0.56978

 Excited State  13:      Singlet-A      9.7442 eV  127.24 nm  f=0.0637  <S**2>=0.000
      10 -> 14         0.22658
      10 -> 15        -0.29350
      11 -> 15         0.16173
      13 -> 19         0.52133
      13 -> 22        -0.10252

 Excited State  14:      Singlet-A      9.9094 eV  125.12 nm  f=0.1268  <S**2>=0.000
      10 -> 14        -0.16751
      10 -> 15        -0.10631
      11 -> 15         0.37533
      11 -> 16         0.13032
      11 -> 17        -0.21961
      12 -> 18         0.15343
      13 -> 19        -0.22272
      13 -> 21        -0.34481

 Excited State  15:      Singlet-A      9.9287 eV  124.88 nm  f=0.0910  <S**2>=0.000
      10 -> 14        -0.13111
      10 -> 15        -0.23386
      10 -> 16        -0.12415
      11 -> 15         0.10825
      11 -> 17        -0.11683
      12 -> 18         0.10012
      13 -> 19        -0.15793
      13 -> 21         0.53146
      13 -> 22        -0.14525

 The electronic state is 1-A.
 Alpha  occ. eigenvalues --   -1.92600  -1.20690  -0.92259  -0.79407  -0.78348
 Alpha  occ. eigenvalues --   -0.68581  -0.65561  -0.53856  -0.51650  -0.42940
 Alpha  occ. eigenvalues --   -0.42255  -0.40164  -0.27538
 Alpha virt. eigenvalues --    0.14121   0.16466   0.20248   0.26872   0.28634
 Alpha virt. eigenvalues --    0.30335   0.31530   0.32867   0.35009   0.39561
 Alpha virt. eigenvalues --    0.42080

 Mulliken charges:
               1
     1  C   -0.164455
     2  C   -1.849654
     3  O    3.186097
     4  C   -1.847837
     5  C   -0.118723
     6  H    0.146947
     7  H    0.240466
     8  H    0.256495
     9  H    0.150664
 Sum of Mulliken charges =   0.00000

 Dipole moment (field-independent basis, Debye):
    X=              7.1748    Y=             -9.6182    Z=             -0.2872  Tot=             12.0029
 N-N= 1.040410424518D+02 E-N=-1.693288824701D+02  KE=-1.532359671404D+01
 Orbital energies and kinetic energies (alpha):
                                 1                 2
   1         O                -1.926005         -1.337790
   2         O                -1.206898         -1.077591
   3         O                -0.922594         -0.892227
   4         O                -0.794070         -0.565000
   5         O                -0.783475         -0.668210
   6         O                -0.685815         -0.591466
   7         O                -0.655614         -0.537863

 Normal termination of Gaussian 09 at Tue Dec 15 17:09:21 2015.
