 Gaussian 09, Revision D.01,
 Gaussian 09:  ES64L-G09RevD.01 24-Apr-2013

 ------------------------------------------------------------
 #P AM1(Input,print) CIS(Singlets,NStates=15) pop(full) force
 ------------------------------------------------------------

 -----------------
 AM1-Reparam Input
 -----------------
 Symbolic Z-matrix:
 Charge =  0 Multiplicity = 1

                         Standard orientation:
 ---------------------------------------------------------------------
 Center     Atomic      Atomic             Coordinates (Angstroms)
 Number     Number       Type             X           Y           Z
 ---------------------------------------------------------------------
      1          6           0        0.784739    0.890012    0.024979
      2          6           0        1.094651   -0.427110   -0.003319
      3          8           0       -0.098608   -1.146301   -0.008261
      4          6           0       -1.154740   -0.277523    0.017410
      5          6           0       -0.611548    1.025134   -0.026362
      6          1           0       -1.258019    1.925486   -0.014861
      7          1           0       -2.069470   -0.704131    0.026416
      8          1           0        1.965159   -1.006822   -0.021285
      9          1           0        1.472580    1.692791   -0.000433
 ---------------------------------------------------------------------

 SCF Done:  E(RAM1) =   1.69240792185     A.U. after   14 cycles

 Excitation energies and oscillator strengths:

 Excited State   1:      Singlet-A      5.5103 eV  225.01 nm  f=0.3285  <S**2>=0.000
      10 -> 17        -0.10453
      13 -> 14         0.69196
 This state for optimization and/or second-order correction.
 Total Energy, E(CIS) =   1.89490710161
 Copying the excited state density for this state as the 1-particle RhoCI density.

 Excited State   2:      Singlet-A      6.6330 eV  186.92 nm  f=0.0095  <S**2>=0.000
      13 -> 15         0.61499
      13 -> 16         0.15327
      13 -> 17         0.28263

 Excited State   3:      Singlet-A      6.9649 eV  178.01 nm  f=0.0001  <S**2>=0.000
      11 -> 15        -0.13305
      13 -> 15        -0.16799
      13 -> 16         0.59262
      13 -> 19        -0.17884
      13 -> 21         0.21101

 Excited State   4:      Singlet-A      7.2728 eV  170.48 nm  f=0.0006  <S**2>=0.000
      11 -> 14        -0.15018
      12 -> 14         0.63348
      13 -> 16        -0.11401
      13 -> 18        -0.13896
      13 -> 21         0.14037

 Excited State   5:      Singlet-A      7.6564 eV  161.93 nm  f=0.0001  <S**2>=0.000
      12 -> 14        -0.22914
      13 -> 16        -0.13163
      13 -> 18        -0.28436
      13 -> 20        -0.36924
      13 -> 21         0.43786

 Excited State   6:      Singlet-A      7.9320 eV  156.31 nm  f=0.0182  <S**2>=0.000
      10 -> 14         0.44424
      11 -> 16         0.10333
      13 -> 15        -0.19618
      13 -> 17         0.47208
      13 -> 21        -0.12825

 Excited State   7:      Singlet-A      8.0731 eV  153.58 nm  f=0.0020  <S**2>=0.000
      10 -> 14         0.53483
      11 -> 16        -0.10643
      13 -> 15         0.13111
      13 -> 17        -0.41530

 Excited State   8:      Singlet-A      8.5972 eV  144.22 nm  f=0.0005  <S**2>=0.000
      11 -> 15         0.11863
      13 -> 16        -0.19319
      13 -> 18         0.54181
      13 -> 19        -0.29852
      13 -> 21         0.20013

 Excited State   9:      Singlet-A      8.6983 eV  142.54 nm  f=0.0891  <S**2>=0.000
      11 -> 14         0.65246
      12 -> 14         0.15706
      13 -> 19         0.10573

 Excited State  10:      Singlet-A      8.7724 eV  141.33 nm  f=0.0099  <S**2>=0.000
      11 -> 14        -0.12533
      13 -> 18         0.30021
      13 -> 19         0.51855
      13 -> 20        -0.33126

 Excited State  11:      Singlet-A      9.1821 eV  135.03 nm  f=0.0887  <S**2>=0.000
      13 -> 19         0.28618
      13 -> 20         0.46633
      13 -> 21         0.40934

 Excited State  12:      Singlet-A      9.5762 eV  129.47 nm  f=0.0381  <S**2>=0.000
       8 -> 15        -0.11719
       9 -> 16        -0.11698
       9 -> 19         0.10312
      10 -> 15         0.29906
      10 -> 16         0.10308
      10 -> 17         0.33860
      12 -> 16        -0.21807
      12 -> 20         0.26311
      12 -> 21        -0.23174

 Excited State  13:      Singlet-A      9.9033 eV  125.19 nm  f=0.0027  <S**2>=0.000
       7 -> 16         0.10530
      11 -> 15         0.49680
      11 -> 16         0.19070
      11 -> 17         0.14964
      12 -> 15         0.31013
      13 -> 16         0.18045

 Excited State  14:      Singlet-A     10.1437 eV  122.23 nm  f=0.1472  <S**2>=0.000
       8 -> 16         0.10351
      10 -> 15        -0.12087
      10 -> 18         0.10739
      10 -> 20        -0.11280
      11 -> 15        -0.29439
      12 -> 15         0.48828
      12 -> 16        -0.10914
      12 -> 19         0.13876
      12 -> 20         0.10237

 Excited State  15:      Singlet-A     10.1945 eV  121.62 nm  f=0.1345  <S**2>=0.000
      10 -> 15         0.23080
      10 -> 16         0.28509
      10 -> 17         0.11367
      10 -> 18         0.10057
      10 -> 20         0.11231
      12 -> 16         0.41014
      12 -> 17         0.24181

 The electronic state is 1-A.
 Alpha  occ. eigenvalues --   -1.90792  -1.21946  -0.99944  -0.82078  -0.81781
 Alpha  occ. eigenvalues --   -0.68894  -0.62834  -0.55558  -0.52630  -0.43655
 Alpha  occ. eigenvalues --   -0.42588  -0.41679  -0.28982
 Alpha virt. eigenvalues --    0.12268   0.19119   0.20041   0.23989   0.26374
 Alpha virt. eigenvalues --    0.28205   0.28329   0.28791   0.35254   0.43881
 Alpha virt. eigenvalues --    0.49221

 Mulliken charges:
               1
     1  C   -0.096371
     2  C   -1.938083
     3  O    3.195646
     4  C   -1.964510
     5  C   -0.150444
     6  H    0.185914
     7  H    0.293842
     8  H    0.294586
     9  H    0.179420
 Sum of Mulliken charges =   0.00000

 Dipole moment (field-independent basis, Debye):
    X=             -0.6750    Y=            -10.0927    Z=             -0.2233  Tot=             10.1177
 N-N= 1.037285881002D+02 E-N=-1.688713346505D+02  KE=-1.573378379237D+01
 Orbital energies and kinetic energies (alpha):
                                 1                 2
   1         O                -1.907924         -1.364183
   2         O                -1.219460         -1.094210
   3         O                -0.999441         -0.910148
   4         O                -0.820784         -0.650187
   5         O                -0.817808         -0.708975
   6         O                -0.688942         -0.587625
   7         O                -0.628344         -0.507832

 Normal termination of Gaussian 09 at Tue Dec 15 17:06:59 2015.
