 Gaussian 09, Revision D.01,
 Gaussian 09:  ES64L-G09RevD.01 24-Apr-2013

 -------------------------------------------------------
 #P B3LYP/3-21G CIS(Singlets,NStates=15) pop(full) force
 -------------------------------------------------------

 --------
 FuranDFT
 --------
 Symbolic Z-matrix:
 Charge =  0 Multiplicity = 1

                         Standard orientation:
 ---------------------------------------------------------------------
 Center     Atomic      Atomic             Coordinates (Angstroms)
 Number     Number       Type             X           Y           Z
 ---------------------------------------------------------------------
      1          6           0       -0.585602    1.057473   -0.018000
      2          6           0       -1.120263   -0.201910    0.019622
      3          8           0       -0.163898   -1.148734   -0.002021
      4          6           0        1.014724   -0.518693   -0.021482
      5          6           0        0.875538    0.862879    0.004002
      6          1           0        1.588808    1.641524    0.066881
      7          1           0        1.873576   -1.106909    0.044213
      8          1           0       -2.169753   -0.487836    0.012103
      9          1           0       -1.087835    1.944592   -0.011880
 ---------------------------------------------------------------------

 SCF Done:  E(RB3LYP) =  -228.741636665     A.U. after   15 cycles

 Excitation energies and oscillator strengths:

 Excited State   1:      Singlet-A      7.0519 eV  175.82 nm  f=0.0005  <S**2>=0.000
      17 -> 19         0.49716
      18 -> 20         0.49428
 This state for optimization and/or second-order correction.
 Total Energy, E(CIS) =  -228.482484985
 Copying the excited state density for this state as the 1-particle RhoCI density.

 Excited State   2:      Singlet-A      7.2904 eV  170.06 nm  f=0.2260  <S**2>=0.000
      18 -> 19         0.68417

 Excited State   3:      Singlet-A      8.8858 eV  139.53 nm  f=0.0052  <S**2>=0.000
      16 -> 19         0.69815

 Excited State   4:      Singlet-A      9.0434 eV  137.10 nm  f=0.0042  <S**2>=0.000
      18 -> 21         0.61871
      18 -> 22         0.31759

 Excited State   5:      Singlet-A      9.1905 eV  134.90 nm  f=0.1538  <S**2>=0.000
      17 -> 19         0.11543
      17 -> 20         0.65258
      18 -> 20        -0.11646

 Excited State   6:      Singlet-A      9.2873 eV  133.50 nm  f=0.0273  <S**2>=0.000
      17 -> 19         0.10593
      17 -> 20        -0.12690
      18 -> 20        -0.11130
      18 -> 21        -0.31373
      18 -> 22         0.58620

 Excited State   7:      Singlet-A      9.6400 eV  128.61 nm  f=0.5169  <S**2>=0.000
      17 -> 19        -0.42105
      17 -> 20         0.13834
      18 -> 20         0.42961
      18 -> 22         0.18611
      18 -> 23         0.11341

 Excited State   8:      Singlet-A      9.8687 eV  125.63 nm  f=0.0247  <S**2>=0.000
      15 -> 19        -0.42124
      17 -> 21        -0.14835
      18 -> 23         0.49264
      18 -> 25         0.12365

 Excited State   9:      Singlet-A      9.9846 eV  124.18 nm  f=0.0004  <S**2>=0.000
      15 -> 19         0.54316
      17 -> 21        -0.22206
      18 -> 23         0.37103
      18 -> 24        -0.10909

 Excited State  10:      Singlet-A     10.1025 eV  122.73 nm  f=0.0020  <S**2>=0.000
      14 -> 19        -0.27891
      15 -> 20        -0.10878
      16 -> 20         0.62739

 Excited State  11:      Singlet-A     10.2429 eV  121.04 nm  f=0.0033  <S**2>=0.000
      17 -> 21         0.58515
      17 -> 22         0.25399
      18 -> 23         0.27399

 Excited State  12:      Singlet-A     10.4557 eV  118.58 nm  f=0.0026  <S**2>=0.000
      17 -> 21        -0.26659
      17 -> 22         0.64174

 Excited State  13:      Singlet-A     10.6251 eV  116.69 nm  f=0.0004  <S**2>=0.000
      14 -> 19        -0.41610
      16 -> 20        -0.16545
      18 -> 24         0.51589

 Excited State  14:      Singlet-A     10.6530 eV  116.38 nm  f=0.0038  <S**2>=0.000
      14 -> 19         0.48111
      16 -> 20         0.20580
      18 -> 24         0.44902

 Excited State  15:      Singlet-A     10.9264 eV  113.47 nm  f=0.0087  <S**2>=0.000
      18 -> 23        -0.11728
      18 -> 25         0.67857

 The electronic state is 1-A.
 Alpha  occ. eigenvalues --  -19.12162 -10.17615 -10.17551 -10.12800 -10.12121
 Alpha  occ. eigenvalues --   -1.14432  -0.79733  -0.75253  -0.61008  -0.57119
 Alpha  occ. eigenvalues --   -0.54892  -0.45960  -0.45546  -0.42196  -0.39777
 Alpha  occ. eigenvalues --   -0.36126  -0.27354  -0.23058
 Alpha virt. eigenvalues --    0.02305   0.07033   0.14582   0.15494   0.18276
 Alpha virt. eigenvalues --    0.19939   0.21556   0.23400   0.35368   0.40844
 Alpha virt. eigenvalues --    0.45521   0.69534   0.69981   0.70329   0.73376

 Mulliken charges:
               1
     1  C   -0.261792
     2  C    0.102323
     3  O   -0.494158
     4  C    0.093904
     5  C   -0.249775
     6  H    0.188948
     7  H    0.217442
     8  H    0.214867
     9  H    0.188240
 Sum of Mulliken charges =   0.00000

 Dipole moment (field-independent basis, Debye):
    X=              0.0515    Y=              0.6872    Z=              0.1140  Tot=              0.6985
 Quadrupole moment (field-independent basis, Debye-Ang):
   XX=            -23.9043   YY=            -27.8702   ZZ=            -31.7941
   XY=             -0.5837   XZ=              0.2356   YZ=              0.0470

 Normal termination of Gaussian 09 at Tue Dec 15 16:23:02 2015.
