 Gaussian 09, Revision D.01,
 Gaussian 09:  ES64L-G09RevD.01 24-Apr-2013

 ------------------------------------------------------------
 #P AM1(Input,print) CIS(Singlets,NStates=15) pop(full) force
 ------------------------------------------------------------

 -----------------
 AM1-Reparam Input
 -----------------
 Symbolic Z-matrix:
 Charge =  0 Multiplicity = 1

                         Standard orientation:
 ---------------------------------------------------------------------
 Center     Atomic      Atomic             Coordinates (Angstroms)
 Number     Number       Type             X           Y           Z
 ---------------------------------------------------------------------
      1          6           0        0.269649    1.157506   -0.027083
      2          6           0        1.157473    0.128801    0.036511
      3          8           0        0.480125   -1.103581   -0.017696
      4          6           0       -0.879646   -0.711124    0.014942
      5          6           0       -1.066506    0.611417   -0.011165
      6          1           0       -1.941303    1.097651    0.039832
      7          1           0       -1.572960   -1.579756    0.011849
      8          1           0        2.206221    0.002054   -0.027439
      9          1           0        0.581217    2.189097    0.038100
 ---------------------------------------------------------------------

 SCF Done:  E(RAM1) =   2.86346616490     A.U. after   14 cycles

 Excitation energies and oscillator strengths:

 Excited State   1:      Singlet-A      5.1811 eV  239.30 nm  f=0.3343  <S**2>=0.000
      13 -> 14         0.69510
 This state for optimization and/or second-order correction.
 Total Energy, E(CIS) =   3.05386742980
 Copying the excited state density for this state as the 1-particle RhoCI density.

 Excited State   2:      Singlet-A      6.1805 eV  200.60 nm  f=0.0005  <S**2>=0.000
      11 -> 15         0.12616
      13 -> 15         0.66117
      13 -> 17         0.11564
      13 -> 18         0.14937

 Excited State   3:      Singlet-A      6.4540 eV  192.10 nm  f=0.0013  <S**2>=0.000
      11 -> 16        -0.11920
      13 -> 16         0.64460
      13 -> 17         0.17511
      13 -> 18        -0.15996

 Excited State   4:      Singlet-A      6.7909 eV  182.57 nm  f=0.0010  <S**2>=0.000
      12 -> 14         0.69489

 Excited State   5:      Singlet-A      7.6140 eV  162.84 nm  f=0.0152  <S**2>=0.000
      10 -> 14        -0.14637
      13 -> 15        -0.15253
      13 -> 17         0.47120
      13 -> 18         0.35003
      13 -> 19        -0.10482
      13 -> 20        -0.19670
      13 -> 21         0.21193

 Excited State   6:      Singlet-A      7.8019 eV  158.92 nm  f=0.0127  <S**2>=0.000
      10 -> 14         0.38533
      11 -> 14         0.11457
      13 -> 16         0.17249
      13 -> 17        -0.31004
      13 -> 18         0.34123
      13 -> 20        -0.21814
      13 -> 21         0.15319

 Excited State   7:      Singlet-A      7.9014 eV  156.91 nm  f=0.0014  <S**2>=0.000
      10 -> 14         0.52556
      11 -> 14         0.17603
      13 -> 16        -0.10894
      13 -> 17         0.36012
      13 -> 18        -0.15277

 Excited State   8:      Singlet-A      8.4717 eV  146.35 nm  f=0.0013  <S**2>=0.000
      13 -> 18         0.35592
      13 -> 19         0.49541
      13 -> 20         0.27986
      13 -> 21        -0.17019

 Excited State   9:      Singlet-A      8.5811 eV  144.49 nm  f=0.0849  <S**2>=0.000
      10 -> 14        -0.20610
      11 -> 14         0.63984
      12 -> 15         0.11030
      13 -> 22         0.10607

 Excited State  10:      Singlet-A      9.0540 eV  136.94 nm  f=0.0114  <S**2>=0.000
      13 -> 18        -0.22482
      13 -> 19         0.46994
      13 -> 20        -0.36039
      13 -> 21         0.28654

 Excited State  11:      Singlet-A      9.2716 eV  133.73 nm  f=0.0951  <S**2>=0.000
       8 -> 15         0.15250
       8 -> 16         0.11564
       9 -> 15         0.10397
      10 -> 17        -0.16647
      12 -> 15         0.47053
      12 -> 16        -0.27268
      12 -> 18         0.21479

 Excited State  12:      Singlet-A      9.4920 eV  130.62 nm  f=0.0746  <S**2>=0.000
      13 -> 20         0.43374
      13 -> 21         0.53644

 Excited State  13:      Singlet-A      9.7579 eV  127.06 nm  f=0.0755  <S**2>=0.000
      10 -> 16        -0.10096
      11 -> 14        -0.11799
      11 -> 16        -0.12371
      12 -> 15         0.28546
      12 -> 16         0.54284
      12 -> 17         0.12104
      12 -> 18        -0.10951

 Excited State  14:      Singlet-A      9.8010 eV  126.50 nm  f=0.1293  <S**2>=0.000
      10 -> 15         0.11119
      10 -> 16         0.14659
      10 -> 17         0.20865
      11 -> 15         0.35935
      11 -> 16         0.21936
      11 -> 17         0.12661
      12 -> 15         0.20529
      12 -> 16        -0.10647
      12 -> 17        -0.19588
      12 -> 18        -0.10451
      12 -> 19         0.19967

 Excited State  15:      Singlet-A      9.8985 eV  125.26 nm  f=0.0656  <S**2>=0.000
       7 -> 15        -0.11338
      10 -> 15        -0.14641
      10 -> 16        -0.14777
      10 -> 17        -0.15141
      11 -> 15         0.50744
      12 -> 15        -0.15132
      12 -> 17         0.17106
      12 -> 19        -0.14885
      13 -> 15        -0.12629

 The electronic state is 1-A.
 Alpha  occ. eigenvalues --   -1.68861  -1.11418  -0.90921  -0.78535  -0.74840
 Alpha  occ. eigenvalues --   -0.66208  -0.61704  -0.51790  -0.49916  -0.42776
 Alpha  occ. eigenvalues --   -0.41772  -0.39057  -0.26697
 Alpha virt. eigenvalues --    0.12706   0.18478   0.19646   0.26300   0.28603
 Alpha virt. eigenvalues --    0.30176   0.31552   0.32435   0.33981   0.43725
 Alpha virt. eigenvalues --    0.46401

 Mulliken charges:
               1
     1  C   -0.152986
     2  C   -1.909124
     3  O    3.194893
     4  C   -1.909343
     5  C   -0.121276
     6  H    0.170001
     7  H    0.280552
     8  H    0.274052
     9  H    0.173232
 Sum of Mulliken charges =   0.00000

 Dipole moment (field-independent basis, Debye):
    X=              4.4016    Y=            -10.9021    Z=             -0.6217  Tot=             11.7735
 N-N= 1.033564085465D+02 E-N=-1.681666404996D+02  KE=-1.472935442606D+01
 Orbital energies and kinetic energies (alpha):
                                 1                 2
   1         O                -1.688606         -1.158302
   2         O                -1.114180         -1.000069
   3         O                -0.909211         -0.855283
   4         O                -0.785345         -0.598696
   5         O                -0.748399         -0.665701
   6         O                -0.662076         -0.570189
   7         O                -0.617045         -0.517514

 Normal termination of Gaussian 09 at Tue Dec 15 17:05:58 2015.
