 Gaussian 09, Revision D.01,
 Gaussian 09:  ES64L-G09RevD.01 24-Apr-2013

 ------------------------------------------------------------
 #P AM1(Input,print) CIS(Singlets,NStates=15) pop(full) force
 ------------------------------------------------------------

 -----------------
 AM1-Reparam Input
 -----------------
 Symbolic Z-matrix:
 Charge =  0 Multiplicity = 1

                         Standard orientation:
 ---------------------------------------------------------------------
 Center     Atomic      Atomic             Coordinates (Angstroms)
 Number     Number       Type             X           Y           Z
 ---------------------------------------------------------------------
      1          6           0       -1.137190    0.380335    0.010335
      2          6           0       -0.696027   -0.885175   -0.005211
      3          8           0        0.690219   -0.967181    0.003865
      4          6           0        1.061751    0.335255   -0.003555
      5          6           0        0.039693    1.178220   -0.013275
      6          1           0        0.091382    2.257813   -0.001811
      7          1           0        2.232895    0.449551    0.037523
      8          1           0       -1.277352   -1.790679   -0.025039
      9          1           0       -2.178041    0.768954    0.028640
 ---------------------------------------------------------------------

 SCF Done:  E(RAM1) =  0.233891367105E-01 A.U. after   13 cycles

 Excitation energies and oscillator strengths:

 Excited State   1:      Singlet-A      4.5101 eV  274.91 nm  f=0.0831  <S**2>=0.000
      12 -> 15         0.18436
      13 -> 14         0.67538
 This state for optimization and/or second-order correction.
 Total Energy, E(CIS) =  0.189131278759
 Copying the excited state density for this state as the 1-particle RhoCI density.

 Excited State   2:      Singlet-A      5.1807 eV  239.32 nm  f=0.0001  <S**2>=0.000
      13 -> 16         0.66777
      13 -> 17        -0.13175
      13 -> 22        -0.13550

 Excited State   3:      Singlet-A      5.2150 eV  237.75 nm  f=0.0079  <S**2>=0.000
      12 -> 14        -0.41504
      13 -> 15         0.56571

 Excited State   4:      Singlet-A      5.9980 eV  206.71 nm  f=0.0032  <S**2>=0.000
      12 -> 16        -0.30000
      12 -> 21        -0.17007
      12 -> 22         0.15747
      13 -> 18         0.50030
      13 -> 23        -0.20522
      13 -> 24        -0.11596

 Excited State   5:      Singlet-A      6.1296 eV  202.27 nm  f=0.0001  <S**2>=0.000
       7 -> 16        -0.15363
      12 -> 16         0.45187
      12 -> 17        -0.17122
      12 -> 18        -0.12986
      12 -> 20         0.11653
      13 -> 17         0.18186
      13 -> 18         0.19231
      13 -> 19         0.10871
      13 -> 21         0.21308
      13 -> 22        -0.15268
      13 -> 23        -0.12603

 Excited State   6:      Singlet-A      6.1663 eV  201.07 nm  f=0.0015  <S**2>=0.000
      12 -> 16         0.32191
      12 -> 18         0.17348
      13 -> 17        -0.31098
      13 -> 18         0.18913
      13 -> 19        -0.21550
      13 -> 21        -0.31444
      13 -> 22         0.17228

 Excited State   7:      Singlet-A      6.3869 eV  194.12 nm  f=0.2151  <S**2>=0.000
      12 -> 14         0.39063
      12 -> 18        -0.11494
      13 -> 15         0.29585
      13 -> 17        -0.31270
      13 -> 18         0.13379
      13 -> 19         0.14892
      13 -> 21         0.12346
      13 -> 22        -0.11700

 Excited State   8:      Singlet-A      6.3972 eV  193.81 nm  f=0.1841  <S**2>=0.000
      12 -> 14         0.36095
      13 -> 15         0.26643
      13 -> 17         0.37461
      13 -> 18        -0.14920
      13 -> 19        -0.17177
      13 -> 21        -0.10885
      13 -> 22         0.10619

 Excited State   9:      Singlet-A      6.5797 eV  188.43 nm  f=0.1123  <S**2>=0.000
      12 -> 15         0.67116
      13 -> 14        -0.17200

 Excited State  10:      Singlet-A      7.0070 eV  176.94 nm  f=0.0017  <S**2>=0.000
      11 -> 14        -0.11096
      12 -> 17        -0.28738
      12 -> 18         0.37126
      12 -> 19         0.10251
      12 -> 20        -0.12038
      13 -> 18         0.10308
      13 -> 19         0.38158
      13 -> 22         0.13875

 Excited State  11:      Singlet-A      7.2878 eV  170.13 nm  f=0.0015  <S**2>=0.000
       9 -> 14        -0.18687
       9 -> 15        -0.12018
      10 -> 14         0.41988
      10 -> 15         0.12900
      11 -> 14         0.27181
      11 -> 15         0.30630
      12 -> 18         0.11586

 Excited State  12:      Singlet-A      7.3592 eV  168.47 nm  f=0.0037  <S**2>=0.000
       9 -> 14        -0.26896
      10 -> 14        -0.32503
      10 -> 15         0.26792
      11 -> 14         0.40206
      11 -> 15        -0.19884
      13 -> 24         0.10541

 Excited State  13:      Singlet-A      7.4768 eV  165.82 nm  f=0.0028  <S**2>=0.000
      10 -> 14         0.11162
      12 -> 18        -0.30140
      12 -> 20         0.18884
      13 -> 16         0.11318
      13 -> 17         0.13258
      13 -> 18         0.11891
      13 -> 19         0.12925
      13 -> 20        -0.22266
      13 -> 21        -0.14935
      13 -> 22         0.33506
      13 -> 23         0.20237
      13 -> 24         0.10693

 Excited State  14:      Singlet-A      7.5513 eV  164.19 nm  f=0.0001  <S**2>=0.000
       9 -> 15        -0.10022
      10 -> 14         0.15093
      11 -> 15        -0.13988
      12 -> 17         0.33451
      12 -> 18         0.22495
      12 -> 19        -0.12388
      12 -> 20         0.25425
      12 -> 21         0.15093
      12 -> 23        -0.19166
      13 -> 17         0.12941
      13 -> 18         0.10095
      13 -> 19         0.17694
      13 -> 20         0.14927
      13 -> 22        -0.16216

 Excited State  15:      Singlet-A      7.6300 eV  162.50 nm  f=0.0005  <S**2>=0.000
      11 -> 14         0.24204
      12 -> 19        -0.27290
      12 -> 22         0.28716
      13 -> 17        -0.13598
      13 -> 18        -0.18632
      13 -> 19         0.25495
      13 -> 20        -0.15134
      13 -> 21        -0.12668
      13 -> 23        -0.10437
      13 -> 24        -0.25806

 The electronic state is 1-A.
 Alpha  occ. eigenvalues --   -1.56854  -1.24730  -1.09049  -0.81665  -0.81077
 Alpha  occ. eigenvalues --   -0.67998  -0.60107  -0.55242  -0.51636  -0.50178
 Alpha  occ. eigenvalues --   -0.49014  -0.39898  -0.34962
 Alpha virt. eigenvalues --    0.03325   0.06811   0.09823   0.12957   0.14266
 Alpha virt. eigenvalues --    0.15545   0.17636   0.18417   0.18709   0.20622
 Alpha virt. eigenvalues --    0.22269

 Mulliken charges:
               1
     1  C   -0.196321
     2  C   -0.110448
     3  O   -0.076185
     4  C   -0.103288
     5  C   -0.209625
     6  H    0.158121
     7  H    0.191023
     8  H    0.179957
     9  H    0.166766
 Sum of Mulliken charges =   0.00000

 Dipole moment (field-independent basis, Debye):
    X=             -0.2103    Y=              0.4453    Z=              0.0442  Tot=              0.4945
 N-N= 1.034571326354D+02 E-N=-1.710862219019D+02  KE=-1.653306946524D+01
 Orbital energies and kinetic energies (alpha):
                                 1                 2
   1         O                -1.568542         -1.320955
   2         O                -1.247299         -1.054786
   3         O                -1.090487         -0.952362
   4         O                -0.816650         -0.694373
   5         O                -0.810772         -0.721564
   6         O                -0.679978         -0.601731
   7         O                -0.601069         -0.488035

 Normal termination of Gaussian 09 at Tue Dec 15 16:24:49 2015.
