 Gaussian 09, Revision D.01,
 Gaussian 09:  ES64L-G09RevD.01 24-Apr-2013

 ------------------------------------------------------------
 #P AM1(Input,print) CIS(Singlets,NStates=15) pop(full) force
 ------------------------------------------------------------

 -----------------
 AM1-Reparam Input
 -----------------
 Symbolic Z-matrix:
 Charge =  0 Multiplicity = 1

                         Standard orientation:
 ---------------------------------------------------------------------
 Center     Atomic      Atomic             Coordinates (Angstroms)
 Number     Number       Type             X           Y           Z
 ---------------------------------------------------------------------
      1          6           0        0.000000    0.715963   -0.955475
      2          6           0        0.000000    1.092818    0.345627
      3          8           0        0.000000    0.000000    1.157305
      4          6           0        0.000000   -1.092818    0.345627
      5          6           0        0.000000   -0.715963   -0.955475
      6          1           0        0.000000   -1.369382   -1.810438
      7          1           0        0.000000   -2.046884    0.840307
      8          1           0        0.000000    2.046884    0.840307
      9          1           0        0.000000    1.369382   -1.810438
 ---------------------------------------------------------------------

 SCF Done:  E(RAM1) = -0.312039452556     A.U. after   13 cycles

 Excitation energies and oscillator strengths:

 Excited State   1:      Singlet-B2     4.7190 eV  262.74 nm  f=0.0774  <S**2>=0.000
      12 -> 15        -0.26561
      13 -> 14         0.64732
 This state for optimization and/or second-order correction.
 Total Energy, E(CIS) = -0.138620485390
 Copying the excited state density for this state as the 1-particle RhoCI density.

 Excited State   2:      Singlet-A1     5.3875 eV  230.14 nm  f=0.0067  <S**2>=0.000
      12 -> 14         0.41717
      13 -> 15         0.56669

 Excited State   3:      Singlet-A2     5.6877 eV  217.99 nm  f=0.0000  <S**2>=0.000
      13 -> 16         0.69441
      13 -> 20        -0.10124

 Excited State   4:      Singlet-B1     6.4336 eV  192.71 nm  f=0.0010  <S**2>=0.000
       7 -> 16        -0.16916
      12 -> 16         0.66267
      12 -> 20        -0.12093

 Excited State   5:      Singlet-A1     6.5858 eV  188.26 nm  f=0.4791  <S**2>=0.000
      11 -> 16         0.12747
      12 -> 14         0.54109
      13 -> 15        -0.40273

 Excited State   6:      Singlet-B2     6.7157 eV  184.62 nm  f=0.2084  <S**2>=0.000
      12 -> 15         0.64552
      13 -> 14         0.25820

 Excited State   7:      Singlet-B1     7.2216 eV  171.68 nm  f=0.0012  <S**2>=0.000
       9 -> 14        -0.17718
      10 -> 15         0.10677
      12 -> 22         0.16665
      13 -> 17         0.57233
      13 -> 19         0.20305
      13 -> 21         0.16656
      13 -> 23        -0.11139

 Excited State   8:      Singlet-A2     7.4910 eV  165.51 nm  f=0.0000  <S**2>=0.000
       9 -> 15         0.15620
      10 -> 14        -0.30579
      11 -> 15         0.10700
      12 -> 17         0.19464
      12 -> 19         0.15393
      12 -> 21         0.16877
      12 -> 24         0.10434
      13 -> 18         0.22578
      13 -> 20         0.18909
      13 -> 22         0.40464

 Excited State   9:      Singlet-B1     7.5137 eV  165.01 nm  f=0.0004  <S**2>=0.000
       9 -> 14         0.51334
      10 -> 15        -0.34673
      13 -> 17         0.28661

 Excited State  10:      Singlet-A2     7.7646 eV  159.68 nm  f=0.0000  <S**2>=0.000
       8 -> 14        -0.11864
       9 -> 15        -0.21226
      10 -> 14         0.47732
      11 -> 15        -0.18672
      12 -> 17         0.26307
      12 -> 19         0.10225
      12 -> 21         0.13162
      13 -> 20         0.17284
      13 -> 22         0.21022

 Excited State  11:      Singlet-B1     7.8729 eV  157.48 nm  f=0.0008  <S**2>=0.000
       8 -> 15         0.10094
       9 -> 14        -0.17668
      11 -> 14         0.52749
      12 -> 18        -0.13534
      12 -> 22        -0.15218
      13 -> 19        -0.14893
      13 -> 21        -0.15454
      13 -> 23         0.16489
      13 -> 24        -0.20356

 Excited State  12:      Singlet-A2     7.9797 eV  155.37 nm  f=0.0000  <S**2>=0.000
      10 -> 14        -0.19085
      12 -> 17         0.44997
      12 -> 19         0.12895
      12 -> 24        -0.15837
      13 -> 18        -0.41136
      13 -> 22        -0.13362

 Excited State  13:      Singlet-B1     8.1006 eV  153.06 nm  f=0.0061  <S**2>=0.000
       9 -> 14         0.13512
      10 -> 15        -0.11688
      11 -> 14         0.43249
      12 -> 18         0.19950
      12 -> 20         0.10029
      12 -> 22         0.18536
      13 -> 17        -0.22297
      13 -> 19         0.15571
      13 -> 21         0.19805
      13 -> 24         0.24795

 Excited State  14:      Singlet-A2     8.1086 eV  152.90 nm  f=0.0000  <S**2>=0.000
       8 -> 14         0.13260
      10 -> 14         0.19254
      11 -> 15         0.63430
      12 -> 17         0.10117

 Excited State  15:      Singlet-A2     8.4869 eV  146.09 nm  f=0.0000  <S**2>=0.000
      12 -> 17        -0.12058
      12 -> 19        -0.25803
      12 -> 21        -0.12672
      13 -> 18        -0.36930
      13 -> 20         0.46281
      13 -> 22         0.11423

 The electronic state is 1-A1.
 Alpha  occ. eigenvalues --   -1.56603  -1.22591  -1.08229  -0.82910  -0.79862
 Alpha  occ. eigenvalues --   -0.69284  -0.61767  -0.55058  -0.50393  -0.49360
 Alpha  occ. eigenvalues --   -0.48946  -0.38772  -0.34670
 Alpha virt. eigenvalues --    0.05148   0.08311   0.12717   0.17518   0.19721
 Alpha virt. eigenvalues --    0.20648   0.21753   0.23009   0.24456   0.25640
 Alpha virt. eigenvalues --    0.26316

 Mulliken charges:
               1
     1  C   -0.215687
     2  C   -0.188740
     3  O    0.063942
     4  C   -0.188740
     5  C   -0.215687
     6  H    0.171533
     7  H    0.200923
     8  H    0.200923
     9  H    0.171533
 Sum of Mulliken charges =   0.00000

 Dipole moment (field-independent basis, Debye):
    X=              0.0000    Y=              0.0000    Z=              0.0659  Tot=              0.0659
 N-N= 1.037817558948D+02 E-N=-1.726493303113D+02  KE=-1.636934925130D+01
 Symmetry A1   KE=-8.998959060706D+00
 Symmetry A2   KE=-5.836865859047D-01
 Symmetry B1   KE=-1.652166100521D+00
 Symmetry B2   KE=-5.134537504169D+00
 Orbital energies and kinetic energies (alpha):
                                 1                 2
   1         (A1)--O          -1.566028         -1.319415
   2         (A1)--O          -1.225914         -1.053852
   3         (B2)--O          -1.082293         -0.954262

 Normal termination of Gaussian 09 at Tue Oct  6 15:41:39 2015.
