 Gaussian 09, Revision D.01,
 Gaussian 09:  ES64L-G09RevD.01 24-Apr-2013

 ------------------------------------------------------------
 #P AM1(Input,print) CIS(Singlets,NStates=15) pop(full) force
 ------------------------------------------------------------

 -----------------
 AM1-Reparam Input
 -----------------
 Symbolic Z-matrix:
 Charge =  0 Multiplicity = 1

                         Standard orientation:
 ---------------------------------------------------------------------
 Center     Atomic      Atomic             Coordinates (Angstroms)
 Number     Number       Type             X           Y           Z
 ---------------------------------------------------------------------
      1          6           0        0.804052    0.840071    0.001280
      2          6           0        1.027364   -0.520018   -0.011118
      3          8           0       -0.188200   -1.107461    0.028342
      4          6           0       -1.102251   -0.202701   -0.025629
      5          6           0       -0.527351    1.054121   -0.014606
      6          1           0       -1.063821    1.971322    0.073959
      7          1           0       -2.176746   -0.569906    0.004219
      8          1           0        1.924076   -1.135306   -0.049914
      9          1           0        1.611208    1.564739    0.045441
 ---------------------------------------------------------------------

 SCF Done:  E(RAM1) =   1.35932822888     A.U. after   13 cycles

 Excitation energies and oscillator strengths:

 Excited State   1:      Singlet-A      6.4547 eV  192.08 nm  f=0.2288  <S**2>=0.000
      13 -> 14         0.62436
      13 -> 15         0.26575
 This state for optimization and/or second-order correction.
 Total Energy, E(CIS) =   1.59653558208
 Copying the excited state density for this state as the 1-particle RhoCI density.

 Excited State   2:      Singlet-A      6.5116 eV  190.40 nm  f=0.0635  <S**2>=0.000
      12 -> 15        -0.14327
      13 -> 14        -0.29295
      13 -> 15         0.58633
      13 -> 17        -0.16168

 Excited State   3:      Singlet-A      7.1250 eV  174.01 nm  f=0.0026  <S**2>=0.000
      12 -> 15         0.15236
      12 -> 16         0.16402
      13 -> 15        -0.10296
      13 -> 16         0.62095
      13 -> 17        -0.14017

 Excited State   4:      Singlet-A      7.8414 eV  158.11 nm  f=0.0025  <S**2>=0.000
       9 -> 14         0.11718
      11 -> 14         0.65424
      12 -> 14         0.14329

 Excited State   5:      Singlet-A      7.9409 eV  156.13 nm  f=0.0155  <S**2>=0.000
      10 -> 14        -0.20012
      12 -> 16         0.13609
      13 -> 15         0.13489
      13 -> 16         0.13404
      13 -> 17         0.61427

 Excited State   6:      Singlet-A      8.2461 eV  150.35 nm  f=0.0022  <S**2>=0.000
      10 -> 14         0.64688
      11 -> 14        -0.10144
      12 -> 14        -0.15028
      13 -> 17         0.18206

 Excited State   7:      Singlet-A      8.4619 eV  146.52 nm  f=0.0004  <S**2>=0.000
      11 -> 14        -0.10047
      12 -> 15         0.31629
      12 -> 16         0.12050
      13 -> 18         0.40855
      13 -> 22         0.41862

 Excited State   8:      Singlet-A      8.6387 eV  143.52 nm  f=0.0753  <S**2>=0.000
      10 -> 14         0.13208
      11 -> 14        -0.15299
      12 -> 14         0.64505
      13 -> 20         0.12208

 Excited State   9:      Singlet-A      8.7584 eV  141.56 nm  f=0.0036  <S**2>=0.000
      12 -> 15         0.52318
      13 -> 15         0.16421
      13 -> 16        -0.11135
      13 -> 18        -0.30188
      13 -> 19         0.16036
      13 -> 20        -0.10280
      13 -> 22        -0.13499

 Excited State  10:      Singlet-A      9.1192 eV  135.96 nm  f=0.0006  <S**2>=0.000
      13 -> 16         0.12298
      13 -> 18         0.19548
      13 -> 19         0.44802
      13 -> 20        -0.34546
      13 -> 21         0.30287

 Excited State  11:      Singlet-A      9.2932 eV  133.41 nm  f=0.0054  <S**2>=0.000
      12 -> 15        -0.12967
      12 -> 16         0.22202
      13 -> 18        -0.42336
      13 -> 22         0.46661

 Excited State  12:      Singlet-A      9.5178 eV  130.27 nm  f=0.0462  <S**2>=0.000
      12 -> 16         0.44083
      13 -> 16        -0.12020
      13 -> 18         0.10751
      13 -> 19        -0.33397
      13 -> 20        -0.12634
      13 -> 21         0.29072
      13 -> 22        -0.18958

 Excited State  13:      Singlet-A      9.6273 eV  128.78 nm  f=0.0071  <S**2>=0.000
       8 -> 15         0.16254
       9 -> 15         0.17242
      10 -> 15        -0.25861
      10 -> 16        -0.21048
      10 -> 17         0.32526
      10 -> 18         0.11670
      11 -> 15         0.31560
      11 -> 17        -0.16706
      11 -> 18         0.15206

 Excited State  14:      Singlet-A      9.8111 eV  126.37 nm  f=0.0462  <S**2>=0.000
      10 -> 15         0.15141
      11 -> 15         0.14417
      12 -> 16         0.33633
      12 -> 17        -0.13180
      12 -> 21        -0.10616
      13 -> 16        -0.15243
      13 -> 19         0.32652
      13 -> 20         0.13947
      13 -> 21        -0.32609
      13 -> 22        -0.13482

 Excited State  15:      Singlet-A      9.8669 eV  125.66 nm  f=0.1043  <S**2>=0.000
       8 -> 15         0.15248
      10 -> 15         0.44919
      10 -> 17        -0.11034
      11 -> 15         0.40130
      12 -> 16        -0.13238
      13 -> 19        -0.10074
      13 -> 21         0.10548

 The electronic state is 1-A.
 Alpha  occ. eigenvalues --   -1.91811  -1.21082  -0.95811  -0.79691  -0.77629
 Alpha  occ. eigenvalues --   -0.67410  -0.63833  -0.50892  -0.47977  -0.40236
 Alpha  occ. eigenvalues --   -0.39323  -0.37018  -0.27349
 Alpha virt. eigenvalues --    0.17714   0.19323   0.22788   0.27097   0.30090
 Alpha virt. eigenvalues --    0.32164   0.32936   0.33356   0.35681   0.42496
 Alpha virt. eigenvalues --    0.48733

 Mulliken charges:
               1
     1  C   -0.018247
     2  C   -1.607245
     3  O    2.818153
     4  C   -1.610301
     5  C   -0.067117
     6  H    0.069434
     7  H    0.177523
     8  H    0.172767
     9  H    0.065032
 Sum of Mulliken charges =   0.00000

 Dipole moment (field-independent basis, Debye):
    X=             -1.7656    Y=             -8.5895    Z=              0.5922  Tot=              8.7891
 N-N= 1.043843160903D+02 E-N=-1.712903284854D+02  KE=-1.595842217050D+01
 Orbital energies and kinetic energies (alpha):
                                 1                 2
   1         O                -1.918107         -1.428543
   2         O                -1.210822         -1.087605
   3         O                -0.958115         -0.864022
   4         O                -0.796907         -0.638361
   5         O                -0.776287         -0.692227
   6         O                -0.674101         -0.635646
   7         O                -0.638325         -0.555176

 Normal termination of Gaussian 09 at Tue Dec 15 17:07:56 2015.
