 Gaussian 09, Revision D.01,
 Gaussian 09:  ES64L-G09RevD.01 24-Apr-2013

 ------------------------------------------------------------
 #P AM1(Input,print) CIS(Singlets,NStates=15) pop(full) force
 ------------------------------------------------------------

 -----------------
 AM1-Reparam Input
 -----------------
 Symbolic Z-matrix:
 Charge =  0 Multiplicity = 1

                         Standard orientation:
 ---------------------------------------------------------------------
 Center     Atomic      Atomic             Coordinates (Angstroms)
 Number     Number       Type             X           Y           Z
 ---------------------------------------------------------------------
      1          6           0        0.657691    0.968838    0.044262
      2          6           0        1.142680   -0.235774   -0.032656
      3          8           0        0.098969   -1.115651    0.020825
      4          6           0       -1.072876   -0.403624   -0.016764
      5          6           0       -0.822255    0.845673   -0.004951
      6          1           0       -1.530414    1.715047   -0.027783
      7          1           0       -1.984058   -1.063644    0.006417
      8          1           0        2.122164   -0.697798   -0.032013
      9          1           0        1.169120    1.920926   -0.052563
 ---------------------------------------------------------------------

 SCF Done:  E(RAM1) =   1.76630234601     A.U. after   14 cycles

 Excitation energies and oscillator strengths:

 Excited State   1:      Singlet-A      4.9441 eV  250.77 nm  f=0.3487  <S**2>=0.000
      13 -> 14         0.69557
 This state for optimization and/or second-order correction.
 Total Energy, E(CIS) =   1.94799538840
 Copying the excited state density for this state as the 1-particle RhoCI density.

 Excited State   2:      Singlet-A      5.5816 eV  222.13 nm  f=0.0003  <S**2>=0.000
      13 -> 15         0.66155
      13 -> 16        -0.10581
      13 -> 18         0.11824
      13 -> 19         0.10078

 Excited State   3:      Singlet-A      5.8592 eV  211.60 nm  f=0.0018  <S**2>=0.000
      13 -> 15         0.12211
      13 -> 16         0.65035
      13 -> 17        -0.13351
      13 -> 19        -0.14162

 Excited State   4:      Singlet-A      6.6103 eV  187.56 nm  f=0.0014  <S**2>=0.000
      12 -> 14         0.64305
      13 -> 19         0.23617

 Excited State   5:      Singlet-A      6.8095 eV  182.08 nm  f=0.0018  <S**2>=0.000
      12 -> 14        -0.27770
      13 -> 15        -0.11442
      13 -> 16         0.10005
      13 -> 17        -0.16653
      13 -> 18         0.29594
      13 -> 19         0.50492
      13 -> 20         0.14291

 Excited State   6:      Singlet-A      7.2106 eV  171.95 nm  f=0.0172  <S**2>=0.000
      13 -> 16         0.14357
      13 -> 17         0.65395
      13 -> 19         0.17687

 Excited State   7:      Singlet-A      7.9466 eV  156.02 nm  f=0.0001  <S**2>=0.000
      13 -> 16        -0.10962
      13 -> 18        -0.28008
      13 -> 20         0.53356
      13 -> 21        -0.33250

 Excited State   8:      Singlet-A      8.0664 eV  153.71 nm  f=0.0027  <S**2>=0.000
      10 -> 14         0.27093
      11 -> 14        -0.24676
      13 -> 18         0.47461
      13 -> 19        -0.30172
      13 -> 20         0.18922

 Excited State   9:      Singlet-A      8.1016 eV  153.04 nm  f=0.0010  <S**2>=0.000
      10 -> 14        -0.39248
      11 -> 14         0.39812
      13 -> 18         0.27674
      13 -> 19        -0.14999
      13 -> 21        -0.27715

 Excited State  10:      Singlet-A      8.5082 eV  145.72 nm  f=0.0906  <S**2>=0.000
      10 -> 14        -0.13326
      11 -> 14         0.16240
      13 -> 20         0.36978
      13 -> 21         0.53670

 Excited State  11:      Singlet-A      8.6844 eV  142.77 nm  f=0.0440  <S**2>=0.000
       8 -> 15        -0.13064
      10 -> 14        -0.37965
      11 -> 14        -0.36245
      12 -> 15         0.38254

 Excited State  12:      Singlet-A      8.8897 eV  139.47 nm  f=0.1477  <S**2>=0.000
       8 -> 16         0.11224
      10 -> 14        -0.20712
      10 -> 17         0.10653
      11 -> 14        -0.22333
      12 -> 15        -0.31912
      12 -> 16         0.36295
      12 -> 18        -0.21768
      12 -> 19        -0.22938

 Excited State  13:      Singlet-A      9.4645 eV  131.00 nm  f=0.1514  <S**2>=0.000
      10 -> 14         0.20478
      11 -> 14         0.20964
      11 -> 15         0.15228
      12 -> 15         0.40938
      12 -> 16         0.31533
      12 -> 18        -0.14803
      12 -> 19        -0.20797

 Excited State  14:      Singlet-A      9.6769 eV  128.12 nm  f=0.1126  <S**2>=0.000
       8 -> 16         0.10320
      10 -> 17        -0.14505
      11 -> 15        -0.11135
      11 -> 16        -0.16347
      11 -> 17         0.15492
      12 -> 16         0.42512
      12 -> 18         0.26697
      12 -> 19         0.25260
      12 -> 20         0.18781

 Excited State  15:      Singlet-A      9.8554 eV  125.80 nm  f=0.0064  <S**2>=0.000
       7 -> 15        -0.13602
      10 -> 15         0.43549
      10 -> 16         0.11297
      11 -> 15         0.45392
      11 -> 16         0.13504
      13 -> 15        -0.10949

 The electronic state is 1-A.
 Alpha  occ. eigenvalues --   -1.92450  -1.22307  -1.01526  -0.82398  -0.80230
 Alpha  occ. eigenvalues --   -0.68367  -0.64275  -0.54955  -0.51796  -0.43676
 Alpha  occ. eigenvalues --   -0.43399  -0.38926  -0.25702
 Alpha virt. eigenvalues --    0.12403   0.16733   0.18148   0.25509   0.27668
 Alpha virt. eigenvalues --    0.28292   0.28894   0.29325   0.35735   0.44536
 Alpha virt. eigenvalues --    0.49586

 Mulliken charges:
               1
     1  C   -0.198425
     2  C   -1.896389
     3  O    3.183216
     4  C   -1.882071
     5  C   -0.153604
     6  H    0.178170
     7  H    0.290685
     8  H    0.295210
     9  H    0.183208
 Sum of Mulliken charges =   0.00000

 Dipole moment (field-independent basis, Debye):
    X=              0.6259    Y=            -10.6826    Z=              0.5229  Tot=             10.7136
 N-N= 1.042749186075D+02 E-N=-1.698751254271D+02  KE=-1.574194829622D+01
 Orbital energies and kinetic energies (alpha):
                                 1                 2
   1         O                -1.924501         -1.390209
   2         O                -1.223072         -1.085884
   3         O                -1.015258         -0.929089
   4         O                -0.823980         -0.626622
   5         O                -0.802301         -0.707789
   6         O                -0.683673         -0.569714
   7         O                -0.642749         -0.519819

 Normal termination of Gaussian 09 at Tue Dec 15 17:06:55 2015.
