 Gaussian 09, Revision D.01,
 Gaussian 09:  ES64L-G09RevD.01 24-Apr-2013

 -------------------------------------------------------
 #P B3LYP/3-21G CIS(Singlets,NStates=15) pop(full) force
 -------------------------------------------------------

 --------
 FuranDFT
 --------
 Symbolic Z-matrix:
 Charge =  0 Multiplicity = 1

                         Standard orientation:
 ---------------------------------------------------------------------
 Center     Atomic      Atomic             Coordinates (Angstroms)
 Number     Number       Type             X           Y           Z
 ---------------------------------------------------------------------
      1          6           0        0.700864    0.934248    0.006277
      2          6           0        1.108697   -0.337469   -0.004001
      3          8           0       -0.050307   -1.160973    0.005780
      4          6           0       -1.054767   -0.310436   -0.002874
      5          6           0       -0.677206    0.937314   -0.016136
      6          1           0       -1.415149    1.774369    0.062262
      7          1           0       -2.004087   -0.779762   -0.004379
      8          1           0        2.035659   -0.859894    0.004256
      9          1           0        1.320507    1.811136   -0.007975
 ---------------------------------------------------------------------

 SCF Done:  E(RB3LYP) =  -228.736260399     A.U. after   14 cycles

 Excitation energies and oscillator strengths:

 Excited State   1:      Singlet-A      7.3248 eV  169.27 nm  f=0.1842  <S**2>=0.000
      17 -> 19         0.19790
      18 -> 19         0.63808
      18 -> 20         0.14838
 This state for optimization and/or second-order correction.
 Total Energy, E(CIS) =  -228.467078652
 Copying the excited state density for this state as the 1-particle RhoCI density.

 Excited State   2:      Singlet-A      7.7615 eV  159.74 nm  f=0.0352  <S**2>=0.000
      17 -> 19         0.48062
      18 -> 19        -0.24259
      18 -> 20         0.44316

 Excited State   3:      Singlet-A      8.4270 eV  147.13 nm  f=0.0030  <S**2>=0.000
      18 -> 21         0.68658

 Excited State   4:      Singlet-A      9.0030 eV  137.71 nm  f=0.0042  <S**2>=0.000
      16 -> 19         0.70002

 Excited State   5:      Singlet-A      9.3356 eV  132.81 nm  f=0.0042  <S**2>=0.000
      18 -> 22         0.67188
      18 -> 23        -0.14610

 Excited State   6:      Singlet-A      9.7810 eV  126.76 nm  f=0.0084  <S**2>=0.000
      17 -> 20         0.26069
      17 -> 21         0.57446
      18 -> 22        -0.12546
      18 -> 23        -0.26810

 Excited State   7:      Singlet-A      9.9729 eV  124.32 nm  f=0.0148  <S**2>=0.000
      15 -> 19         0.11007
      17 -> 20         0.19935
      17 -> 21         0.22047
      18 -> 22         0.10701
      18 -> 23         0.60255

 Excited State   8:      Singlet-A     10.1190 eV  122.53 nm  f=0.4033  <S**2>=0.000
      15 -> 19         0.12055
      17 -> 19        -0.36976
      17 -> 20        -0.26850
      17 -> 21         0.13416
      18 -> 20         0.40336
      18 -> 21        -0.10639
      18 -> 23         0.11762

 Excited State   9:      Singlet-A     10.2686 eV  120.74 nm  f=0.2377  <S**2>=0.000
      15 -> 19         0.15655
      17 -> 19        -0.15589
      17 -> 20         0.52070
      17 -> 21        -0.27669
      18 -> 20         0.22057

 Excited State  10:      Singlet-A     10.3484 eV  119.81 nm  f=0.0454  <S**2>=0.000
      14 -> 19        -0.13768
      15 -> 19         0.60755
      17 -> 19         0.10252
      18 -> 20        -0.12009
      18 -> 23        -0.10418
      18 -> 24        -0.24452

 Excited State  11:      Singlet-A     10.4239 eV  118.94 nm  f=0.0060  <S**2>=0.000
      14 -> 19         0.65825
      15 -> 19         0.11280
      16 -> 20         0.16362

 Excited State  12:      Singlet-A     10.4944 eV  118.14 nm  f=0.0035  <S**2>=0.000
      15 -> 19         0.24651
      18 -> 24         0.64382

 Excited State  13:      Singlet-A     10.6779 eV  116.11 nm  f=0.0042  <S**2>=0.000
      17 -> 21         0.11740
      17 -> 22         0.67786

 Excited State  14:      Singlet-A     11.0772 eV  111.93 nm  f=0.0051  <S**2>=0.000
      13 -> 19         0.21073
      18 -> 25         0.65886

 Excited State  15:      Singlet-A     11.1630 eV  111.07 nm  f=0.0012  <S**2>=0.000
      13 -> 19        -0.47429
      16 -> 20         0.49511
      18 -> 25         0.12203

 The electronic state is 1-A.
 Alpha  occ. eigenvalues --  -19.10877 -10.17092 -10.16408 -10.12273 -10.11406
 Alpha  occ. eigenvalues --   -1.13045  -0.82392  -0.75069  -0.60309  -0.57644
 Alpha  occ. eigenvalues --   -0.54511  -0.45188  -0.44212  -0.41305  -0.40977
 Alpha  occ. eigenvalues --   -0.36489  -0.28648  -0.23436
 Alpha virt. eigenvalues --    0.02469   0.09745   0.12425   0.15272   0.17801
 Alpha virt. eigenvalues --    0.18983   0.21898   0.24894   0.36483   0.44384
 Alpha virt. eigenvalues --    0.49106   0.67999   0.69710   0.72528   0.76633

 Mulliken charges:
               1
     1  C   -0.260067
     2  C    0.048945
     3  O   -0.481127
     4  C    0.122871
     5  C   -0.238735
     6  H    0.183145
     7  H    0.216447
     8  H    0.216011
     9  H    0.192510
 Sum of Mulliken charges =   0.00000

 Dipole moment (field-independent basis, Debye):
    X=              0.0413    Y=              0.7625    Z=              0.0552  Tot=              0.7657
 Quadrupole moment (field-independent basis, Debye-Ang):
   XX=            -23.6952   YY=            -28.2251   ZZ=            -31.5069
   XY=             -0.1669   XZ=             -0.1025   YZ=              0.1273

 Normal termination of Gaussian 09 at Tue Dec 15 16:28:54 2015.
