 Gaussian 09, Revision D.01,
 Gaussian 09:  ES64L-G09RevD.01 24-Apr-2013

 ------------------------------------------------------------
 #P AM1(Input,print) CIS(Singlets,NStates=15) pop(full) force
 ------------------------------------------------------------

 -----------------
 AM1-Reparam Input
 -----------------
 Symbolic Z-matrix:
 Charge =  0 Multiplicity = 1

                         Standard orientation:
 ---------------------------------------------------------------------
 Center     Atomic      Atomic             Coordinates (Angstroms)
 Number     Number       Type             X           Y           Z
 ---------------------------------------------------------------------
      1          6           0        0.863239    0.784245   -0.020767
      2          6           0        1.033205   -0.481976    0.015390
      3          8           0       -0.225510   -1.153029    0.003608
      4          6           0       -1.105698   -0.133167   -0.010492
      5          6           0       -0.522442    1.046167   -0.000348
      6          1           0       -1.117619    1.976527    0.081247
      7          1           0       -2.183631   -0.462451   -0.015577
      8          1           0        1.851522   -1.191054    0.001046
      9          1           0        1.643985    1.609587    0.001716
 ---------------------------------------------------------------------

 SCF Done:  E(RAM1) =   2.61517060082     A.U. after   14 cycles

 Excitation energies and oscillator strengths:

 Excited State   1:      Singlet-A      5.2657 eV  235.46 nm  f=0.3261  <S**2>=0.000
      13 -> 14         0.69442
 This state for optimization and/or second-order correction.
 Total Energy, E(CIS) =   2.80868088418
 Copying the excited state density for this state as the 1-particle RhoCI density.

 Excited State   2:      Singlet-A      5.6370 eV  219.95 nm  f=0.0007  <S**2>=0.000
      10 -> 15         0.10363
      13 -> 15         0.67891
      13 -> 17        -0.12154

 Excited State   3:      Singlet-A      6.2605 eV  198.04 nm  f=0.0007  <S**2>=0.000
      10 -> 16        -0.11717
      13 -> 16         0.67375
      13 -> 17        -0.10077

 Excited State   4:      Singlet-A      6.8746 eV  180.35 nm  f=0.0006  <S**2>=0.000
      12 -> 14         0.69902

 Excited State   5:      Singlet-A      7.5607 eV  163.98 nm  f=0.0070  <S**2>=0.000
      11 -> 14        -0.18928
      13 -> 15         0.12135
      13 -> 17         0.60551
      13 -> 18        -0.17315
      13 -> 19        -0.12757
      13 -> 21         0.15512

 Excited State   6:      Singlet-A      7.7960 eV  159.04 nm  f=0.0061  <S**2>=0.000
      11 -> 14        -0.29904
      13 -> 17         0.14223
      13 -> 18         0.54309
      13 -> 19         0.13840
      13 -> 21        -0.23968

 Excited State   7:      Singlet-A      7.9088 eV  156.77 nm  f=0.0031  <S**2>=0.000
      11 -> 14         0.60262
      13 -> 17         0.26031
      13 -> 18         0.21576

 Excited State   8:      Singlet-A      8.5624 eV  144.80 nm  f=0.0001  <S**2>=0.000
      13 -> 17         0.10475
      13 -> 18        -0.24094
      13 -> 19         0.62713

 Excited State   9:      Singlet-A      8.8909 eV  139.45 nm  f=0.0516  <S**2>=0.000
       8 -> 16         0.13779
      10 -> 14         0.27335
      11 -> 17         0.15143
      12 -> 15         0.43755
      12 -> 16        -0.29920
      12 -> 17        -0.14919
      12 -> 18         0.16488

 Excited State  10:      Singlet-A      8.9502 eV  138.53 nm  f=0.0341  <S**2>=0.000
       8 -> 15        -0.13291
      10 -> 14         0.49737
      11 -> 15        -0.19934
      12 -> 15        -0.38480
      12 -> 16        -0.10250

 Excited State  11:      Singlet-A      9.3764 eV  132.23 nm  f=0.0524  <S**2>=0.000
       9 -> 15         0.15484
      10 -> 14        -0.17647
      11 -> 15        -0.35174
      11 -> 17         0.17391
      12 -> 18         0.13954
      13 -> 18         0.17290
      13 -> 19         0.13080
      13 -> 20        -0.16374
      13 -> 21         0.40180

 Excited State  12:      Singlet-A      9.3877 eV  132.07 nm  f=0.0341  <S**2>=0.000
       9 -> 15        -0.14412
      10 -> 14         0.17019
      10 -> 15         0.11751
      11 -> 15         0.33094
      11 -> 17        -0.15617
      12 -> 18        -0.12313
      13 -> 18         0.17253
      13 -> 19         0.15490
      13 -> 20        -0.13520
      13 -> 21         0.41646

 Excited State  13:      Singlet-A      9.5653 eV  129.62 nm  f=0.1485  <S**2>=0.000
      10 -> 14         0.18757
      11 -> 16        -0.16800
      11 -> 17         0.12146
      12 -> 15         0.10875
      12 -> 16         0.56912
      12 -> 17        -0.13248
      12 -> 18         0.11046

 Excited State  14:      Singlet-A      9.6715 eV  128.20 nm  f=0.0708  <S**2>=0.000
       7 -> 15        -0.10692
      10 -> 15         0.50836
      13 -> 20         0.41972

 Excited State  15:      Singlet-A      9.7551 eV  127.10 nm  f=0.0464  <S**2>=0.000
      10 -> 15        -0.40215
      13 -> 20         0.49047
      13 -> 21         0.22766

 The electronic state is 1-A.
 Alpha  occ. eigenvalues --   -1.73748  -1.17371  -0.95320  -0.80202  -0.76029
 Alpha  occ. eigenvalues --   -0.66614  -0.64742  -0.53358  -0.49815  -0.43526
 Alpha  occ. eigenvalues --   -0.41747  -0.38818  -0.26739
 Alpha virt. eigenvalues --    0.13476   0.16190   0.18952   0.25983   0.28145
 Alpha virt. eigenvalues --    0.30513   0.32976   0.34406   0.37731   0.47617
 Alpha virt. eigenvalues --    0.50935

 Mulliken charges:
               1
     1  C   -0.023314
     2  C   -1.853188
     3  O    3.214238
     4  C   -1.902207
     5  C   -0.145353
     6  H    0.119378
     7  H    0.255750
     8  H    0.227651
     9  H    0.107046
 Sum of Mulliken charges =   0.00000

 Dipole moment (field-independent basis, Debye):
    X=             -2.5366    Y=            -11.4635    Z=              0.0330  Tot=             11.7408
 N-N= 1.040171458444D+02 E-N=-1.691985110687D+02  KE=-1.504485928337D+01
 Orbital energies and kinetic energies (alpha):
                                 1                 2
   1         O                -1.737484         -1.231160
   2         O                -1.173712         -1.022537
   3         O                -0.953203         -0.883541
   4         O                -0.802021         -0.600821
   5         O                -0.760289         -0.677513
   6         O                -0.666136         -0.556704
   7         O                -0.647419         -0.533281

 Normal termination of Gaussian 09 at Tue Dec 15 17:06:22 2015.
