 Gaussian 09, Revision D.01,
 Gaussian 09:  ES64L-G09RevD.01 24-Apr-2013

 ------------------------------------------------------------
 #P AM1(Input,print) CIS(Singlets,NStates=15) pop(full) force
 ------------------------------------------------------------

 -----------------
 AM1-Reparam Input
 -----------------
 Symbolic Z-matrix:
 Charge =  0 Multiplicity = 1

                         Standard orientation:
 ---------------------------------------------------------------------
 Center     Atomic      Atomic             Coordinates (Angstroms)
 Number     Number       Type             X           Y           Z
 ---------------------------------------------------------------------
      1          6           0        0.784739    0.890012    0.024979
      2          6           0        1.094651   -0.427110   -0.003319
      3          8           0       -0.098608   -1.146301   -0.008261
      4          6           0       -1.154740   -0.277523    0.017410
      5          6           0       -0.611548    1.025134   -0.026362
      6          1           0       -1.258019    1.925486   -0.014861
      7          1           0       -2.069470   -0.704131    0.026416
      8          1           0        1.965159   -1.006822   -0.021285
      9          1           0        1.472580    1.692791   -0.000433
 ---------------------------------------------------------------------

 SCF Done:  E(RAM1) =   2.59234908650     A.U. after   13 cycles

 Excitation energies and oscillator strengths:

 Excited State   1:      Singlet-A      5.2207 eV  237.49 nm  f=0.3542  <S**2>=0.000
      13 -> 14         0.69782
 This state for optimization and/or second-order correction.
 Total Energy, E(CIS) =   2.78420534964
 Copying the excited state density for this state as the 1-particle RhoCI density.

 Excited State   2:      Singlet-A      6.5541 eV  189.17 nm  f=0.0006  <S**2>=0.000
      13 -> 15         0.66607
      13 -> 17         0.11562
      13 -> 19        -0.13075

 Excited State   3:      Singlet-A      6.7379 eV  184.01 nm  f=0.0049  <S**2>=0.000
      11 -> 14         0.11398
      12 -> 14        -0.40579
      13 -> 16         0.53695

 Excited State   4:      Singlet-A      6.7781 eV  182.92 nm  f=0.0011  <S**2>=0.000
      12 -> 14         0.55807
      13 -> 16         0.40155

 Excited State   5:      Singlet-A      7.2822 eV  170.26 nm  f=0.0040  <S**2>=0.000
      11 -> 14         0.68626
      13 -> 16        -0.12075

 Excited State   6:      Singlet-A      8.0636 eV  153.76 nm  f=0.0001  <S**2>=0.000
      13 -> 15        -0.10595
      13 -> 17         0.67255
      13 -> 21        -0.12371

 Excited State   7:      Singlet-A      8.4462 eV  146.79 nm  f=0.1165  <S**2>=0.000
      10 -> 14         0.68651

 Excited State   8:      Singlet-A      9.4355 eV  131.40 nm  f=0.0112  <S**2>=0.000
      10 -> 15        -0.29956
      11 -> 16         0.22231
      11 -> 18        -0.13022
      12 -> 15        -0.26963
      12 -> 17        -0.20648
      13 -> 18         0.42098

 Excited State   9:      Singlet-A      9.4769 eV  130.83 nm  f=0.0389  <S**2>=0.000
       9 -> 15         0.10781
      10 -> 15        -0.24272
      11 -> 15        -0.18840
      11 -> 16        -0.29179
      11 -> 18         0.16757
      12 -> 15         0.14685
      12 -> 17         0.28570
      13 -> 18         0.35475

 Excited State  10:      Singlet-A      9.7390 eV  127.31 nm  f=0.0008  <S**2>=0.000
       7 -> 15        -0.12230
      10 -> 16        -0.36382
      12 -> 16        -0.14038
      13 -> 19         0.53001

 Excited State  11:      Singlet-A      9.8745 eV  125.56 nm  f=0.3080  <S**2>=0.000
      10 -> 15        -0.13512
      11 -> 15         0.30988
      11 -> 16         0.22018
      12 -> 15         0.51168
      12 -> 16        -0.15177
      12 -> 19        -0.10976

 Excited State  12:      Singlet-A      9.9554 eV  124.54 nm  f=0.0352  <S**2>=0.000
      11 -> 15         0.36848
      11 -> 16        -0.19599
      11 -> 19        -0.14843
      12 -> 16         0.49832
      12 -> 18        -0.11048

 Excited State  13:      Singlet-A     10.4108 eV  119.09 nm  f=0.0012  <S**2>=0.000
       9 -> 14         0.14140
      10 -> 15         0.39959
      10 -> 16         0.21823
      12 -> 16         0.11564
      13 -> 15         0.15888
      13 -> 18         0.27930
      13 -> 19         0.31389

 Excited State  14:      Singlet-A     10.5567 eV  117.45 nm  f=0.0027  <S**2>=0.000
       9 -> 14         0.17323
      10 -> 15        -0.32823
      10 -> 16         0.33171
      11 -> 15        -0.13145
      11 -> 16         0.11065
      11 -> 17         0.11986
      12 -> 16         0.16801
      13 -> 16        -0.13644
      13 -> 18        -0.27291
      13 -> 19         0.17334

 Excited State  15:      Singlet-A     10.5904 eV  117.07 nm  f=0.0138  <S**2>=0.000
       8 -> 15         0.18281
       9 -> 14        -0.25728
       9 -> 16         0.14733
      10 -> 16        -0.23998
      11 -> 15        -0.16349
      11 -> 17         0.29908
      11 -> 19         0.12763
      12 -> 15         0.17963
      12 -> 16         0.22791
      12 -> 17        -0.13777
      12 -> 18         0.11421

 The electronic state is 1-A.
 Alpha  occ. eigenvalues --   -1.84367  -1.12225  -0.88364  -0.79469  -0.75904
 Alpha  occ. eigenvalues --   -0.66974  -0.62889  -0.57219  -0.55875  -0.45129
 Alpha  occ. eigenvalues --   -0.44687  -0.43637  -0.31170
 Alpha virt. eigenvalues --    0.08331   0.17247   0.17579   0.24808   0.27600
 Alpha virt. eigenvalues --    0.29537   0.34821   0.39319   0.47020   0.54276
 Alpha virt. eigenvalues --    0.58970

 Mulliken charges:
               1
     1  C   -0.162918
     2  C   -1.986244
     3  O    3.446937
     4  C   -2.004797
     5  C   -0.203647
     6  H    0.202451
     7  H    0.251323
     8  H    0.260512
     9  H    0.196384
 Sum of Mulliken charges =   0.00000

 Dipole moment (field-independent basis, Debye):
    X=             -0.7663    Y=            -11.0121    Z=             -0.2414  Tot=             11.0413
 N-N= 1.037635524967D+02 E-N=-1.690257131386D+02  KE=-1.435852163296D+01
 Orbital energies and kinetic energies (alpha):
                                 1                 2
   1         O                -1.843668         -1.232461
   2         O                -1.122253         -0.958568
   3         O                -0.883642         -0.778487
   4         O                -0.794686         -0.557256
   5         O                -0.759044         -0.631087
   6         O                -0.669737         -0.556668
   7         O                -0.628894         -0.491571

 Normal termination of Gaussian 09 at Tue Dec 15 17:07:40 2015.
