 Gaussian 09, Revision D.01,
 Gaussian 09:  ES64L-G09RevD.01 24-Apr-2013

 -------------------------------------------------------
 #P B3LYP/3-21G CIS(Singlets,NStates=15) pop(full) force
 -------------------------------------------------------

 --------
 FuranDFT
 --------
 Symbolic Z-matrix:
 Charge =  0 Multiplicity = 1

                         Standard orientation:
 ---------------------------------------------------------------------
 Center     Atomic      Atomic             Coordinates (Angstroms)
 Number     Number       Type             X           Y           Z
 ---------------------------------------------------------------------
      1          6           0       -0.771177    0.857452   -0.007565
      2          6           0       -1.028867   -0.432706    0.000097
      3          8           0        0.101544   -1.122845   -0.009403
      4          6           0        1.127116   -0.225692    0.001740
      5          6           0        0.584698    0.984843    0.015259
      6          1           0        1.141704    1.894237   -0.041266
      7          1           0        2.137814   -0.626432    0.017541
      8          1           0       -1.978290   -1.078726    0.041361
      9          1           0       -1.584198    1.690297    0.000396
 ---------------------------------------------------------------------

 SCF Done:  E(RB3LYP) =  -228.728962512     A.U. after   14 cycles

 Excitation energies and oscillator strengths:

 Excited State   1:      Singlet-A      7.5860 eV  163.44 nm  f=0.2309  <S**2>=0.000
      17 -> 19         0.14582
      18 -> 19         0.65753
      18 -> 20         0.11951
 This state for optimization and/or second-order correction.
 Total Energy, E(CIS) =  -228.450182766
 Copying the excited state density for this state as the 1-particle RhoCI density.

 Excited State   2:      Singlet-A      7.7832 eV  159.30 nm  f=0.0203  <S**2>=0.000
      17 -> 19         0.50364
      18 -> 19        -0.18366
      18 -> 20         0.44768

 Excited State   3:      Singlet-A      8.2678 eV  149.96 nm  f=0.0018  <S**2>=0.000
      18 -> 21         0.69485

 Excited State   4:      Singlet-A      8.9639 eV  138.31 nm  f=0.0055  <S**2>=0.000
      16 -> 19         0.69491

 Excited State   5:      Singlet-A      9.1706 eV  135.20 nm  f=0.0017  <S**2>=0.000
      18 -> 22         0.67195
      18 -> 23        -0.11242

 Excited State   6:      Singlet-A      9.5495 eV  129.83 nm  f=0.0046  <S**2>=0.000
      17 -> 21         0.50153
      18 -> 22        -0.14601
      18 -> 23        -0.44678

 Excited State   7:      Singlet-A      9.7000 eV  127.82 nm  f=0.0005  <S**2>=0.000
      17 -> 21         0.45893
      18 -> 23         0.51812

 Excited State   8:      Singlet-A     10.2051 eV  121.49 nm  f=0.5149  <S**2>=0.000
      14 -> 19         0.14017
      17 -> 19        -0.40360
      17 -> 20        -0.11330
      18 -> 20         0.46574

 Excited State   9:      Singlet-A     10.3281 eV  120.05 nm  f=0.1627  <S**2>=0.000
      15 -> 19        -0.26048
      17 -> 20         0.58094
      17 -> 21        -0.10729
      17 -> 22        -0.13627
      18 -> 24         0.11070

 Excited State  10:      Singlet-A     10.3513 eV  119.78 nm  f=0.0460  <S**2>=0.000
      14 -> 19         0.11834
      15 -> 19         0.60340
      16 -> 20         0.14269
      17 -> 20         0.27434

 Excited State  11:      Singlet-A     10.3962 eV  119.26 nm  f=0.0290  <S**2>=0.000
      14 -> 19         0.36676
      17 -> 22         0.16550
      18 -> 24         0.55202

 Excited State  12:      Singlet-A     10.4792 eV  118.31 nm  f=0.0160  <S**2>=0.000
      14 -> 19         0.54969
      15 -> 19        -0.17952
      18 -> 24        -0.35901

 Excited State  13:      Singlet-A     10.5798 eV  117.19 nm  f=0.0195  <S**2>=0.000
      17 -> 20         0.14330
      17 -> 22         0.65831
      18 -> 24        -0.17367

 Excited State  14:      Singlet-A     11.0896 eV  111.80 nm  f=0.0009  <S**2>=0.000
      16 -> 20         0.22524
      17 -> 23         0.65576

 Excited State  15:      Singlet-A     11.1424 eV  111.27 nm  f=0.0028  <S**2>=0.000
      13 -> 19        -0.13331
      15 -> 19        -0.11739
      16 -> 20         0.61622
      17 -> 23        -0.23959
      18 -> 25        -0.10180

 The electronic state is 1-A.
 Alpha  occ. eigenvalues --  -19.11072 -10.17444 -10.17019 -10.11998 -10.11444
 Alpha  occ. eigenvalues --   -1.14577  -0.82275  -0.75618  -0.60481  -0.56804
 Alpha  occ. eigenvalues --   -0.54274  -0.46046  -0.44040  -0.40954  -0.40414
 Alpha  occ. eigenvalues --   -0.35982  -0.28616  -0.23502
 Alpha virt. eigenvalues --    0.02900   0.10005   0.11372   0.14568   0.16412
 Alpha virt. eigenvalues --    0.18882   0.22838   0.25022   0.37057   0.44229
 Alpha virt. eigenvalues --    0.50972   0.68424   0.69517   0.72948   0.76397

 Mulliken charges:
               1
     1  C   -0.239462
     2  C    0.122279
     3  O   -0.498629
     4  C    0.096471
     5  C   -0.273524
     6  H    0.188582
     7  H    0.217991
     8  H    0.208491
     9  H    0.177802
 Sum of Mulliken charges =   0.00000

 Dipole moment (field-independent basis, Debye):
    X=             -0.0141    Y=              0.6224    Z=              0.0213  Tot=              0.6229
 Quadrupole moment (field-independent basis, Debye-Ang):
   XX=            -23.6661   YY=            -28.2103   ZZ=            -31.5935
   XY=              0.3563   XZ=             -0.1156   YZ=             -0.1651

 Normal termination of Gaussian 09 at Tue Dec 15 16:16:22 2015.
