 Gaussian 09, Revision D.01,
 Gaussian 09:  ES64L-G09RevD.01 24-Apr-2013

 ------------------------------------------------------------
 #P AM1(Input,print) CIS(Singlets,NStates=15) pop(full) force
 ------------------------------------------------------------

 -----------------
 AM1-Reparam Input
 -----------------
 Symbolic Z-matrix:
 Charge =  0 Multiplicity = 1

                         Standard orientation:
 ---------------------------------------------------------------------
 Center     Atomic      Atomic             Coordinates (Angstroms)
 Number     Number       Type             X           Y           Z
 ---------------------------------------------------------------------
      1          6           0       -0.600845    1.011082   -0.011114
      2          6           0       -1.134477   -0.269980   -0.037861
      3          8           0       -0.093479   -1.155839    0.034801
      4          6           0        1.096304   -0.450574   -0.034439
      5          6           0        0.759577    0.910126    0.013513
      6          1           0        1.468851    1.740545    0.047492
      7          1           0        1.958711   -0.939815   -0.005863
      8          1           0       -2.157857   -0.646201    0.045303
      9          1           0       -1.245235    1.888258    0.054067
 ---------------------------------------------------------------------

 SCF Done:  E(RAM1) =   1.37762408885     A.U. after   13 cycles

 Excitation energies and oscillator strengths:

 Excited State   1:      Singlet-A      6.3238 eV  196.06 nm  f=0.2855  <S**2>=0.000
      13 -> 14         0.68974
 This state for optimization and/or second-order correction.
 Total Energy, E(CIS) =   1.61002015831
 Copying the excited state density for this state as the 1-particle RhoCI density.

 Excited State   2:      Singlet-A      6.6908 eV  185.30 nm  f=0.0027  <S**2>=0.000
      12 -> 15         0.11431
      13 -> 15         0.62553
      13 -> 16         0.16283
      13 -> 17         0.20973

 Excited State   3:      Singlet-A      7.2977 eV  169.89 nm  f=0.0019  <S**2>=0.000
      12 -> 15        -0.20378
      12 -> 16        -0.10795
      13 -> 15        -0.15637
      13 -> 16         0.60758
      13 -> 21         0.14191
      13 -> 22         0.10847

 Excited State   4:      Singlet-A      7.8238 eV  158.47 nm  f=0.0013  <S**2>=0.000
       9 -> 14         0.11535
      11 -> 14         0.66713
      12 -> 14        -0.10488
      13 -> 22        -0.11366

 Excited State   5:      Singlet-A      7.9712 eV  155.54 nm  f=0.0096  <S**2>=0.000
      10 -> 14        -0.28931
      12 -> 16         0.13140
      13 -> 15        -0.15996
      13 -> 17         0.57910

 Excited State   6:      Singlet-A      8.1835 eV  151.51 nm  f=0.0048  <S**2>=0.000
      10 -> 14         0.57684
      11 -> 14        -0.12348
      12 -> 14        -0.21351
      13 -> 17         0.29252

 Excited State   7:      Singlet-A      8.4111 eV  147.41 nm  f=0.0003  <S**2>=0.000
      12 -> 15         0.19047
      12 -> 16         0.10353
      13 -> 19         0.44402
      13 -> 21        -0.17321
      13 -> 22         0.45017

 Excited State   8:      Singlet-A      8.4540 eV  146.66 nm  f=0.0384  <S**2>=0.000
      10 -> 14         0.24932
      12 -> 14         0.57560
      13 -> 18        -0.30037

 Excited State   9:      Singlet-A      8.9688 eV  138.24 nm  f=0.0014  <S**2>=0.000
      12 -> 15         0.41724
      12 -> 16         0.10668
      13 -> 19        -0.37348
      13 -> 21         0.25915
      13 -> 22         0.24441

 Excited State  10:      Singlet-A      9.0992 eV  136.26 nm  f=0.0007  <S**2>=0.000
      12 -> 15         0.14510
      13 -> 19         0.36839
      13 -> 20         0.16635
      13 -> 21         0.49261
      13 -> 22        -0.22900

 Excited State  11:      Singlet-A      9.3026 eV  133.28 nm  f=0.1323  <S**2>=0.000
      12 -> 14         0.23185
      12 -> 16         0.23303
      13 -> 18         0.49276
      13 -> 20        -0.30991
      13 -> 21         0.14519

 Excited State  12:      Singlet-A      9.3474 eV  132.64 nm  f=0.0099  <S**2>=0.000
      12 -> 15         0.37784
      12 -> 17         0.13808
      12 -> 20        -0.11707
      13 -> 15        -0.14676
      13 -> 16         0.20823
      13 -> 18         0.12203
      13 -> 21        -0.29333
      13 -> 22        -0.36242

 Excited State  13:      Singlet-A      9.4918 eV  130.62 nm  f=0.1080  <S**2>=0.000
      12 -> 14         0.17716
      12 -> 16        -0.29949
      13 -> 18         0.33698
      13 -> 20         0.44884

 Excited State  14:      Singlet-A      9.7543 eV  127.11 nm  f=0.0710  <S**2>=0.000
       8 -> 15         0.12810
      10 -> 15         0.34694
      10 -> 16         0.17270
      10 -> 17         0.41086
      11 -> 16        -0.15315
      11 -> 19        -0.25409

 Excited State  15:      Singlet-A      9.9539 eV  124.56 nm  f=0.0161  <S**2>=0.000
      12 -> 15        -0.12795
      12 -> 16         0.47769
      12 -> 21         0.15286
      13 -> 15         0.14217
      13 -> 16         0.12086
      13 -> 20         0.37528
      13 -> 23         0.10719

 The electronic state is 1-A.
 Alpha  occ. eigenvalues --   -1.88306  -1.19145  -0.95370  -0.78594  -0.77952
 Alpha  occ. eigenvalues --   -0.67591  -0.61201  -0.50920  -0.48285  -0.39733
 Alpha  occ. eigenvalues --   -0.39224  -0.36390  -0.26572
 Alpha virt. eigenvalues --    0.17675   0.21740   0.24585   0.27523   0.29542
 Alpha virt. eigenvalues --    0.29998   0.32814   0.33213   0.35614   0.39932
 Alpha virt. eigenvalues --    0.45571

 Mulliken charges:
               1
     1  C   -0.050430
     2  C   -1.590547
     3  O    2.806125
     4  C   -1.590779
     5  C   -0.042098
     6  H    0.065781
     7  H    0.165300
     8  H    0.170283
     9  H    0.066366
 Sum of Mulliken charges =   0.00000

 Dipole moment (field-independent basis, Debye):
    X=             -1.0011    Y=             -9.1275    Z=              1.0436  Tot=              9.2414
 N-N= 1.033986093858D+02 E-N=-1.695980750039D+02  KE=-1.585824763283D+01
 Orbital energies and kinetic energies (alpha):
                                 1                 2
   1         O                -1.883056         -1.370676
   2         O                -1.191454         -1.075781
   3         O                -0.953696         -0.877192
   4         O                -0.785937         -0.710675
   5         O                -0.779518         -0.625677
   6         O                -0.675914         -0.631859
   7         O                -0.612008         -0.541520

 Normal termination of Gaussian 09 at Tue Dec 15 17:07:58 2015.
