 Gaussian 09, Revision D.01,
 Gaussian 09:  ES64L-G09RevD.01 24-Apr-2013

 -------------------------------------------------------
 #P B3LYP/3-21G CIS(Singlets,NStates=15) pop(full) force
 -------------------------------------------------------

 --------
 FuranDFT
 --------
 Symbolic Z-matrix:
 Charge =  0 Multiplicity = 1

                         Standard orientation:
 ---------------------------------------------------------------------
 Center     Atomic      Atomic             Coordinates (Angstroms)
 Number     Number       Type             X           Y           Z
 ---------------------------------------------------------------------
      1          6           0        1.041420    0.649805   -0.038434
      2          6           0        0.885524   -0.662698    0.043344
      3          8           0       -0.430291   -1.099748   -0.015550
      4          6           0       -1.099306    0.047668   -0.016891
      5          6           0       -0.381449    1.131555    0.027832
      6          1           0       -0.679998    2.150430    0.006740
      7          1           0       -2.171500   -0.081625    0.031763
      8          1           0        1.677080   -1.468754   -0.000150
      9          1           0        1.939605    1.199960   -0.009059
 ---------------------------------------------------------------------

 SCF Done:  E(RB3LYP) =  -228.732695685     A.U. after   14 cycles

 Excitation energies and oscillator strengths:

 Excited State   1:      Singlet-A      7.3673 eV  168.29 nm  f=0.0753  <S**2>=0.000
      17 -> 19         0.37334
      18 -> 19         0.47894
      18 -> 20         0.33795
 This state for optimization and/or second-order correction.
 Total Energy, E(CIS) =  -228.461951366
 Copying the excited state density for this state as the 1-particle RhoCI density.

 Excited State   2:      Singlet-A      7.7204 eV  160.59 nm  f=0.1159  <S**2>=0.000
      17 -> 19        -0.34004
      18 -> 19         0.49182
      18 -> 20        -0.34645

 Excited State   3:      Singlet-A      8.8961 eV  139.37 nm  f=0.0014  <S**2>=0.000
      18 -> 21         0.69155
      18 -> 22        -0.10548

 Excited State   4:      Singlet-A      9.2844 eV  133.54 nm  f=0.0763  <S**2>=0.000
      16 -> 19         0.24892
      17 -> 20         0.62948

 Excited State   5:      Singlet-A      9.3635 eV  132.41 nm  f=0.0130  <S**2>=0.000
      16 -> 19         0.62169
      17 -> 20        -0.22511
      18 -> 22        -0.13494
      18 -> 23         0.16376

 Excited State   6:      Singlet-A      9.5439 eV  129.91 nm  f=0.0293  <S**2>=0.000
      16 -> 19         0.12618
      17 -> 19         0.11676
      18 -> 20        -0.13463
      18 -> 22         0.64680

 Excited State   7:      Singlet-A      9.5868 eV  129.33 nm  f=0.0087  <S**2>=0.000
      15 -> 19         0.16299
      16 -> 19        -0.11701
      17 -> 21         0.22866
      18 -> 23         0.61654

 Excited State   8:      Singlet-A      9.9047 eV  125.18 nm  f=0.0124  <S**2>=0.000
      15 -> 19         0.63212
      17 -> 21        -0.26207

 Excited State   9:      Singlet-A      9.9810 eV  124.22 nm  f=0.0157  <S**2>=0.000
      15 -> 19         0.19122
      17 -> 21         0.59502
      18 -> 22         0.10333
      18 -> 23        -0.24841

 Excited State  10:      Singlet-A     10.1340 eV  122.34 nm  f=0.4807  <S**2>=0.000
      15 -> 19        -0.12749
      17 -> 19        -0.39180
      17 -> 22         0.13305
      18 -> 20         0.42386
      18 -> 22         0.16388
      18 -> 23         0.13527

 Excited State  11:      Singlet-A     10.5096 eV  117.97 nm  f=0.0269  <S**2>=0.000
      14 -> 19        -0.13293
      16 -> 20         0.13781
      17 -> 22         0.62410
      17 -> 23         0.17398

 Excited State  12:      Singlet-A     10.5331 eV  117.71 nm  f=0.0024  <S**2>=0.000
      13 -> 19         0.10838
      14 -> 19        -0.24285
      15 -> 20         0.11095
      16 -> 20         0.60132
      17 -> 22        -0.17006

 Excited State  13:      Singlet-A     10.6586 eV  116.32 nm  f=0.0010  <S**2>=0.000
      17 -> 22        -0.11449
      17 -> 23         0.27551
      18 -> 24         0.62460

 Excited State  14:      Singlet-A     10.6986 eV  115.89 nm  f=0.0032  <S**2>=0.000
      17 -> 22        -0.15441
      17 -> 23         0.59607
      17 -> 25         0.13533
      18 -> 24        -0.29593

 Excited State  15:      Singlet-A     10.8114 eV  114.68 nm  f=0.0031  <S**2>=0.000
      14 -> 19         0.63792
      15 -> 20         0.10917
      16 -> 20         0.25828

 The electronic state is 1-A.
 Alpha  occ. eigenvalues --  -19.11553 -10.17729 -10.16965 -10.12761 -10.12149
 Alpha  occ. eigenvalues --   -1.13863  -0.81402  -0.75154  -0.61298  -0.56007
 Alpha  occ. eigenvalues --   -0.54733  -0.45565  -0.44446  -0.42206  -0.38979
 Alpha  occ. eigenvalues --   -0.36938  -0.27849  -0.24191
 Alpha virt. eigenvalues --    0.03075   0.07831   0.13167   0.15179   0.16364
 Alpha virt. eigenvalues --    0.18967   0.20681   0.24524   0.36970   0.42134
 Alpha virt. eigenvalues --    0.46271   0.68246   0.68697   0.69775   0.75408

 Mulliken charges:
               1
     1  C   -0.242628
     2  C    0.068788
     3  O   -0.481537
     4  C    0.121912
     5  C   -0.264015
     6  H    0.188625
     7  H    0.211352
     8  H    0.202191
     9  H    0.195311
 Sum of Mulliken charges =   0.00000

 Dipole moment (field-independent basis, Debye):
    X=              0.3666    Y=              0.8036    Z=              0.0285  Tot=              0.8837
 Quadrupole moment (field-independent basis, Debye-Ang):
   XX=            -24.3090   YY=            -27.7893   ZZ=            -31.6615
   XY=             -1.1699   XZ=             -0.1215   YZ=             -0.0032

 Normal termination of Gaussian 09 at Tue Dec 15 16:22:15 2015.
