 Gaussian 09, Revision D.01,
 Gaussian 09:  ES64L-G09RevD.01 24-Apr-2013

 ------------------------------------------------------------
 #P AM1(Input,print) CIS(Singlets,NStates=15) pop(full) force
 ------------------------------------------------------------

 -----------------
 AM1-Reparam Input
 -----------------
 Symbolic Z-matrix:
 Charge =  0 Multiplicity = 1

                         Standard orientation:
 ---------------------------------------------------------------------
 Center     Atomic      Atomic             Coordinates (Angstroms)
 Number     Number       Type             X           Y           Z
 ---------------------------------------------------------------------
      1          6           0       -0.695082    0.999306   -0.007815
      2          6           0       -1.097835   -0.365665    0.016671
      3          8           0       -0.007775   -1.141947    0.000639
      4          6           0        1.078678   -0.372664   -0.009648
      5          6           0        0.747365    0.946265   -0.004641
      6          1           0        1.357938    1.753186    0.037363
      7          1           0        1.990748   -0.858447    0.020310
      8          1           0       -2.098460   -0.798087   -0.038623
      9          1           0       -1.386778    1.795466    0.008438
 ---------------------------------------------------------------------

 SCF Done:  E(RAM1) =   2.80567054146     A.U. after   13 cycles

 Excitation energies and oscillator strengths:

 Excited State   1:      Singlet-A      5.3596 eV  231.33 nm  f=0.3477  <S**2>=0.000
      13 -> 14         0.69534
 This state for optimization and/or second-order correction.
 Total Energy, E(CIS) =   3.00263044731
 Copying the excited state density for this state as the 1-particle RhoCI density.

 Excited State   2:      Singlet-A      6.6669 eV  185.97 nm  f=0.0104  <S**2>=0.000
      11 -> 16         0.10076
      13 -> 15         0.64247
      13 -> 17         0.25753

 Excited State   3:      Singlet-A      6.8033 eV  182.24 nm  f=0.0005  <S**2>=0.000
       9 -> 14         0.14536
      12 -> 14         0.66569
      13 -> 16        -0.13731

 Excited State   4:      Singlet-A      6.8638 eV  180.64 nm  f=0.0001  <S**2>=0.000
      11 -> 15         0.11791
      12 -> 14         0.16005
      13 -> 16         0.60539
      13 -> 18        -0.27103

 Excited State   5:      Singlet-A      7.7837 eV  159.29 nm  f=0.0058  <S**2>=0.000
      10 -> 14         0.68557

 Excited State   6:      Singlet-A      7.9363 eV  156.22 nm  f=0.0002  <S**2>=0.000
      11 -> 15         0.13389
      13 -> 16         0.19177
      13 -> 18         0.31590
      13 -> 19         0.44255
      13 -> 20         0.27383
      13 -> 21        -0.23533

 Excited State   7:      Singlet-A      8.2992 eV  149.39 nm  f=0.0186  <S**2>=0.000
      11 -> 16        -0.16604
      13 -> 15        -0.21013
      13 -> 17         0.62901
      13 -> 18        -0.10180

 Excited State   8:      Singlet-A      8.4563 eV  146.62 nm  f=0.1198  <S**2>=0.000
      11 -> 14         0.68835

 Excited State   9:      Singlet-A      8.7563 eV  141.59 nm  f=0.0003  <S**2>=0.000
      11 -> 15         0.12593
      13 -> 16         0.17741
      13 -> 18         0.50062
      13 -> 19        -0.42515

 Excited State  10:      Singlet-A      9.3310 eV  132.87 nm  f=0.0036  <S**2>=0.000
      13 -> 18        -0.18836
      13 -> 19        -0.33198
      13 -> 20         0.52128
      13 -> 21        -0.25864

 Excited State  11:      Singlet-A      9.5302 eV  130.10 nm  f=0.0169  <S**2>=0.000
       8 -> 15        -0.14260
       9 -> 16         0.15175
       9 -> 18        -0.16475
      10 -> 15         0.29208
      10 -> 17         0.27578
      12 -> 16         0.33353
      12 -> 18        -0.20186
      12 -> 19        -0.25714

 Excited State  12:      Singlet-A      9.6153 eV  128.94 nm  f=0.0024  <S**2>=0.000
       9 -> 14         0.66067
      12 -> 14        -0.14830
      13 -> 20        -0.12220

 Excited State  13:      Singlet-A      9.6756 eV  128.14 nm  f=0.0753  <S**2>=0.000
      13 -> 20         0.33947
      13 -> 21         0.58132

 Excited State  14:      Singlet-A      9.7582 eV  127.06 nm  f=0.0201  <S**2>=0.000
       9 -> 15        -0.10597
      10 -> 16        -0.20837
      10 -> 18         0.11366
      12 -> 15         0.59894
      12 -> 17         0.20005

 Excited State  15:      Singlet-A      9.8571 eV  125.78 nm  f=0.1191  <S**2>=0.000
       9 -> 16        -0.11029
      10 -> 15        -0.27669
      10 -> 17        -0.13013
      11 -> 15         0.35832
      12 -> 16         0.43326
      12 -> 18        -0.10078

 The electronic state is 1-A.
 Alpha  occ. eigenvalues --   -1.72704  -1.11410  -0.92782  -0.80208  -0.75016
 Alpha  occ. eigenvalues --   -0.67166  -0.63890  -0.54788  -0.49393  -0.44794
 Alpha  occ. eigenvalues --   -0.43298  -0.41251  -0.29830
 Alpha virt. eigenvalues --    0.10315   0.18258   0.18933   0.24148   0.26334
 Alpha virt. eigenvalues --    0.28187   0.28967   0.29909   0.39110   0.47651
 Alpha virt. eigenvalues --    0.52365

 Mulliken charges:
               1
     1  C   -0.130860
     2  C   -1.998270
     3  O    3.218538
     4  C   -1.962726
     5  C   -0.110133
     6  H    0.178814
     7  H    0.305196
     8  H    0.317558
     9  H    0.181884
 Sum of Mulliken charges =   0.00000

 Dipole moment (field-independent basis, Debye):
    X=             -0.0207    Y=             -9.6985    Z=             -0.0470  Tot=              9.6986
 N-N= 1.040919705396D+02 E-N=-1.692435669628D+02  KE=-1.479842346568D+01
 Orbital energies and kinetic energies (alpha):
                                 1                 2
   1         O                -1.727038         -1.229877
   2         O                -1.114102         -0.985818
   3         O                -0.927816         -0.840063
   4         O                -0.802077         -0.610947
   5         O                -0.750164         -0.678219
   6         O                -0.671662         -0.577458
   7         O                -0.638903         -0.516728

 Normal termination of Gaussian 09 at Tue Dec 15 17:06:06 2015.
