 Gaussian 09, Revision D.01,
 Gaussian 09:  ES64L-G09RevD.01 24-Apr-2013

 ------------------------------------------------------------
 #P AM1(Input,print) CIS(Singlets,NStates=15) pop(full) force
 ------------------------------------------------------------

 -----------------
 AM1-Reparam Input
 -----------------
 Symbolic Z-matrix:
 Charge =  0 Multiplicity = 1

                         Standard orientation:
 ---------------------------------------------------------------------
 Center     Atomic      Atomic             Coordinates (Angstroms)
 Number     Number       Type             X           Y           Z
 ---------------------------------------------------------------------
      1          6           0        0.804052    0.840071    0.001280
      2          6           0        1.027364   -0.520018   -0.011118
      3          8           0       -0.188200   -1.107461    0.028342
      4          6           0       -1.102251   -0.202701   -0.025629
      5          6           0       -0.527351    1.054121   -0.014606
      6          1           0       -1.063821    1.971322    0.073959
      7          1           0       -2.176746   -0.569906    0.004219
      8          1           0        1.924076   -1.135306   -0.049914
      9          1           0        1.611208    1.564739    0.045441
 ---------------------------------------------------------------------

 SCF Done:  E(RAM1) =   1.79625501128     A.U. after   13 cycles

 Excitation energies and oscillator strengths:

 Excited State   1:      Singlet-A      5.9040 eV  210.00 nm  f=0.3015  <S**2>=0.000
      13 -> 14         0.68181
 This state for optimization and/or second-order correction.
 Total Energy, E(CIS) =   2.01322383379
 Copying the excited state density for this state as the 1-particle RhoCI density.

 Excited State   2:      Singlet-A      6.9379 eV  178.71 nm  f=0.0071  <S**2>=0.000
      13 -> 15         0.65632
      13 -> 16         0.14400
      13 -> 17         0.16489

 Excited State   3:      Singlet-A      7.4817 eV  165.72 nm  f=0.0037  <S**2>=0.000
      13 -> 15        -0.12836
      13 -> 16         0.65288
      13 -> 19         0.14566

 Excited State   4:      Singlet-A      7.8652 eV  157.64 nm  f=0.0013  <S**2>=0.000
      11 -> 14        -0.13994
      12 -> 14         0.68162

 Excited State   5:      Singlet-A      8.2176 eV  150.88 nm  f=0.0053  <S**2>=0.000
      10 -> 14         0.45463
      11 -> 14         0.52336

 Excited State   6:      Singlet-A      8.7473 eV  141.74 nm  f=0.0004  <S**2>=0.000
      13 -> 17         0.23217
      13 -> 18         0.59647
      13 -> 21         0.24702

 Excited State   7:      Singlet-A      9.1329 eV  135.76 nm  f=0.0978  <S**2>=0.000
      10 -> 14         0.51814
      11 -> 14        -0.42807
      12 -> 14        -0.10992

 Excited State   8:      Singlet-A      9.3035 eV  133.27 nm  f=0.0142  <S**2>=0.000
      10 -> 15        -0.10026
      10 -> 16         0.12532
      11 -> 15         0.12245
      11 -> 16        -0.10597
      13 -> 15        -0.10539
      13 -> 17         0.59419
      13 -> 18        -0.23777

 Excited State   9:      Singlet-A      9.7543 eV  127.11 nm  f=0.1543  <S**2>=0.000
       9 -> 15         0.12954
      10 -> 15         0.18081
      10 -> 16         0.16504
      10 -> 17         0.13886
      10 -> 18        -0.10134
      11 -> 15         0.20981
      11 -> 16         0.19872
      11 -> 17         0.10158
      11 -> 18        -0.17043
      12 -> 15         0.30198
      12 -> 16         0.12514
      12 -> 17         0.18580
      12 -> 18         0.17790
      13 -> 14        -0.15372

 Excited State  10:      Singlet-A      9.9229 eV  124.95 nm  f=0.0003  <S**2>=0.000
      10 -> 15         0.22596
      10 -> 16         0.20605
      11 -> 15        -0.23753
      11 -> 16        -0.10361
      13 -> 17         0.11039
      13 -> 19         0.54373

 Excited State  11:      Singlet-A     10.1224 eV  122.48 nm  f=0.0173  <S**2>=0.000
      11 -> 15         0.55851
      11 -> 17         0.11239
      12 -> 15        -0.17496
      13 -> 15         0.11175
      13 -> 19         0.26526

 Excited State  12:      Singlet-A     10.2113 eV  121.42 nm  f=0.0081  <S**2>=0.000
      10 -> 15         0.50313
      10 -> 17         0.12117
      12 -> 15        -0.28839
      12 -> 16        -0.16551
      13 -> 15        -0.12279
      13 -> 19        -0.24090

 Excited State  13:      Singlet-A     10.3887 eV  119.34 nm  f=0.1437  <S**2>=0.000
       8 -> 15        -0.11498
      10 -> 15         0.12487
      12 -> 15        -0.17600
      12 -> 16         0.59908
      12 -> 19         0.16404

 Excited State  14:      Singlet-A     10.7653 eV  115.17 nm  f=0.0497  <S**2>=0.000
       8 -> 15        -0.12108
       8 -> 16         0.12308
       9 -> 15        -0.17393
      10 -> 15        -0.14490
      10 -> 16         0.28061
      10 -> 18         0.12111
      10 -> 19         0.15518
      12 -> 15        -0.23510
      12 -> 16        -0.14104
      12 -> 17         0.17647
      12 -> 18         0.25074
      12 -> 19         0.16002
      12 -> 20        -0.14178

 Excited State  15:      Singlet-A     10.8262 eV  114.52 nm  f=0.0220  <S**2>=0.000
      10 -> 16        -0.28597
      11 -> 16         0.37263
      12 -> 15        -0.15620
      12 -> 18         0.16622
      13 -> 18        -0.14295
      13 -> 19         0.12843
      13 -> 20        -0.26352
      13 -> 21         0.20528

 The electronic state is 1-A.
 Alpha  occ. eigenvalues --   -2.01987  -1.29604  -1.00365  -0.90572  -0.85439
 Alpha  occ. eigenvalues --   -0.76892  -0.75780  -0.64392  -0.61730  -0.52520
 Alpha  occ. eigenvalues --   -0.52092  -0.51032  -0.39599
 Alpha virt. eigenvalues --    0.04458   0.09103   0.11929   0.18160   0.19824
 Alpha virt. eigenvalues --    0.21646   0.24751   0.26701   0.32058   0.39498
 Alpha virt. eigenvalues --    0.45576

 Mulliken charges:
               1
     1  C   -0.085275
     2  C   -1.925153
     3  O    3.172701
     4  C   -1.940247
     5  C   -0.138902
     6  H    0.158509
     7  H    0.308995
     8  H    0.291529
     9  H    0.157844
 Sum of Mulliken charges =   0.00000

 Dipole moment (field-independent basis, Debye):
    X=             -2.0000    Y=             -9.4560    Z=              0.6959  Tot=              9.6902
 N-N= 1.064229886945D+02 E-N=-1.718901988997D+02  KE=-1.572321207278D+01
 Orbital energies and kinetic energies (alpha):
                                 1                 2
   1         O                -2.019871         -1.422695
   2         O                -1.296036         -1.063106
   3         O                -1.003647         -0.867626
   4         O                -0.905716         -0.594005
   5         O                -0.854392         -0.688361
   6         O                -0.768916         -0.589248
   7         O                -0.757797         -0.591925

 Normal termination of Gaussian 09 at Tue Dec 15 17:08:55 2015.
