 Gaussian 09, Revision D.01,
 Gaussian 09:  ES64L-G09RevD.01 24-Apr-2013

 ------------------------------------------------------------
 #P AM1(Input,print) CIS(Singlets,NStates=15) pop(full) force
 ------------------------------------------------------------

 -----------------
 AM1-Reparam Input
 -----------------
 Symbolic Z-matrix:
 Charge =  0 Multiplicity = 1

                         Standard orientation:
 ---------------------------------------------------------------------
 Center     Atomic      Atomic             Coordinates (Angstroms)
 Number     Number       Type             X           Y           Z
 ---------------------------------------------------------------------
      1          6           0        0.863239    0.784245   -0.020767
      2          6           0        1.033205   -0.481976    0.015390
      3          8           0       -0.225510   -1.153029    0.003608
      4          6           0       -1.105698   -0.133167   -0.010492
      5          6           0       -0.522442    1.046167   -0.000348
      6          1           0       -1.117619    1.976527    0.081247
      7          1           0       -2.183631   -0.462451   -0.015577
      8          1           0        1.851522   -1.191054    0.001046
      9          1           0        1.643985    1.609587    0.001716
 ---------------------------------------------------------------------

 SCF Done:  E(RAM1) =   2.18115660738     A.U. after   14 cycles

 Excitation energies and oscillator strengths:

 Excited State   1:      Singlet-A      5.4189 eV  228.80 nm  f=0.3290  <S**2>=0.000
      13 -> 14         0.69407
 This state for optimization and/or second-order correction.
 Total Energy, E(CIS) =   2.38029582170
 Copying the excited state density for this state as the 1-particle RhoCI density.

 Excited State   2:      Singlet-A      5.7261 eV  216.52 nm  f=0.0005  <S**2>=0.000
      10 -> 15         0.10716
      13 -> 15         0.68266
      13 -> 17        -0.10134

 Excited State   3:      Singlet-A      6.3442 eV  195.43 nm  f=0.0005  <S**2>=0.000
      10 -> 16        -0.11774
      13 -> 16         0.67920

 Excited State   4:      Singlet-A      7.2125 eV  171.90 nm  f=0.0007  <S**2>=0.000
      12 -> 14         0.70072

 Excited State   5:      Singlet-A      7.7807 eV  159.35 nm  f=0.0069  <S**2>=0.000
      11 -> 14        -0.17821
      13 -> 15         0.10185
      13 -> 17         0.62375
      13 -> 18        -0.11984
      13 -> 20        -0.14185
      13 -> 22         0.14577

 Excited State   6:      Singlet-A      8.0233 eV  154.53 nm  f=0.0051  <S**2>=0.000
      11 -> 14        -0.22809
      13 -> 17         0.13815
      13 -> 18         0.55918
      13 -> 20         0.17611
      13 -> 22        -0.25165

 Excited State   7:      Singlet-A      8.1592 eV  151.96 nm  f=0.0034  <S**2>=0.000
      11 -> 14         0.63564
      13 -> 17         0.22404
      13 -> 18         0.15994

 Excited State   8:      Singlet-A      8.7930 eV  141.00 nm  f=0.0003  <S**2>=0.000
      13 -> 17         0.12135
      13 -> 18        -0.30176
      13 -> 20         0.57918
      13 -> 21         0.16050
      13 -> 22        -0.10975

 Excited State   9:      Singlet-A      9.0291 eV  137.32 nm  f=0.0002  <S**2>=0.000
      10 -> 14         0.50495
      12 -> 15        -0.10252
      12 -> 16        -0.17561
      13 -> 19        -0.39300

 Excited State  10:      Singlet-A      9.2059 eV  134.68 nm  f=0.0754  <S**2>=0.000
       9 -> 15         0.13491
      11 -> 15         0.14182
      11 -> 17         0.11174
      12 -> 15         0.53472
      12 -> 16        -0.26379
      12 -> 17        -0.11274
      12 -> 18         0.11325
      12 -> 20         0.10525

 Excited State  11:      Singlet-A      9.5027 eV  130.47 nm  f=0.0186  <S**2>=0.000
      11 -> 15        -0.11718
      13 -> 18         0.20052
      13 -> 19         0.10389
      13 -> 20         0.27266
      13 -> 21        -0.31479
      13 -> 22         0.49128

 Excited State  12:      Singlet-A      9.5365 eV  130.01 nm  f=0.0123  <S**2>=0.000
      10 -> 14         0.11200
      11 -> 15        -0.36125
      11 -> 17         0.11903
      12 -> 15        -0.15677
      12 -> 16        -0.22813
      12 -> 18         0.11152
      13 -> 19         0.42793
      13 -> 20        -0.10845
      13 -> 22        -0.12247

 Excited State  13:      Singlet-A      9.7380 eV  127.32 nm  f=0.0704  <S**2>=0.000
      10 -> 15         0.23744
      13 -> 19         0.10196
      13 -> 21         0.52532
      13 -> 22         0.32880

 Excited State  14:      Singlet-A      9.8168 eV  126.30 nm  f=0.1353  <S**2>=0.000
       9 -> 15         0.14682
      11 -> 15        -0.29501
      11 -> 16        -0.17924
      11 -> 17         0.22068
      11 -> 18         0.15101
      12 -> 15         0.11664
      12 -> 16         0.38865
      12 -> 18         0.16908
      13 -> 19        -0.16349
      13 -> 21         0.11529

 Excited State  15:      Singlet-A      9.8661 eV  125.67 nm  f=0.1638  <S**2>=0.000
      10 -> 14         0.36481
      10 -> 15         0.15513
      11 -> 15         0.17286
      12 -> 16         0.36569
      12 -> 17        -0.14570
      13 -> 19         0.29221
      13 -> 21        -0.16147
      13 -> 22        -0.11006

 The electronic state is 1-A.
 Alpha  occ. eigenvalues --   -1.93737  -1.21183  -0.93679  -0.79860  -0.78386
 Alpha  occ. eigenvalues --   -0.68755  -0.66490  -0.53930  -0.52641  -0.44187
 Alpha  occ. eigenvalues --   -0.42244  -0.39565  -0.26935
 Alpha virt. eigenvalues --    0.13885   0.16464   0.19120   0.26330   0.28287
 Alpha virt. eigenvalues --    0.30546   0.31344   0.32902   0.34676   0.39504
 Alpha virt. eigenvalues --    0.42540

 Mulliken charges:
               1
     1  C   -0.099231
     2  C   -1.815282
     3  O    3.190963
     4  C   -1.859038
     5  C   -0.227054
     6  H    0.158989
     7  H    0.263829
     8  H    0.239349
     9  H    0.147475
 Sum of Mulliken charges =   0.00000

 Dipole moment (field-independent basis, Debye):
    X=             -2.5349    Y=            -11.5705    Z=              0.0520  Tot=             11.8451
 N-N= 1.044055894603D+02 E-N=-1.698710888905D+02  KE=-1.534593606430D+01
 Orbital energies and kinetic energies (alpha):
                                 1                 2
   1         O                -1.937374         -1.354150
   2         O                -1.211831         -1.069517
   3         O                -0.936791         -0.897906
   4         O                -0.798599         -0.554717
   5         O                -0.783864         -0.682498
   6         O                -0.687549         -0.579218
   7         O                -0.664900         -0.541684

 Normal termination of Gaussian 09 at Tue Dec 15 17:09:24 2015.
