 Gaussian 09, Revision D.01,
 Gaussian 09:  ES64L-G09RevD.01 24-Apr-2013

 -------------------------------------------------------
 #P B3LYP/3-21G CIS(Singlets,NStates=15) pop(full) force
 -------------------------------------------------------

 --------
 FuranDFT
 --------
 Symbolic Z-matrix:
 Charge =  0 Multiplicity = 1

                         Standard orientation:
 ---------------------------------------------------------------------
 Center     Atomic      Atomic             Coordinates (Angstroms)
 Number     Number       Type             X           Y           Z
 ---------------------------------------------------------------------
      1          6           0       -1.066028    0.549571    0.013166
      2          6           0       -0.878971   -0.796044   -0.016967
      3          8           0        0.582850   -1.035453    0.006998
      4          6           0        1.153102    0.178886   -0.007447
      5          6           0        0.175993    1.158476   -0.003216
      6          1           0        0.382676    2.257368   -0.024410
      7          1           0        2.218832    0.183356    0.032427
      8          1           0       -1.469872   -1.686384    0.003517
      9          1           0       -2.099014    0.983952    0.019260
 ---------------------------------------------------------------------

 SCF Done:  E(RB3LYP) =  -228.742351897     A.U. after   15 cycles

 Excitation energies and oscillator strengths:

 Excited State   1:      Singlet-A      6.7361 eV  184.06 nm  f=0.1720  <S**2>=0.000
      17 -> 19         0.17596
      18 -> 19         0.63539
      18 -> 20         0.16885
 This state for optimization and/or second-order correction.
 Total Energy, E(CIS) =  -228.494803405
 Copying the excited state density for this state as the 1-particle RhoCI density.

 Excited State   2:      Singlet-A      7.2949 eV  169.96 nm  f=0.0386  <S**2>=0.000
      17 -> 19         0.48888
      18 -> 19        -0.23823
      18 -> 20         0.43342

 Excited State   3:      Singlet-A      7.7539 eV  159.90 nm  f=0.0014  <S**2>=0.000
      18 -> 21         0.69715

 Excited State   4:      Singlet-A      8.3095 eV  149.21 nm  f=0.0034  <S**2>=0.000
      16 -> 19         0.70252

 Excited State   5:      Singlet-A      8.6330 eV  143.62 nm  f=0.0015  <S**2>=0.000
      18 -> 22         0.69258

 Excited State   6:      Singlet-A      9.3235 eV  132.98 nm  f=0.0023  <S**2>=0.000
      17 -> 20        -0.14587
      17 -> 21         0.66994

 Excited State   7:      Singlet-A      9.5180 eV  130.26 nm  f=0.4371  <S**2>=0.000
      17 -> 19        -0.38866
      18 -> 20         0.45718
      18 -> 23         0.18755
      18 -> 24        -0.11116

 Excited State   8:      Singlet-A      9.6344 eV  128.69 nm  f=0.0527  <S**2>=0.000
      14 -> 19         0.10546
      17 -> 19         0.12652
      18 -> 20        -0.14995
      18 -> 23         0.58814
      18 -> 24        -0.23303

 Excited State   9:      Singlet-A      9.7652 eV  126.96 nm  f=0.0179  <S**2>=0.000
      15 -> 19         0.65366
      16 -> 20        -0.13458
      17 -> 20        -0.16659

 Excited State  10:      Singlet-A      9.8955 eV  125.29 nm  f=0.0149  <S**2>=0.000
      15 -> 19         0.11446
      17 -> 20         0.21307
      17 -> 22         0.13445
      18 -> 23         0.27109
      18 -> 24         0.57488

 Excited State  11:      Singlet-A      9.9230 eV  124.95 nm  f=0.1299  <S**2>=0.000
      15 -> 19         0.12016
      17 -> 19         0.10795
      17 -> 20         0.58347
      17 -> 21         0.15058
      18 -> 24        -0.23317

 Excited State  12:      Singlet-A     10.1397 eV  122.28 nm  f=0.0032  <S**2>=0.000
      14 -> 19         0.50747
      17 -> 22        -0.45110

 Excited State  13:      Singlet-A     10.1845 eV  121.74 nm  f=0.0056  <S**2>=0.000
      14 -> 19         0.44709
      16 -> 20        -0.11695
      17 -> 22         0.49414
      18 -> 24        -0.13919

 Excited State  14:      Singlet-A     10.3417 eV  119.89 nm  f=0.0045  <S**2>=0.000
      18 -> 25         0.68657

 Excited State  15:      Singlet-A     10.6460 eV  116.46 nm  f=0.0019  <S**2>=0.000
      12 -> 19         0.17117
      14 -> 19         0.11713
      15 -> 19         0.11730
      16 -> 20         0.65962

 The electronic state is 1-A.
 Alpha  occ. eigenvalues --  -19.10655 -10.17784 -10.17625 -10.13405 -10.12563
 Alpha  occ. eigenvalues --   -1.10007  -0.81144  -0.73560  -0.58840  -0.57844
 Alpha  occ. eigenvalues --   -0.53318  -0.44492  -0.43318  -0.41727  -0.40274
 Alpha  occ. eigenvalues --   -0.35522  -0.28481  -0.22579
 Alpha virt. eigenvalues --    0.00953   0.08616   0.11033   0.13354   0.17129
 Alpha virt. eigenvalues --    0.17972   0.19905   0.23429   0.34006   0.42204
 Alpha virt. eigenvalues --    0.47702   0.67116   0.70021   0.71809   0.74995

 Mulliken charges:
               1
     1  C   -0.227864
     2  C    0.011645
     3  O   -0.461827
     4  C    0.118927
     5  C   -0.260329
     6  H    0.180941
     7  H    0.222559
     8  H    0.219981
     9  H    0.195966
 Sum of Mulliken charges =   0.00000

 Dipole moment (field-independent basis, Debye):
    X=             -0.4542    Y=              0.6525    Z=              0.0309  Tot=              0.7956
 Quadrupole moment (field-independent basis, Debye-Ang):
   XX=            -23.9143   YY=            -27.5216   ZZ=            -31.9477
   XY=              1.8832   XZ=              0.0202   YZ=             -0.0414

 Normal termination of Gaussian 09 at Tue Dec 15 16:25:41 2015.
