 Gaussian 09, Revision D.01,
 Gaussian 09:  ES64L-G09RevD.01 24-Apr-2013

 ------------------------------------------------------------
 #P AM1(Input,print) CIS(Singlets,NStates=15) pop(full) force
 ------------------------------------------------------------

 -----------------
 AM1-Reparam Input
 -----------------
 Symbolic Z-matrix:
 Charge =  0 Multiplicity = 1

                         Standard orientation:
 ---------------------------------------------------------------------
 Center     Atomic      Atomic             Coordinates (Angstroms)
 Number     Number       Type             X           Y           Z
 ---------------------------------------------------------------------
      1          6           0        1.041420    0.649805   -0.038434
      2          6           0        0.885524   -0.662698    0.043344
      3          8           0       -0.430291   -1.099748   -0.015550
      4          6           0       -1.099306    0.047668   -0.016891
      5          6           0       -0.381449    1.131555    0.027832
      6          1           0       -0.679998    2.150430    0.006740
      7          1           0       -2.171500   -0.081625    0.031763
      8          1           0        1.677080   -1.468754   -0.000150
      9          1           0        1.939605    1.199960   -0.009059
 ---------------------------------------------------------------------

 SCF Done:  E(RAM1) =  0.347338934276E-01 A.U. after   13 cycles

 Excitation energies and oscillator strengths:

 Excited State   1:      Singlet-A      4.7606 eV  260.44 nm  f=0.0560  <S**2>=0.000
      12 -> 15         0.22697
      13 -> 14         0.66219
 This state for optimization and/or second-order correction.
 Total Energy, E(CIS) =  0.209683446065
 Copying the excited state density for this state as the 1-particle RhoCI density.

 Excited State   2:      Singlet-A      5.3062 eV  233.66 nm  f=0.0039  <S**2>=0.000
      12 -> 14        -0.40666
      13 -> 15         0.53067
      13 -> 16        -0.19859

 Excited State   3:      Singlet-A      5.5347 eV  224.01 nm  f=0.0002  <S**2>=0.000
      12 -> 14        -0.17745
      13 -> 15         0.12767
      13 -> 16         0.63802
      13 -> 22         0.12508

 Excited State   4:      Singlet-A      5.9737 eV  207.55 nm  f=0.0057  <S**2>=0.000
       7 -> 16        -0.15111
      12 -> 15        -0.18040
      12 -> 16         0.59142
      12 -> 21        -0.11993
      12 -> 22         0.14003
      13 -> 18         0.15534

 Excited State   5:      Singlet-A      6.1530 eV  201.50 nm  f=0.0063  <S**2>=0.000
      12 -> 15         0.19694
      12 -> 18        -0.11010
      12 -> 21        -0.20755
      13 -> 17         0.33879
      13 -> 18         0.43401
      13 -> 21         0.13751
      13 -> 23         0.16647
      13 -> 24         0.11423

 Excited State   6:      Singlet-A      6.3068 eV  196.59 nm  f=0.0406  <S**2>=0.000
      12 -> 15         0.44007
      12 -> 17         0.12217
      12 -> 18         0.23650
      12 -> 23         0.10584
      13 -> 14        -0.14326
      13 -> 19         0.16353
      13 -> 21        -0.35231

 Excited State   7:      Singlet-A      6.3758 eV  194.46 nm  f=0.1050  <S**2>=0.000
      12 -> 14         0.21271
      12 -> 15         0.31638
      12 -> 16         0.20225
      12 -> 17        -0.11710
      12 -> 18        -0.19046
      13 -> 14        -0.10131
      13 -> 15         0.21671
      13 -> 17        -0.25380
      13 -> 19        -0.11841
      13 -> 21         0.25718

 Excited State   8:      Singlet-A      6.4275 eV  192.90 nm  f=0.1267  <S**2>=0.000
      11 -> 14        -0.12801
      12 -> 14        -0.27286
      12 -> 15         0.21343
      12 -> 16         0.12369
      12 -> 19        -0.14561
      12 -> 21         0.10793
      13 -> 15        -0.20101
      13 -> 17         0.33179
      13 -> 18        -0.22912
      13 -> 21         0.12136
      13 -> 23        -0.17887
      13 -> 24        -0.10602

 Excited State   9:      Singlet-A      6.4406 eV  192.50 nm  f=0.2416  <S**2>=0.000
      11 -> 14        -0.11702
      12 -> 14         0.37392
      12 -> 15        -0.12708
      12 -> 19        -0.10404
      13 -> 15         0.29635
      13 -> 17         0.38066
      13 -> 18        -0.11638
      13 -> 23        -0.12559

 Excited State  10:      Singlet-A      6.7970 eV  182.41 nm  f=0.0031  <S**2>=0.000
      12 -> 17         0.57399
      12 -> 20        -0.15305
      12 -> 23        -0.12524
      13 -> 19        -0.27533

 Excited State  11:      Singlet-A      7.0847 eV  175.00 nm  f=0.0011  <S**2>=0.000
       9 -> 14         0.15091
      10 -> 14         0.19160
      11 -> 14         0.45477
      11 -> 15         0.39939
      13 -> 17         0.12442

 Excited State  12:      Singlet-A      7.3563 eV  168.54 nm  f=0.0027  <S**2>=0.000
      10 -> 14        -0.26243
      10 -> 15         0.24292
      11 -> 14         0.37870
      11 -> 15        -0.34608
      12 -> 18         0.12227
      12 -> 19        -0.11208
      12 -> 20         0.11572
      13 -> 19        -0.15323

 Excited State  13:      Singlet-A      7.5486 eV  164.25 nm  f=0.0018  <S**2>=0.000
      10 -> 14        -0.21065
      10 -> 15         0.12570
      11 -> 15        -0.12349
      12 -> 18        -0.33599
      12 -> 20        -0.26894
      12 -> 23        -0.16411
      12 -> 24         0.13448
      13 -> 19         0.34024

 Excited State  14:      Singlet-A      7.5986 eV  163.17 nm  f=0.0028  <S**2>=0.000
      12 -> 18         0.26255
      12 -> 19         0.19705
      12 -> 24        -0.12058
      13 -> 19         0.30816
      13 -> 20        -0.20797
      13 -> 21         0.25709
      13 -> 22        -0.29604
      13 -> 24         0.11211

 Excited State  15:      Singlet-A      7.7320 eV  160.35 nm  f=0.0042  <S**2>=0.000
      12 -> 18         0.18800
      12 -> 19        -0.23320
      12 -> 20        -0.11677
      12 -> 21         0.17172
      12 -> 22        -0.14396
      13 -> 18         0.17732
      13 -> 20         0.41676
      13 -> 21         0.14190
      13 -> 22        -0.17652
      13 -> 24        -0.17135

 The electronic state is 1-A.
 Alpha  occ. eigenvalues --   -1.58090  -1.24516  -1.10882  -0.83257  -0.80046
 Alpha  occ. eigenvalues --   -0.68813  -0.60843  -0.56162  -0.52058  -0.50941
 Alpha  occ. eigenvalues --   -0.48043  -0.39336  -0.36019
 Alpha virt. eigenvalues --    0.03781   0.06246   0.10226   0.12767   0.14767
 Alpha virt. eigenvalues --    0.15688   0.17539   0.18457   0.18899   0.20507
 Alpha virt. eigenvalues --    0.22436

 Mulliken charges:
               1
     1  C   -0.190763
     2  C   -0.112348
     3  O   -0.074889
     4  C   -0.079059
     5  C   -0.221019
     6  H    0.160322
     7  H    0.171406
     8  H    0.180688
     9  H    0.165661
 Sum of Mulliken charges =   0.00000

 Dipole moment (field-independent basis, Debye):
    X=              0.2745    Y=              0.3825    Z=              0.0064  Tot=              0.4708
 N-N= 1.037270245677D+02 E-N=-1.714154208370D+02  KE=-1.658906086908D+01
 Orbital energies and kinetic energies (alpha):
                                 1                 2
   1         O                -1.580900         -1.326655
   2         O                -1.245160         -1.053531
   3         O                -1.108821         -0.965599
   4         O                -0.832570         -0.705692
   5         O                -0.800455         -0.717340
   6         O                -0.688130         -0.604664
   7         O                -0.608429         -0.491824

 Normal termination of Gaussian 09 at Tue Dec 15 16:21:24 2015.
