 Gaussian 09, Revision D.01,
 Gaussian 09:  ES64L-G09RevD.01 24-Apr-2013

 ----------------------------
 #P AM1(Input,print) Opt Freq
 ----------------------------

 -----------------
 AM1-Reparam Input
 -----------------
 Symbolic Z-matrix:
 Charge =  0 Multiplicity = 1

 SCF Done:  E(RAM1) =   1.80023663359     A.U. after   13 cycles
 SCF Done:  E(RAM1) =   1.75822428307     A.U. after   11 cycles
 SCF Done:  E(RAM1) =   1.75302612403     A.U. after   11 cycles
 SCF Done:  E(RAM1) =   1.75323912696     A.U. after   11 cycles
 SCF Done:  E(RAM1) =   1.75232789279     A.U. after    8 cycles
 SCF Done:  E(RAM1) =   1.75208983143     A.U. after   10 cycles
 SCF Done:  E(RAM1) =   1.75209520789     A.U. after   10 cycles
 SCF Done:  E(RAM1) =   1.75203685161     A.U. after    7 cycles
 SCF Done:  E(RAM1) =   1.75202378214     A.U. after   10 cycles
 SCF Done:  E(RAM1) =   1.75201892493     A.U. after    9 cycles
 Optimization completed.
    -- Stationary point found.
 Normal termination of Gaussian 09 at Tue Dec  1 17:37:50 2015.

 -------------------------------------------------------------
 #P Geom=AllCheck Guess=TCheck SCRF=Check GenChk RAM1/ZDO Freq
 -------------------------------------------------------------

 Structure from the checkpoint file:  "/home/Applications/g09/scratch/Gau-23888.chk"
 -----------------
 AM1-Reparam Input
 -----------------
 Charge =  0 Multiplicity = 1

                         Standard orientation:
 ---------------------------------------------------------------------
 Center     Atomic      Atomic             Coordinates (Angstroms)
 Number     Number       Type             X           Y           Z
 ---------------------------------------------------------------------
      1          6           0       -0.679095    0.911561    0.000071
      2          6           0       -1.080403   -0.323872    0.000063
      3          8           0       -0.000838   -1.140974    0.000066
      4          6           0        1.079741   -0.325321   -0.000027
      5          6           0        0.680588    0.910319   -0.000054
      6          1           0        1.305284    1.793754   -0.000124
      7          1           0        2.056639   -0.750446   -0.000073
      8          1           0       -2.057790   -0.747719   -0.000747
      9          1           0       -1.302424    1.796079    0.000105
 ---------------------------------------------------------------------

 SCF Done:  E(RAM1) =   1.75201892493     A.U. after    2 cycles

 The electronic state is 1-A.
 Alpha  occ. eigenvalues --   -1.58321  -1.12489  -0.93852  -0.86503  -0.81476
 Alpha  occ. eigenvalues --   -0.73498  -0.71371  -0.58541  -0.56183  -0.53704
 Alpha  occ. eigenvalues --   -0.51301  -0.48207  -0.40835
 Alpha virt. eigenvalues --    0.02918   0.07858   0.12697   0.13971   0.19244
 Alpha virt. eigenvalues --    0.20926   0.21529   0.39831   0.49349   0.60333
 Alpha virt. eigenvalues --    0.69778

 Mulliken charges:
               1
     1  C   -0.098840
     2  C    0.356233
     3  O   -0.287556
     4  C    0.356123
     5  C   -0.098891
     6  H   -0.023012
     7  H   -0.090458
     8  H   -0.090538
     9  H   -0.023061
 Sum of Mulliken charges =   0.00000

 Dipole moment (field-independent basis, Debye):
    X=              0.0005    Y=              0.4411    Z=              0.0002  Tot=              0.4411
 N-N= 1.049789988974D+02 E-N=-1.735430795284D+02  KE=-1.318525559487D+01
  Exact polarizability:  35.612   0.005  36.502   0.001   0.000   6.386
 Approx polarizability:  28.081   0.008  33.533   0.000  -0.001   5.004
 Leave Link  601 at Tue Dec  1 17:37:51 2015, MaxMem=    33554432 cpu:         0.0
 (Enter /home/Applications/g09/g09/l701.exe)
 Compute integral second derivatives.
 ... and contract with generalized density number  0.
 Leave Link  701 at Tue Dec  1 17:37:51 2015, MaxMem=    33554432 cpu:         0.0
 (Enter /home/Applications/g09/g09/l702.exe)
 L702 exits ... SP integral derivatives will be done elsewhere.

                      1                      2                      3
                      A                      A                      A
 Frequencies --    649.4875               657.4979               773.7825
 Red. masses --      2.1593                 1.7726                 7.1198
 Frc consts  --      0.5367                 0.4515                 2.5116
 IR Inten    --      3.4073                 0.0013                 4.3006

                      4                      5                      6
                      A                      A                      A
 Frequencies --    838.1029               992.1324              1130.9214
 Red. masses --      7.7028                 1.1755                 1.0454
 Frc consts  --      3.1878                 0.6817                 0.7878
 IR Inten    --      0.0070                 3.6659                 5.8218

                      7                      8                      9
                      A                      A                      A
 Frequencies --   1132.2572              1155.4009              1171.1469
 Red. masses --      1.2947                 1.0972                 1.8062
 Frc consts  --      0.9779                 0.8630                 1.4596
 IR Inten    --      0.0004                 9.8659                33.1136

                     10                     11                     12
                      A                      A                      A
 Frequencies --   1183.6827              1250.7349              1340.1522
 Red. masses --      1.9292                 1.0812                 1.1695
 Frc consts  --      1.5926                 0.9965                 1.2376
 IR Inten    --      0.0044                 0.7394                 2.8425

                     13                     14                     15
                      A                      A                      A
 Frequencies --   1558.3969              1641.3801              1771.3057
 Red. masses --      7.9942                10.2147                 6.8501
 Frc consts  --     11.4389                16.2141                12.6629
 IR Inten    --     30.8406                 2.6780                36.6009

                     16                     17                     18
                      A                      A                      A
 Frequencies --   1945.5231              2016.4493              3275.8637
 Red. masses --      9.5562                 8.4783                 1.0779
 Frc consts  --     21.3113                20.3111                 6.8155
 IR Inten    --     52.4627                 2.2219                84.8059

                     19                     20                     21
                      A                      A                      A
 Frequencies --   3292.6835              3387.8903              3389.5575
 Red. masses --      1.0859                 1.0789                 1.0815
 Frc consts  --      6.9365                 7.2960                 7.3209
 IR Inten    --    146.3896                59.4225                 7.3188

 - Thermochemistry -
 -------------------
 Temperature   298.150 Kelvin.  Pressure   1.00000 Atm.
 Atom     1 has atomic number  6 and mass  12.00000

 Molecular mass:    68.02621 amu.
 Principal axes and moments of inertia in atomic units:
                           1         2         3
     Eigenvalues --   181.51236 182.29215 363.80451
           X            0.99993  -0.01176   0.00002
           Y            0.01176   0.99993   0.00001
           Z           -0.00002  -0.00001   1.00000
 This molecule is an asymmetric top.
 Rotational symmetry number  1.
 Rotational temperatures (Kelvin)      0.47718     0.47514     0.23808
 Rotational constants (GHZ):           9.94280     9.90027     4.96074
 Zero-point vibrational energy     206680.9 (Joules/Mol)
                                   49.39792 (Kcal/Mol)
 Vibrational temperatures:    934.47   945.99  1113.30  1205.84  1427.46
          (Kelvin)           1627.14  1629.06  1662.36  1685.02  1703.05
                             1799.53  1928.18  2242.18  2361.58  2548.51
                             2799.17  2901.22  4713.23  4737.43  4874.41
                             4876.81

 Zero-point correction=                           0.078721 (Hartree/Particle)
 Thermal correction to Energy=                    0.082145
 Thermal correction to Enthalpy=                  0.083089
 Thermal correction to Gibbs Free Energy=         0.052615
 Sum of electronic and zero-point Energies=              1.830740
 Sum of electronic and thermal Energies=                 1.834163
 Sum of electronic and thermal Enthalpies=               1.835108
 Sum of electronic and thermal Free Energies=            1.804634

                     E (Thermal)             CV                S
                      KCal/Mol        Cal/Mol-Kelvin    Cal/Mol-Kelvin
 Total                   51.546             11.122             64.138
 Electronic               0.000              0.000              0.000
 Translational            0.889              2.981             38.570
 Rotational               0.889              2.981             24.002
 Vibrational             49.769              5.161              1.566

 Optimization completed.
    -- Stationary point found.
 Normal termination of Gaussian 09 at Tue Dec  1 17:37:51 2015.
