 Gaussian 09, Revision D.01,
 Gaussian 09:  ES64L-G09RevD.01 24-Apr-2013

 ------------------------------------------------------------
 #P AM1(Input,print) CIS(Singlets,NStates=15) pop(full) force
 ------------------------------------------------------------

 -----------------
 AM1-Reparam Input
 -----------------
 Symbolic Z-matrix:
 Charge =  0 Multiplicity = 1

                         Standard orientation:
 ---------------------------------------------------------------------
 Center     Atomic      Atomic             Coordinates (Angstroms)
 Number     Number       Type             X           Y           Z
 ---------------------------------------------------------------------
      1          6           0       -1.113238    0.442806   -0.004783
      2          6           0       -0.750595   -0.836111    0.021280
      3          8           0        0.627596   -1.017490   -0.014962
      4          6           0        1.104850    0.268298    0.003039
      5          6           0        0.107970    1.210609   -0.013149
      6          1           0        0.178041    2.208215    0.024157
      7          1           0        2.205136    0.340432    0.057520
      8          1           0       -1.369346   -1.803414   -0.005826
      9          1           0       -2.128520    0.881079    0.005513
 ---------------------------------------------------------------------

 SCF Done:  E(RAM1) =   1.41230137241     A.U. after   13 cycles

 Excitation energies and oscillator strengths:

 Excited State   1:      Singlet-A      5.9124 eV  209.70 nm  f=0.2740  <S**2>=0.000
      13 -> 14         0.66084
      13 -> 15         0.19989
 This state for optimization and/or second-order correction.
 Total Energy, E(CIS) =   1.62957864759
 Copying the excited state density for this state as the 1-particle RhoCI density.

 Excited State   2:      Singlet-A      6.0119 eV  206.23 nm  f=0.0329  <S**2>=0.000
      13 -> 14        -0.20200
      13 -> 15         0.64457

 Excited State   3:      Singlet-A      6.1980 eV  200.04 nm  f=0.0041  <S**2>=0.000
      12 -> 15        -0.10690
      13 -> 16         0.66258
      13 -> 20        -0.11505

 Excited State   4:      Singlet-A      7.3719 eV  168.19 nm  f=0.0007  <S**2>=0.000
      11 -> 14         0.68316
      12 -> 14        -0.10871

 Excited State   5:      Singlet-A      7.6737 eV  161.57 nm  f=0.0087  <S**2>=0.000
      13 -> 18         0.66368
      13 -> 19         0.11190

 Excited State   6:      Singlet-A      7.9435 eV  156.08 nm  f=0.0016  <S**2>=0.000
      12 -> 15        -0.16243
      13 -> 19        -0.45321
      13 -> 20         0.16725
      13 -> 22         0.45790

 Excited State   7:      Singlet-A      8.1819 eV  151.53 nm  f=0.0009  <S**2>=0.000
      12 -> 14         0.47772
      13 -> 17         0.49527

 Excited State   8:      Singlet-A      8.4999 eV  145.87 nm  f=0.0006  <S**2>=0.000
      10 -> 14         0.68596

 Excited State   9:      Singlet-A      8.6302 eV  143.66 nm  f=0.0094  <S**2>=0.000
      12 -> 15        -0.19448
      12 -> 16        -0.15763
      13 -> 18        -0.14395
      13 -> 19         0.35950
      13 -> 20         0.42013
      13 -> 21         0.30025

 Excited State  10:      Singlet-A      8.8153 eV  140.65 nm  f=0.0007  <S**2>=0.000
      12 -> 15        -0.19099
      13 -> 16        -0.12308
      13 -> 19         0.31564
      13 -> 20        -0.30130
      13 -> 21        -0.25030
      13 -> 22         0.40486

 Excited State  11:      Singlet-A      8.9414 eV  138.66 nm  f=0.0112  <S**2>=0.000
      12 -> 15         0.55341
      13 -> 16         0.13097
      13 -> 19         0.15067
      13 -> 20         0.14601
      13 -> 22         0.28895

 Excited State  12:      Singlet-A      9.0256 eV  137.37 nm  f=0.0602  <S**2>=0.000
      12 -> 14         0.19934
      12 -> 16         0.47755
      13 -> 17        -0.18427
      13 -> 19         0.12486
      13 -> 20        -0.13928
      13 -> 21         0.31383
      13 -> 22         0.10219
      13 -> 23         0.10596

 Excited State  13:      Singlet-A      9.1018 eV  136.22 nm  f=0.1971  <S**2>=0.000
      12 -> 14        -0.41955
      12 -> 16         0.27077
      13 -> 17         0.43507

 Excited State  14:      Singlet-A      9.3212 eV  133.01 nm  f=0.0734  <S**2>=0.000
      11 -> 15        -0.12587
      11 -> 16         0.14802
      12 -> 15         0.16393
      12 -> 16        -0.28487
      13 -> 15        -0.10875
      13 -> 20        -0.32613
      13 -> 21         0.42457

 Excited State  15:      Singlet-A      9.3736 eV  132.27 nm  f=0.1980  <S**2>=0.000
       8 -> 15         0.13576
       9 -> 15         0.20063
      10 -> 15         0.10526
      10 -> 18        -0.11060
      11 -> 15        -0.33535
      11 -> 16         0.40840
      12 -> 16         0.14407
      13 -> 20         0.14598
      13 -> 21        -0.17265

 The electronic state is 1-A.
 Alpha  occ. eigenvalues --   -1.87781  -1.18912  -0.93773  -0.78400  -0.76990
 Alpha  occ. eigenvalues --   -0.66887  -0.60972  -0.48253  -0.47830  -0.40355
 Alpha  occ. eigenvalues --   -0.36944  -0.36179  -0.23704
 Alpha virt. eigenvalues --    0.18263   0.20775   0.21800   0.29473   0.29699
 Alpha virt. eigenvalues --    0.32132   0.34063   0.35173   0.36396   0.40503
 Alpha virt. eigenvalues --    0.44797

 Mulliken charges:
               1
     1  C   -0.038736
     2  C   -1.509491
     3  O    2.750312
     4  C   -1.523998
     5  C   -0.081177
     6  H    0.061407
     7  H    0.144944
     8  H    0.143715
     9  H    0.053024
 Sum of Mulliken charges =   0.00000

 Dipole moment (field-independent basis, Debye):
    X=              5.1691    Y=             -8.7601    Z=             -0.2535  Tot=             10.1746
 N-N= 1.032074525007D+02 E-N=-1.694325833107D+02  KE=-1.581810316090D+01
 Orbital energies and kinetic energies (alpha):
                                 1                 2
   1         O                -1.877812         -1.361953
   2         O                -1.189122         -1.088522
   3         O                -0.937729         -0.877538
   4         O                -0.783997         -0.645032
   5         O                -0.769902         -0.668744
   6         O                -0.668869         -0.630769
   7         O                -0.609723         -0.541301

 Normal termination of Gaussian 09 at Tue Dec 15 17:08:01 2015.
