 Gaussian 09, Revision D.01,
 Gaussian 09:  ES64L-G09RevD.01 24-Apr-2013

 ------------------------------------------------------------
 #P AM1(Input,print) CIS(Singlets,NStates=15) pop(full) force
 ------------------------------------------------------------

 -----------------
 AM1-Reparam Input
 -----------------
 Symbolic Z-matrix:
 Charge =  0 Multiplicity = 1

                         Standard orientation:
 ---------------------------------------------------------------------
 Center     Atomic      Atomic             Coordinates (Angstroms)
 Number     Number       Type             X           Y           Z
 ---------------------------------------------------------------------
      1          6           0        0.784739    0.890012    0.024979
      2          6           0        1.094651   -0.427110   -0.003319
      3          8           0       -0.098608   -1.146301   -0.008261
      4          6           0       -1.154740   -0.277523    0.017410
      5          6           0       -0.611548    1.025134   -0.026362
      6          1           0       -1.258019    1.925486   -0.014861
      7          1           0       -2.069470   -0.704131    0.026416
      8          1           0        1.965159   -1.006822   -0.021285
      9          1           0        1.472580    1.692791   -0.000433
 ---------------------------------------------------------------------

 SCF Done:  E(RAM1) =   1.78644984829     A.U. after   14 cycles

 Excitation energies and oscillator strengths:

 Excited State   1:      Singlet-A      5.6093 eV  221.03 nm  f=0.3343  <S**2>=0.000
      13 -> 14         0.68878
 This state for optimization and/or second-order correction.
 Total Energy, E(CIS) =   1.99258736549
 Copying the excited state density for this state as the 1-particle RhoCI density.

 Excited State   2:      Singlet-A      6.9666 eV  177.97 nm  f=0.0097  <S**2>=0.000
      13 -> 15         0.67839
      13 -> 17        -0.13764

 Excited State   3:      Singlet-A      7.2759 eV  170.40 nm  f=0.0002  <S**2>=0.000
      10 -> 15         0.11000
      13 -> 16         0.65920
      13 -> 18        -0.12028
      13 -> 19         0.15805

 Excited State   4:      Singlet-A      7.7052 eV  160.91 nm  f=0.0005  <S**2>=0.000
      12 -> 14         0.69245

 Excited State   5:      Singlet-A      8.1316 eV  152.47 nm  f=0.0057  <S**2>=0.000
      11 -> 14         0.69289

 Excited State   6:      Singlet-A      8.4248 eV  147.17 nm  f=0.0002  <S**2>=0.000
      13 -> 16         0.11242
      13 -> 18         0.63720
      13 -> 21        -0.22831

 Excited State   7:      Singlet-A      9.0984 eV  136.27 nm  f=0.1005  <S**2>=0.000
      10 -> 14         0.67636

 Excited State   8:      Singlet-A      9.3246 eV  132.97 nm  f=0.0080  <S**2>=0.000
      10 -> 16         0.19005
      13 -> 17         0.65399

 Excited State   9:      Singlet-A      9.8650 eV  125.68 nm  f=0.0032  <S**2>=0.000
      10 -> 15        -0.20126
      13 -> 16        -0.10412
      13 -> 19         0.62696
      13 -> 21         0.10824

 Excited State  10:      Singlet-A      9.8778 eV  125.52 nm  f=0.1282  <S**2>=0.000
       9 -> 16         0.14432
      11 -> 15         0.41864
      11 -> 17        -0.25211
      12 -> 16         0.15291
      12 -> 18        -0.34344
      13 -> 14         0.12907

 Excited State  11:      Singlet-A     10.4090 eV  119.11 nm  f=0.0156  <S**2>=0.000
      11 -> 15         0.16353
      11 -> 16        -0.32603
      11 -> 19        -0.13837
      12 -> 15         0.52975
      12 -> 16        -0.13753
      12 -> 17        -0.12468

 Excited State  12:      Singlet-A     10.4889 eV  118.21 nm  f=0.0328  <S**2>=0.000
      12 -> 16         0.14247
      13 -> 18        -0.21366
      13 -> 19         0.12354
      13 -> 20         0.43891
      13 -> 21        -0.43532

 Excited State  13:      Singlet-A     10.5330 eV  117.71 nm  f=0.1924  <S**2>=0.000
      11 -> 15        -0.25590
      12 -> 15         0.18726
      12 -> 16         0.55389
      12 -> 19         0.11695
      13 -> 21         0.15350

 Excited State  14:      Singlet-A     10.6107 eV  116.85 nm  f=0.0057  <S**2>=0.000
      10 -> 15         0.57468
      10 -> 16        -0.13445
      13 -> 16        -0.15455
      13 -> 19         0.18277
      13 -> 20        -0.12087
      13 -> 21        -0.12105

 Excited State  15:      Singlet-A     10.7692 eV  115.13 nm  f=0.0766  <S**2>=0.000
      10 -> 15         0.19499
      10 -> 16         0.17335
      13 -> 20         0.45945
      13 -> 21         0.43655

 The electronic state is 1-A.
 Alpha  occ. eigenvalues --   -1.99066  -1.26783  -1.00932  -0.89813  -0.86127
 Alpha  occ. eigenvalues --   -0.76773  -0.73991  -0.65030  -0.62860  -0.52423
 Alpha  occ. eigenvalues --   -0.51977  -0.50826  -0.38055
 Alpha virt. eigenvalues --    0.03952   0.11665   0.12531   0.19368   0.19958
 Alpha virt. eigenvalues --    0.22492   0.24726   0.26328   0.27809   0.35631
 Alpha virt. eigenvalues --    0.41333

 Mulliken charges:
               1
     1  C   -0.097575
     2  C   -1.885702
     3  O    3.185793
     4  C   -1.897785
     5  C   -0.151197
     6  H    0.164935
     7  H    0.259481
     8  H    0.269123
     9  H    0.152926
 Sum of Mulliken charges =   0.00000

 Dipole moment (field-independent basis, Debye):
    X=             -0.7078    Y=            -10.3197    Z=             -0.2206  Tot=             10.3463
 N-N= 1.053534796023D+02 E-N=-1.699830979104D+02  KE=-1.565785276498D+01
 Orbital energies and kinetic energies (alpha):
                                 1                 2
   1         O                -1.990657         -1.360968
   2         O                -1.267833         -1.042154
   3         O                -1.009318         -0.872223
   4         O                -0.898126         -0.609288
   5         O                -0.861274         -0.705350
   6         O                -0.767728         -0.617037
   7         O                -0.739915         -0.539449

 Normal termination of Gaussian 09 at Tue Dec 15 17:09:00 2015.
