 Gaussian 09, Revision D.01,
 Gaussian 09:  ES64L-G09RevD.01 24-Apr-2013

 ------------------------------------------------------------
 #P AM1(Input,print) CIS(Singlets,NStates=15) pop(full) force
 ------------------------------------------------------------

 -----------------
 AM1-Reparam Input
 -----------------
 Symbolic Z-matrix:
 Charge =  0 Multiplicity = 1

                         Standard orientation:
 ---------------------------------------------------------------------
 Center     Atomic      Atomic             Coordinates (Angstroms)
 Number     Number       Type             X           Y           Z
 ---------------------------------------------------------------------
      1          6           0       -1.151780    0.428735   -0.051436
      2          6           0       -0.731541   -0.889562    0.041920
      3          8           0        0.676392   -0.968070   -0.012975
      4          6           0        1.099382    0.333947   -0.022468
      5          6           0        0.067705    1.137959    0.042047
      6          1           0        0.142793    2.267538    0.026043
      7          1           0        2.179964    0.367783    0.010261
      8          1           0       -1.272615   -1.756239    0.021526
      9          1           0       -2.163874    0.799003   -0.014409
 ---------------------------------------------------------------------

 SCF Done:  E(RAM1) =   1.81907418787     A.U. after   14 cycles

 Excitation energies and oscillator strengths:

 Excited State   1:      Singlet-A      5.4685 eV  226.72 nm  f=0.3337  <S**2>=0.000
      13 -> 14         0.69028
 This state for optimization and/or second-order correction.
 Total Energy, E(CIS) =   2.02003846633
 Copying the excited state density for this state as the 1-particle RhoCI density.

 Excited State   2:      Singlet-A      6.6044 eV  187.73 nm  f=0.0022  <S**2>=0.000
      13 -> 15         0.67379
      13 -> 18        -0.11475

 Excited State   3:      Singlet-A      6.9045 eV  179.57 nm  f=0.0049  <S**2>=0.000
      13 -> 16         0.67178
      13 -> 17        -0.10246
      13 -> 19         0.12305

 Excited State   4:      Singlet-A      7.3272 eV  169.21 nm  f=0.0040  <S**2>=0.000
      12 -> 14         0.69752

 Excited State   5:      Singlet-A      8.2140 eV  150.94 nm  f=0.0001  <S**2>=0.000
      13 -> 16        -0.10217
      13 -> 17        -0.41595
      13 -> 18         0.48356
      13 -> 22         0.23151

 Excited State   6:      Singlet-A      8.4054 eV  147.50 nm  f=0.0086  <S**2>=0.000
      10 -> 14         0.55296
      11 -> 14        -0.40330
      13 -> 18        -0.14539

 Excited State   7:      Singlet-A      8.8492 eV  140.11 nm  f=0.0090  <S**2>=0.000
      13 -> 15         0.12258
      13 -> 17         0.52338
      13 -> 18         0.39273
      13 -> 19         0.12134

 Excited State   8:      Singlet-A      9.1057 eV  136.16 nm  f=0.0715  <S**2>=0.000
      10 -> 14         0.39626
      11 -> 14         0.53897
      12 -> 15        -0.10926

 Excited State   9:      Singlet-A      9.6314 eV  128.73 nm  f=0.0066  <S**2>=0.000
      11 -> 16         0.13687
      12 -> 16         0.10736
      13 -> 18        -0.12479
      13 -> 19         0.63550

 Excited State  10:      Singlet-A      9.6410 eV  128.60 nm  f=0.0635  <S**2>=0.000
       8 -> 15         0.11572
       9 -> 16         0.10788
      10 -> 15         0.14439
      10 -> 18        -0.17976
      11 -> 15        -0.11278
      12 -> 15        -0.23577
      12 -> 16         0.36077
      12 -> 17        -0.26095
      12 -> 18         0.22635
      13 -> 19        -0.11824

 Excited State  11:      Singlet-A      9.7510 eV  127.15 nm  f=0.1589  <S**2>=0.000
      12 -> 15         0.61764
      12 -> 16         0.10192
      12 -> 17        -0.20143

 Excited State  12:      Singlet-A     10.3205 eV  120.13 nm  f=0.0163  <S**2>=0.000
      13 -> 18        -0.20868
      13 -> 20        -0.29251
      13 -> 21         0.15006
      13 -> 22         0.55862

 Excited State  13:      Singlet-A     10.4320 eV  118.85 nm  f=0.0367  <S**2>=0.000
       7 -> 15        -0.10857
      10 -> 15         0.24038
      11 -> 15         0.50970
      11 -> 16         0.11512
      12 -> 16         0.17505
      13 -> 15        -0.10602
      13 -> 20         0.23527

 Excited State  14:      Singlet-A     10.5044 eV  118.03 nm  f=0.0954  <S**2>=0.000
      11 -> 16        -0.25796
      12 -> 16        -0.15915
      12 -> 17        -0.18011
      13 -> 20         0.50905
      13 -> 22         0.23020

 Excited State  15:      Singlet-A     10.6126 eV  116.83 nm  f=0.0974  <S**2>=0.000
       9 -> 16         0.14573
      10 -> 15        -0.16913
      10 -> 16        -0.11901
      11 -> 15        -0.26253
      12 -> 16         0.33556
      12 -> 17         0.25154
      12 -> 18        -0.16330
      12 -> 19         0.11037
      12 -> 20        -0.11299
      13 -> 20         0.21315
      13 -> 22         0.14465

 The electronic state is 1-A.
 Alpha  occ. eigenvalues --   -1.98570  -1.27413  -1.00401  -0.88996  -0.85475
 Alpha  occ. eigenvalues --   -0.76400  -0.73955  -0.62964  -0.61701  -0.51995
 Alpha  occ. eigenvalues --   -0.51402  -0.48205  -0.36133
 Alpha virt. eigenvalues --    0.05197   0.10875   0.13470   0.19747   0.21088
 Alpha virt. eigenvalues --    0.23710   0.25986   0.27469   0.27742   0.36021
 Alpha virt. eigenvalues --    0.40401

 Mulliken charges:
               1
     1  C   -0.094110
     2  C   -1.900388
     3  O    3.169692
     4  C   -1.844186
     5  C   -0.169655
     6  H    0.163566
     7  H    0.261912
     8  H    0.268234
     9  H    0.144935
 Sum of Mulliken charges =   0.00000

 Dipole moment (field-independent basis, Debye):
    X=              6.6231    Y=             -8.9574    Z=             -0.2883  Tot=             11.1437
 N-N= 1.054230688425D+02 E-N=-1.702921039010D+02  KE=-1.564368129622D+01
 Orbital energies and kinetic energies (alpha):
                                 1                 2
   1         O                -1.985696         -1.355556
   2         O                -1.274134         -1.055358
   3         O                -1.004013         -0.885748
   4         O                -0.889965         -0.592229
   5         O                -0.854750         -0.701063
   6         O                -0.763996         -0.606476
   7         O                -0.739546         -0.545665

 Normal termination of Gaussian 09 at Tue Dec 15 17:08:55 2015.
