 Gaussian 09, Revision D.01,
 Gaussian 09:  ES64L-G09RevD.01 24-Apr-2013

 ------------------------------------------------------------
 #P AM1(Input,print) CIS(Singlets,NStates=15) pop(full) force
 ------------------------------------------------------------

 -----------------
 AM1-Reparam Input
 -----------------
 Symbolic Z-matrix:
 Charge =  0 Multiplicity = 1

                         Standard orientation:
 ---------------------------------------------------------------------
 Center     Atomic      Atomic             Coordinates (Angstroms)
 Number     Number       Type             X           Y           Z
 ---------------------------------------------------------------------
      1          6           0        0.997475    0.685063   -0.014824
      2          6           0        0.940449   -0.633211   -0.000099
      3          8           0       -0.343307   -1.080257   -0.024714
      4          6           0       -1.184418   -0.037306    0.038479
      5          6           0       -0.389944    1.104132    0.005761
      6          1           0       -0.719698    2.168621   -0.062461
      7          1           0       -2.209550   -0.159561   -0.029901
      8          1           0        1.684739   -1.406406    0.074416
      9          1           0        1.809589    1.327340    0.039754
 ---------------------------------------------------------------------

 SCF Done:  E(RAM1) =   2.53014419509     A.U. after   13 cycles

 Excitation energies and oscillator strengths:

 Excited State   1:      Singlet-A      5.2366 eV  236.76 nm  f=0.3516  <S**2>=0.000
      13 -> 14         0.69600
 This state for optimization and/or second-order correction.
 Total Energy, E(CIS) =   2.72258601995
 Copying the excited state density for this state as the 1-particle RhoCI density.

 Excited State   2:      Singlet-A      6.4047 eV  193.58 nm  f=0.0044  <S**2>=0.000
      11 -> 15         0.11006
      13 -> 15         0.66237
      13 -> 17        -0.16190
      13 -> 19         0.10021

 Excited State   3:      Singlet-A      6.6298 eV  187.01 nm  f=0.0008  <S**2>=0.000
       9 -> 14         0.10961
      12 -> 14         0.65333
      13 -> 16         0.21710

 Excited State   4:      Singlet-A      6.6484 eV  186.49 nm  f=0.0042  <S**2>=0.000
      12 -> 14        -0.23297
      13 -> 16         0.61913
      13 -> 18         0.16693
      13 -> 19        -0.10391

 Excited State   5:      Singlet-A      7.6841 eV  161.35 nm  f=0.0019  <S**2>=0.000
      13 -> 15         0.13223
      13 -> 17         0.40396
      13 -> 18         0.45782
      13 -> 20         0.18243
      13 -> 21        -0.23412

 Excited State   6:      Singlet-A      7.9202 eV  156.54 nm  f=0.0063  <S**2>=0.000
      10 -> 14         0.68351

 Excited State   7:      Singlet-A      8.4290 eV  147.09 nm  f=0.0050  <S**2>=0.000
      10 -> 14        -0.11995
      11 -> 16        -0.12562
      13 -> 16         0.13801
      13 -> 17         0.52632
      13 -> 18        -0.34971
      13 -> 19        -0.10548
      13 -> 20        -0.12669

 Excited State   8:      Singlet-A      8.7514 eV  141.67 nm  f=0.1029  <S**2>=0.000
      11 -> 14         0.67114
      12 -> 15         0.13448

 Excited State   9:      Singlet-A      8.9440 eV  138.62 nm  f=0.0030  <S**2>=0.000
      13 -> 16         0.10776
      13 -> 19         0.65914
      13 -> 20        -0.10883

 Excited State  10:      Singlet-A      9.3166 eV  133.08 nm  f=0.0494  <S**2>=0.000
       8 -> 15        -0.11293
      10 -> 16        -0.12004
      10 -> 17         0.15213
      11 -> 14        -0.11947
      12 -> 15         0.45388
      12 -> 16        -0.23233
      12 -> 17        -0.19004
      12 -> 18        -0.26321

 Excited State  11:      Singlet-A      9.3564 eV  132.51 nm  f=0.0176  <S**2>=0.000
      13 -> 18        -0.32499
      13 -> 19         0.10379
      13 -> 20         0.48885
      13 -> 21        -0.34262

 Excited State  12:      Singlet-A      9.7350 eV  127.36 nm  f=0.0251  <S**2>=0.000
       9 -> 14         0.18378
      10 -> 15         0.20034
      10 -> 17        -0.10624
      12 -> 15         0.37542
      12 -> 16         0.42499
      12 -> 18         0.21240

 Excited State  13:      Singlet-A      9.7853 eV  126.70 nm  f=0.1592  <S**2>=0.000
       9 -> 14         0.11118
       9 -> 16        -0.13299
      10 -> 15        -0.17102
      10 -> 16        -0.21752
      10 -> 17         0.15798
      11 -> 16         0.10440
      12 -> 15        -0.21665
      12 -> 16         0.31612
      12 -> 17        -0.24018
      12 -> 18        -0.15950
      12 -> 19        -0.13898
      13 -> 20        -0.16900
      13 -> 21        -0.18863

 Excited State  14:      Singlet-A      9.8109 eV  126.37 nm  f=0.0525  <S**2>=0.000
       9 -> 14         0.44950
      10 -> 16         0.11650
      12 -> 16        -0.25832
      12 -> 17         0.10290
      13 -> 20        -0.28651
      13 -> 21        -0.29683

 Excited State  15:      Singlet-A      9.8668 eV  125.66 nm  f=0.0487  <S**2>=0.000
       9 -> 14         0.46561
      13 -> 20         0.25207
      13 -> 21         0.41463

 The electronic state is 1-A.
 Alpha  occ. eigenvalues --   -1.74890  -1.15639  -0.96514  -0.81353  -0.76971
 Alpha  occ. eigenvalues --   -0.67653  -0.65128  -0.56429  -0.50038  -0.45140
 Alpha  occ. eigenvalues --   -0.44652  -0.40787  -0.29240
 Alpha virt. eigenvalues --    0.10407   0.17293   0.18861   0.25167   0.26545
 Alpha virt. eigenvalues --    0.28627   0.29862   0.31567   0.40189   0.48949
 Alpha virt. eigenvalues --    0.54356

 Mulliken charges:
               1
     1  C   -0.032492
     2  C   -1.916754
     3  O    3.235548
     4  C   -1.951830
     5  C   -0.113570
     6  H    0.127690
     7  H    0.271806
     8  H    0.259888
     9  H    0.119714
 Sum of Mulliken charges =   0.00000

 Dipole moment (field-independent basis, Debye):
    X=             -2.5864    Y=             -9.6715    Z=             -0.6093  Tot=             10.0299
 N-N= 1.039627146938D+02 E-N=-1.689204132596D+02  KE=-1.505602103986D+01
 Orbital energies and kinetic energies (alpha):
                                 1                 2
   1         O                -1.748905         -1.250453
   2         O                -1.156394         -1.005601
   3         O                -0.965139         -0.864290
   4         O                -0.813525         -0.616979
   5         O                -0.769710         -0.697650
   6         O                -0.676532         -0.574191
   7         O                -0.651282         -0.523647

 Normal termination of Gaussian 09 at Tue Dec 15 17:06:26 2015.
