 Gaussian 09, Revision D.01,
 Gaussian 09:  ES64L-G09RevD.01 24-Apr-2013

 ------------------------------------------------------------
 #P AM1(Input,print) CIS(Singlets,NStates=15) pop(full) force
 ------------------------------------------------------------

 -----------------
 AM1-Reparam Input
 -----------------
 Symbolic Z-matrix:
 Charge =  0 Multiplicity = 1

                         Standard orientation:
 ---------------------------------------------------------------------
 Center     Atomic      Atomic             Coordinates (Angstroms)
 Number     Number       Type             X           Y           Z
 ---------------------------------------------------------------------
      1          6           0       -0.019172    1.188053   -0.031530
      2          6           0        1.098895    0.359700    0.031743
      3          8           0        0.727362   -0.947149    0.002160
      4          6           0       -0.659023   -0.891027   -0.032035
      5          6           0       -1.176731    0.335006    0.033046
      6          1           0       -2.218232    0.574251    0.032953
      7          1           0       -1.151457   -1.871327   -0.002203
      8          1           0        2.139430    0.634543   -0.023351
      9          1           0       -0.052447    2.289335   -0.032020
 ---------------------------------------------------------------------

 SCF Done:  E(RAM1) =   1.70012229213     A.U. after   14 cycles

 Excitation energies and oscillator strengths:

 Excited State   1:      Singlet-A      5.3339 eV  232.45 nm  f=0.3319  <S**2>=0.000
      13 -> 14         0.69448
 This state for optimization and/or second-order correction.
 Total Energy, E(CIS) =   1.89613872602
 Copying the excited state density for this state as the 1-particle RhoCI density.

 Excited State   2:      Singlet-A      6.1753 eV  200.77 nm  f=0.0019  <S**2>=0.000
      11 -> 15         0.11049
      13 -> 15         0.66178
      13 -> 17        -0.17062

 Excited State   3:      Singlet-A      6.4703 eV  191.62 nm  f=0.0031  <S**2>=0.000
      13 -> 16         0.64712
      13 -> 17        -0.14094
      13 -> 19        -0.18174

 Excited State   4:      Singlet-A      6.9866 eV  177.46 nm  f=0.0012  <S**2>=0.000
      12 -> 14         0.67636
      13 -> 21        -0.11446

 Excited State   5:      Singlet-A      7.4381 eV  166.69 nm  f=0.0076  <S**2>=0.000
      12 -> 14         0.13432
      13 -> 15        -0.13967
      13 -> 17        -0.41212
      13 -> 19         0.30774
      13 -> 21         0.41630

 Excited State   6:      Singlet-A      7.7905 eV  159.15 nm  f=0.0137  <S**2>=0.000
      10 -> 14        -0.10118
      11 -> 16        -0.10312
      13 -> 15         0.10001
      13 -> 16         0.15372
      13 -> 17         0.49604
      13 -> 18         0.15310
      13 -> 19         0.22119
      13 -> 21         0.32901

 Excited State   7:      Singlet-A      8.2404 eV  150.46 nm  f=0.0022  <S**2>=0.000
      10 -> 14         0.62985
      13 -> 17         0.13764
      13 -> 18        -0.21931
      13 -> 19         0.10328

 Excited State   8:      Singlet-A      8.2743 eV  149.84 nm  f=0.0036  <S**2>=0.000
      10 -> 14         0.25344
      13 -> 16        -0.12131
      13 -> 18         0.59753
      13 -> 19        -0.15436
      13 -> 20        -0.11080

 Excited State   9:      Singlet-A      8.5002 eV  145.86 nm  f=0.0039  <S**2>=0.000
      13 -> 18         0.22073
      13 -> 19         0.47580
      13 -> 20         0.11352
      13 -> 21        -0.43057

 Excited State  10:      Singlet-A      8.6131 eV  143.95 nm  f=0.0907  <S**2>=0.000
      11 -> 14         0.64684
      12 -> 15         0.14436

 Excited State  11:      Singlet-A      8.8946 eV  139.39 nm  f=0.0820  <S**2>=0.000
      10 -> 14         0.11176
      13 -> 19        -0.19208
      13 -> 20         0.64721

 Excited State  12:      Singlet-A      9.2826 eV  133.57 nm  f=0.1096  <S**2>=0.000
       8 -> 15         0.21494
      10 -> 16         0.10068
      10 -> 17        -0.18989
      11 -> 14        -0.13647
      12 -> 15         0.44543
      12 -> 16        -0.25420
      12 -> 18        -0.10392
      12 -> 19         0.10153
      12 -> 21         0.14879
      13 -> 20         0.11322

 Excited State  13:      Singlet-A      9.5591 eV  129.70 nm  f=0.0065  <S**2>=0.000
       7 -> 16         0.10611
      11 -> 15         0.47761
      11 -> 16         0.27534
      11 -> 17        -0.13530
      12 -> 15         0.19097
      12 -> 16         0.23189
      13 -> 16         0.14178

 Excited State  14:      Singlet-A      9.7891 eV  126.65 nm  f=0.1209  <S**2>=0.000
       8 -> 15         0.10809
       8 -> 16        -0.13008
      10 -> 17         0.13288
      11 -> 14        -0.12948
      11 -> 15        -0.28789
      11 -> 16        -0.11722
      12 -> 15         0.31557
      12 -> 16         0.22368
      12 -> 18         0.23907
      12 -> 21        -0.21069

 Excited State  15:      Singlet-A      9.8670 eV  125.66 nm  f=0.0174  <S**2>=0.000
       7 -> 15         0.12509
      10 -> 16         0.10077
      11 -> 15        -0.32260
      11 -> 16         0.47749
      12 -> 16         0.22286
      12 -> 17        -0.10129
      12 -> 21         0.11429
      13 -> 15         0.13313

 The electronic state is 1-A.
 Alpha  occ. eigenvalues --   -1.89979  -1.21503  -0.97832  -0.81177  -0.80152
 Alpha  occ. eigenvalues --   -0.68327  -0.62279  -0.52650  -0.51397  -0.43535
 Alpha  occ. eigenvalues --   -0.41398  -0.39623  -0.26912
 Alpha virt. eigenvalues --    0.13344   0.18345   0.19474   0.25853   0.27524
 Alpha virt. eigenvalues --    0.29190   0.29495   0.30616   0.36192   0.45705
 Alpha virt. eigenvalues --    0.49436

 Mulliken charges:
               1
     1  C   -0.150613
     2  C   -1.950120
     3  O    3.170848
     4  C   -1.916436
     5  C   -0.091455
     6  H    0.170409
     7  H    0.287377
     8  H    0.309255
     9  H    0.170736
 Sum of Mulliken charges =   0.00000

 Dipole moment (field-independent basis, Debye):
    X=              6.2753    Y=             -8.7752    Z=             -0.0050  Tot=             10.7881
 N-N= 1.035570707077D+02 E-N=-1.688787989345D+02  KE=-1.569982275829D+01
 Orbital energies and kinetic energies (alpha):
                                 1                 2
   1         O                -1.899791         -1.362121
   2         O                -1.215027         -1.107890
   3         O                -0.978320         -0.914613
   4         O                -0.811767         -0.623223
   5         O                -0.801521         -0.698406
   6         O                -0.683273         -0.583362
   7         O                -0.622793         -0.510427

 Normal termination of Gaussian 09 at Tue Dec 15 17:06:56 2015.
