 Gaussian 09, Revision D.01,
 Gaussian 09:  ES64L-G09RevD.01 24-Apr-2013

 -------------------------------------------------------
 #P B3LYP/3-21G CIS(Singlets,NStates=15) pop(full) force
 -------------------------------------------------------

 --------
 FuranDFT
 --------
 Symbolic Z-matrix:
 Charge =  0 Multiplicity = 1

                         Standard orientation:
 ---------------------------------------------------------------------
 Center     Atomic      Atomic             Coordinates (Angstroms)
 Number     Number       Type             X           Y           Z
 ---------------------------------------------------------------------
      1          6           0        1.007904    0.735301   -0.010651
      2          6           0        0.916886   -0.666669   -0.015906
      3          8           0       -0.356045   -1.062698    0.009082
      4          6           0       -1.117933   -0.040962   -0.017816
      5          6           0       -0.431617    1.100602    0.019935
      6          1           0       -0.735326    2.120375   -0.047185
      7          1           0       -2.221389   -0.217233    0.035419
      8          1           0        1.722424   -1.466074    0.028507
      9          1           0        1.831221    1.294886    0.057225
 ---------------------------------------------------------------------

 SCF Done:  E(RB3LYP) =  -228.722793416     A.U. after   14 cycles

 Excitation energies and oscillator strengths:

 Excited State   1:      Singlet-A      7.1249 eV  174.02 nm  f=0.0364  <S**2>=0.000
      17 -> 19         0.45316
      18 -> 19         0.33246
      18 -> 20         0.41310
 This state for optimization and/or second-order correction.
 Total Energy, E(CIS) =  -228.460958824
 Copying the excited state density for this state as the 1-particle RhoCI density.

 Excited State   2:      Singlet-A      7.6248 eV  162.61 nm  f=0.1974  <S**2>=0.000
      17 -> 19        -0.19598
      18 -> 19         0.59534
      18 -> 20        -0.28450

 Excited State   3:      Singlet-A      8.7907 eV  141.04 nm  f=0.0064  <S**2>=0.000
      16 -> 19         0.13545
      18 -> 21         0.66995

 Excited State   4:      Singlet-A      8.8993 eV  139.32 nm  f=0.0061  <S**2>=0.000
      16 -> 19         0.67634
      18 -> 21        -0.13827
      18 -> 22         0.11397

 Excited State   5:      Singlet-A      9.1497 eV  135.51 nm  f=0.1812  <S**2>=0.000
      17 -> 19         0.24605
      17 -> 20         0.59434
      18 -> 20        -0.18451

 Excited State   6:      Singlet-A      9.3242 eV  132.97 nm  f=0.0209  <S**2>=0.000
      17 -> 20         0.11872
      17 -> 21        -0.18072
      18 -> 22         0.63630

 Excited State   7:      Singlet-A      9.6139 eV  128.96 nm  f=0.0314  <S**2>=0.000
      18 -> 20        -0.10830
      18 -> 23         0.66363

 Excited State   8:      Singlet-A      9.7422 eV  127.26 nm  f=0.1901  <S**2>=0.000
      15 -> 19        -0.20361
      16 -> 20         0.10323
      17 -> 19         0.24176
      17 -> 20        -0.17012
      17 -> 21         0.43670
      18 -> 20        -0.25792
      18 -> 22         0.24092
      18 -> 23        -0.12455

 Excited State   9:      Singlet-A      9.8853 eV  125.42 nm  f=0.0747  <S**2>=0.000
      15 -> 19         0.54510
      16 -> 20        -0.34086
      17 -> 19         0.14464
      18 -> 20        -0.15396
      18 -> 22         0.10008

 Excited State  10:      Singlet-A      9.9697 eV  124.36 nm  f=0.2353  <S**2>=0.000
      15 -> 19         0.14248
      17 -> 19        -0.22889
      17 -> 20         0.20254
      17 -> 21         0.51363
      18 -> 20         0.25233
      18 -> 23         0.12058

 Excited State  11:      Singlet-A     10.1685 eV  121.93 nm  f=0.0034  <S**2>=0.000
      15 -> 19         0.36039
      16 -> 20         0.58204

 Excited State  12:      Singlet-A     10.5161 eV  117.90 nm  f=0.0005  <S**2>=0.000
      17 -> 22         0.66956
      17 -> 23        -0.17319

 Excited State  13:      Singlet-A     10.6686 eV  116.21 nm  f=0.0029  <S**2>=0.000
      17 -> 22         0.18868
      17 -> 23         0.59740
      18 -> 24        -0.29254

 Excited State  14:      Singlet-A     10.7666 eV  115.16 nm  f=0.0032  <S**2>=0.000
      17 -> 23         0.30450
      18 -> 24         0.62517

 Excited State  15:      Singlet-A     10.8621 eV  114.14 nm  f=0.0015  <S**2>=0.000
      14 -> 19         0.66403
      15 -> 20         0.19341

 The electronic state is 1-A.
 Alpha  occ. eigenvalues --  -19.12420 -10.18347 -10.17569 -10.12471 -10.11987
 Alpha  occ. eigenvalues --   -1.17377  -0.79793  -0.76346  -0.62188  -0.55643
 Alpha  occ. eigenvalues --   -0.55053  -0.47427  -0.45595  -0.42584  -0.39150
 Alpha  occ. eigenvalues --   -0.35471  -0.27203  -0.23299
 Alpha virt. eigenvalues --    0.03005   0.07318   0.13156   0.15773   0.16629
 Alpha virt. eigenvalues --    0.20157   0.22689   0.24005   0.35678   0.42073
 Alpha virt. eigenvalues --    0.47774   0.68948   0.69628   0.71380   0.74600

 Mulliken charges:
               1
     1  C   -0.255836
     2  C    0.090097
     3  O   -0.506548
     4  C    0.159126
     5  C   -0.276229
     6  H    0.184680
     7  H    0.210794
     8  H    0.206572
     9  H    0.187344
 Sum of Mulliken charges =   0.00000

 Dipole moment (field-independent basis, Debye):
    X=              0.2156    Y=              0.4496    Z=              0.0643  Tot=              0.5028
 Quadrupole moment (field-independent basis, Debye-Ang):
   XX=            -24.2848   YY=            -27.6376   ZZ=            -31.7859
   XY=             -0.9124   XZ=              0.1461   YZ=             -0.0853

 Normal termination of Gaussian 09 at Tue Dec 15 16:22:14 2015.
