 Gaussian 09, Revision D.01,
 Gaussian 09:  ES64L-G09RevD.01 24-Apr-2013

 ------------------------------------------------------------
 #P AM1(Input,print) CIS(Singlets,NStates=15) pop(full) force
 ------------------------------------------------------------

 -----------------
 AM1-Reparam Input
 -----------------
 Symbolic Z-matrix:
 Charge =  0 Multiplicity = 1

                         Standard orientation:
 ---------------------------------------------------------------------
 Center     Atomic      Atomic             Coordinates (Angstroms)
 Number     Number       Type             X           Y           Z
 ---------------------------------------------------------------------
      1          6           0        0.891225    0.800723    0.015921
      2          6           0        1.016608   -0.509661    0.031629
      3          8           0       -0.214954   -1.150807   -0.014098
      4          6           0       -1.141199   -0.136255   -0.007561
      5          6           0       -0.532356    1.050949   -0.024795
      6          1           0       -1.111574    2.035757    0.060398
      7          1           0       -2.156911   -0.506916    0.075583
      8          1           0        1.919511   -1.151118   -0.050373
      9          1           0        1.662937    1.594196   -0.063994
 ---------------------------------------------------------------------

 SCF Done:  E(RAM1) =   1.72623636860     A.U. after   14 cycles

 Excitation energies and oscillator strengths:

 Excited State   1:      Singlet-A      5.2108 eV  237.94 nm  f=0.3287  <S**2>=0.000
      13 -> 14         0.69246
 This state for optimization and/or second-order correction.
 Total Energy, E(CIS) =   1.91772894367
 Copying the excited state density for this state as the 1-particle RhoCI density.

 Excited State   2:      Singlet-A      6.0496 eV  204.95 nm  f=0.0061  <S**2>=0.000
      11 -> 16         0.11615
      13 -> 15         0.59420
      13 -> 16         0.30070
      13 -> 17         0.16652

 Excited State   3:      Singlet-A      6.0819 eV  203.86 nm  f=0.0010  <S**2>=0.000
      11 -> 15         0.11928
      13 -> 15        -0.29360
      13 -> 16         0.59272
      13 -> 20        -0.15369

 Excited State   4:      Singlet-A      6.9734 eV  177.79 nm  f=0.0008  <S**2>=0.000
      12 -> 14         0.66256
      13 -> 21        -0.17442

 Excited State   5:      Singlet-A      7.3268 eV  169.22 nm  f=0.0003  <S**2>=0.000
      12 -> 14         0.21825
      13 -> 16        -0.11550
      13 -> 17        -0.11748
      13 -> 19        -0.30647
      13 -> 20        -0.18020
      13 -> 21         0.52880

 Excited State   6:      Singlet-A      7.3412 eV  168.89 nm  f=0.0185  <S**2>=0.000
      13 -> 15        -0.17321
      13 -> 17         0.65940

 Excited State   7:      Singlet-A      8.0870 eV  153.31 nm  f=0.0026  <S**2>=0.000
      10 -> 14         0.62877
      13 -> 18        -0.25863
      13 -> 19         0.11898

 Excited State   8:      Singlet-A      8.1027 eV  153.02 nm  f=0.0004  <S**2>=0.000
      10 -> 14         0.25636
      13 -> 18         0.63025
      13 -> 20        -0.15192

 Excited State   9:      Singlet-A      8.2364 eV  150.53 nm  f=0.0008  <S**2>=0.000
      13 -> 16         0.11052
      13 -> 18         0.12348
      13 -> 19         0.22508
      13 -> 20         0.52938
      13 -> 21         0.36190

 Excited State  10:      Singlet-A      8.6638 eV  143.11 nm  f=0.0974  <S**2>=0.000
      10 -> 14        -0.14000
      13 -> 19         0.54498
      13 -> 20        -0.35211
      13 -> 21         0.19775

 Excited State  11:      Singlet-A      8.7284 eV  142.05 nm  f=0.0528  <S**2>=0.000
      11 -> 14         0.64187
      12 -> 15         0.17831
      13 -> 22         0.10619

 Excited State  12:      Singlet-A      9.1949 eV  134.84 nm  f=0.0756  <S**2>=0.000
       8 -> 15        -0.19417
      10 -> 17         0.22269
      12 -> 16         0.51129
      12 -> 18         0.12751
      12 -> 19        -0.12827
      12 -> 20        -0.10531
      12 -> 21         0.21344

 Excited State  13:      Singlet-A      9.6353 eV  128.68 nm  f=0.2089  <S**2>=0.000
       8 -> 16        -0.16277
      10 -> 18        -0.10907
      11 -> 14        -0.23696
      11 -> 15         0.10107
      12 -> 15         0.56206
      12 -> 16         0.11743

 Excited State  14:      Singlet-A      9.6964 eV  127.87 nm  f=0.0058  <S**2>=0.000
       7 -> 16        -0.11917
      10 -> 15        -0.10171
      11 -> 15         0.63044
      11 -> 17         0.11190
      12 -> 15        -0.11082
      13 -> 16        -0.13110

 Excited State  15:      Singlet-A      9.8014 eV  126.50 nm  f=0.2949  <S**2>=0.000
      10 -> 15         0.26526
      10 -> 17         0.31932
      11 -> 15         0.10650
      12 -> 15         0.14953
      12 -> 16        -0.30943
      12 -> 17         0.22542
      12 -> 18         0.20116
      12 -> 21         0.21179

 The electronic state is 1-A.
 Alpha  occ. eigenvalues --   -1.90653  -1.21820  -0.99002  -0.81264  -0.79979
 Alpha  occ. eigenvalues --   -0.67940  -0.62971  -0.53185  -0.51383  -0.42557
 Alpha  occ. eigenvalues --   -0.42009  -0.39233  -0.26158
 Alpha virt. eigenvalues --    0.13517   0.18168   0.18498   0.25534   0.27400
 Alpha virt. eigenvalues --    0.29100   0.29537   0.30255   0.35336   0.44670
 Alpha virt. eigenvalues --    0.48752

 Mulliken charges:
               1
     1  C   -0.122098
     2  C   -1.912208
     3  O    3.172994
     4  C   -1.905918
     5  C   -0.158533
     6  H    0.172560
     7  H    0.283471
     8  H    0.298522
     9  H    0.171209
 Sum of Mulliken charges =   0.00000

 Dipole moment (field-independent basis, Debye):
    X=             -1.8385    Y=            -10.8439    Z=             -0.3375  Tot=             11.0038
 N-N= 1.036833809895D+02 E-N=-1.690585574960D+02  KE=-1.569264025653D+01
 Orbital energies and kinetic energies (alpha):
                                 1                 2
   1         O                -1.906533         -1.365395
   2         O                -1.218201         -1.097947
   3         O                -0.990022         -0.919389
   4         O                -0.812640         -0.623234
   5         O                -0.799791         -0.699458
   6         O                -0.679403         -0.573402
   7         O                -0.629707         -0.515575

 Normal termination of Gaussian 09 at Tue Dec 15 17:07:08 2015.
