 Gaussian 09, Revision D.01,
 Gaussian 09:  ES64L-G09RevD.01 24-Apr-2013

 ------------------------------------------------------------
 #P AM1(Input,print) CIS(Singlets,NStates=15) pop(full) force
 ------------------------------------------------------------

 -----------------
 AM1-Reparam Input
 -----------------
 Symbolic Z-matrix:
 Charge =  0 Multiplicity = 1

                         Standard orientation:
 ---------------------------------------------------------------------
 Center     Atomic      Atomic             Coordinates (Angstroms)
 Number     Number       Type             X           Y           Z
 ---------------------------------------------------------------------
      1          6           0        0.701226    0.967271    0.040553
      2          6           0        1.125392   -0.316932   -0.018002
      3          8           0        0.007052   -1.142557   -0.010788
      4          6           0       -1.064523   -0.340344    0.037152
      5          6           0       -0.742517    0.901630   -0.041313
      6          1           0       -1.448645    1.775495   -0.029997
      7          1           0       -2.014939   -0.928212    0.013211
      8          1           0        2.024224   -0.811181   -0.003780
      9          1           0        1.265480    1.834602   -0.003475
 ---------------------------------------------------------------------

 SCF Done:  E(RAM1) =   2.16264653548     A.U. after   13 cycles

 Excitation energies and oscillator strengths:

 Excited State   1:      Singlet-A      5.3227 eV  232.93 nm  f=0.3531  <S**2>=0.000
      13 -> 14         0.69567
 This state for optimization and/or second-order correction.
 Total Energy, E(CIS) =   2.35825373425
 Copying the excited state density for this state as the 1-particle RhoCI density.

 Excited State   2:      Singlet-A      5.8372 eV  212.40 nm  f=0.0005  <S**2>=0.000
      10 -> 15         0.10626
      13 -> 15         0.68373

 Excited State   3:      Singlet-A      6.6851 eV  185.46 nm  f=0.0017  <S**2>=0.000
      10 -> 16        -0.10658
      13 -> 16         0.66473
      13 -> 17        -0.13829
      13 -> 19         0.13630

 Excited State   4:      Singlet-A      7.0613 eV  175.58 nm  f=0.0003  <S**2>=0.000
      12 -> 14         0.69940

 Excited State   5:      Singlet-A      7.8812 eV  157.32 nm  f=0.0005  <S**2>=0.000
      13 -> 16        -0.10245
      13 -> 17        -0.14667
      13 -> 18         0.58394
      13 -> 19         0.12635
      13 -> 22         0.30170

 Excited State   6:      Singlet-A      8.0373 eV  154.26 nm  f=0.0123  <S**2>=0.000
      11 -> 14         0.49733
      13 -> 17         0.46363
      13 -> 18         0.11320

 Excited State   7:      Singlet-A      8.2279 eV  150.69 nm  f=0.0038  <S**2>=0.000
      11 -> 14         0.48858
      13 -> 17        -0.46981
      13 -> 18        -0.11626

 Excited State   8:      Singlet-A      8.9687 eV  138.24 nm  f=0.0324  <S**2>=0.000
       8 -> 15        -0.10576
      10 -> 14         0.53552
      12 -> 15         0.34955
      13 -> 19        -0.14315
      13 -> 20        -0.13077

 Excited State   9:      Singlet-A      9.0482 eV  137.03 nm  f=0.0051  <S**2>=0.000
      13 -> 16        -0.10048
      13 -> 18        -0.20410
      13 -> 19         0.63200

 Excited State  10:      Singlet-A      9.2627 eV  133.85 nm  f=0.1290  <S**2>=0.000
      10 -> 14        -0.33723
      12 -> 15         0.51338
      12 -> 16        -0.15882
      12 -> 18        -0.15053
      13 -> 20         0.16778

 Excited State  11:      Singlet-A      9.4878 eV  130.68 nm  f=0.0159  <S**2>=0.000
      13 -> 18        -0.26446
      13 -> 20        -0.21570
      13 -> 21         0.24515
      13 -> 22         0.53513

 Excited State  12:      Singlet-A      9.7498 eV  127.17 nm  f=0.0613  <S**2>=0.000
      10 -> 15        -0.11035
      11 -> 15         0.17844
      11 -> 17        -0.12189
      12 -> 15         0.14730
      12 -> 16         0.13666
      12 -> 17        -0.11057
      12 -> 18         0.14081
      13 -> 20        -0.26846
      13 -> 21         0.39418
      13 -> 22        -0.29638

 Excited State  13:      Singlet-A      9.8693 eV  125.63 nm  f=0.0410  <S**2>=0.000
       9 -> 15         0.13949
      11 -> 15         0.31209
      11 -> 17        -0.19625
      11 -> 18        -0.10440
      12 -> 15         0.10785
      12 -> 16         0.24869
      12 -> 17        -0.17735
      12 -> 18         0.20837
      13 -> 20         0.26825
      13 -> 21        -0.21939
      13 -> 22         0.12622

 Excited State  14:      Singlet-A     10.0554 eV  123.30 nm  f=0.0720  <S**2>=0.000
      10 -> 14         0.19371
      10 -> 15        -0.35201
      13 -> 20         0.43754
      13 -> 21         0.31528

 Excited State  15:      Singlet-A     10.0986 eV  122.77 nm  f=0.0330  <S**2>=0.000
       7 -> 15        -0.11869
      10 -> 14         0.11589
      10 -> 15         0.54591
      13 -> 15        -0.10601
      13 -> 20         0.19589
      13 -> 21         0.31175

 The electronic state is 1-A.
 Alpha  occ. eigenvalues --   -1.94885  -1.20120  -0.94734  -0.81361  -0.78953
 Alpha  occ. eigenvalues --   -0.69547  -0.66880  -0.55353  -0.54003  -0.45027
 Alpha  occ. eigenvalues --   -0.44367  -0.40947  -0.28130
 Alpha virt. eigenvalues --    0.11834   0.15591   0.19900   0.25951   0.27858
 Alpha virt. eigenvalues --    0.30266   0.31397   0.31643   0.32716   0.39845
 Alpha virt. eigenvalues --    0.43907

 Mulliken charges:
               1
     1  C   -0.146399
     2  C   -1.864757
     3  O    3.205161
     4  C   -1.843407
     5  C   -0.181332
     6  H    0.161763
     7  H    0.261138
     8  H    0.251488
     9  H    0.156345
 Sum of Mulliken charges =   0.00000

 Dipole moment (field-independent basis, Debye):
    X=             -0.6776    Y=            -11.0753    Z=             -0.2994  Tot=             11.1001
 N-N= 1.045667270802D+02 E-N=-1.699507401148D+02  KE=-1.537131917106D+01
 Orbital energies and kinetic energies (alpha):
                                 1                 2
   1         O                -1.948850         -1.371916
   2         O                -1.201198         -1.051847
   3         O                -0.947336         -0.888467
   4         O                -0.813606         -0.572997
   5         O                -0.789533         -0.690915
   6         O                -0.695474         -0.585584
   7         O                -0.668795         -0.534140

 Normal termination of Gaussian 09 at Tue Dec 15 17:09:14 2015.
