 Gaussian 09, Revision D.01,
 Gaussian 09:  ES64L-G09RevD.01 24-Apr-2013

 ------------------------------------------------------------
 #P AM1(Input,print) CIS(Singlets,NStates=15) pop(full) force
 ------------------------------------------------------------

 -----------------
 AM1-Reparam Input
 -----------------
 Symbolic Z-matrix:
 Charge =  0 Multiplicity = 1

                         Standard orientation:
 ---------------------------------------------------------------------
 Center     Atomic      Atomic             Coordinates (Angstroms)
 Number     Number       Type             X           Y           Z
 ---------------------------------------------------------------------
      1          6           0       -0.611481    1.018234   -0.012699
      2          6           0       -1.096582   -0.170793    0.015960
      3          8           0       -0.181562   -1.109748   -0.010608
      4          6           0        1.017743   -0.505011    0.001332
      5          6           0        0.894040    0.834652    0.013340
      6          1           0        1.602161    1.597933   -0.015683
      7          1           0        1.865715   -1.158445   -0.001804
      8          1           0       -2.192187   -0.563814    0.011929
      9          1           0       -1.045513    1.939813   -0.017174
 ---------------------------------------------------------------------

 SCF Done:  E(RAM1) =   2.09512673956     A.U. after   13 cycles

 Excitation energies and oscillator strengths:

 Excited State   1:      Singlet-A      4.9657 eV  249.68 nm  f=0.3637  <S**2>=0.000
      13 -> 14         0.69734
 This state for optimization and/or second-order correction.
 Total Energy, E(CIS) =   2.27761347679
 Copying the excited state density for this state as the 1-particle RhoCI density.

 Excited State   2:      Singlet-A      6.0221 eV  205.88 nm  f=0.0012  <S**2>=0.000
      13 -> 15         0.63873
      13 -> 16        -0.12376
      13 -> 17         0.25717

 Excited State   3:      Singlet-A      6.2695 eV  197.76 nm  f=0.0000  <S**2>=0.000
      12 -> 14         0.70172

 Excited State   4:      Singlet-A      6.4794 eV  191.35 nm  f=0.0063  <S**2>=0.000
      13 -> 15         0.18122
      13 -> 16         0.60076
      13 -> 17        -0.15251
      13 -> 18         0.26900

 Excited State   5:      Singlet-A      7.3348 eV  169.03 nm  f=0.0024  <S**2>=0.000
      13 -> 15        -0.14646
      13 -> 16         0.25287
      13 -> 17         0.49538
      13 -> 18        -0.14916
      13 -> 19         0.35872

 Excited State   6:      Singlet-A      7.9658 eV  155.65 nm  f=0.0108  <S**2>=0.000
      10 -> 14         0.66878
      11 -> 14         0.17110

 Excited State   7:      Singlet-A      8.1853 eV  151.47 nm  f=0.0209  <S**2>=0.000
      10 -> 14         0.11899
      13 -> 15        -0.14080
      13 -> 17         0.34601
      13 -> 18         0.50750
      13 -> 19        -0.25956

 Excited State   8:      Singlet-A      8.6416 eV  143.47 nm  f=0.0055  <S**2>=0.000
      13 -> 16        -0.17815
      13 -> 17        -0.16497
      13 -> 18         0.35069
      13 -> 19         0.54487

 Excited State   9:      Singlet-A      8.7148 eV  142.27 nm  f=0.1100  <S**2>=0.000
      10 -> 14        -0.16681
      11 -> 14         0.64231
      12 -> 15        -0.17211

 Excited State  10:      Singlet-A      9.0599 eV  136.85 nm  f=0.2343  <S**2>=0.000
      11 -> 14         0.16469
      12 -> 15         0.43993
      12 -> 16        -0.27204
      12 -> 17         0.33776
      12 -> 18        -0.13957
      12 -> 19         0.13004

 Excited State  11:      Singlet-A      9.5409 eV  129.95 nm  f=0.0037  <S**2>=0.000
      13 -> 20         0.59479
      13 -> 21        -0.35914

 Excited State  12:      Singlet-A      9.6058 eV  129.07 nm  f=0.0220  <S**2>=0.000
      10 -> 15        -0.15907
      10 -> 17        -0.11078
      12 -> 15         0.45823
      12 -> 16         0.28077
      12 -> 17        -0.15942
      12 -> 18         0.25056
      12 -> 19        -0.18454

 Excited State  13:      Singlet-A      9.7212 eV  127.54 nm  f=0.0626  <S**2>=0.000
      13 -> 20         0.35850
      13 -> 21         0.58983

 Excited State  14:      Singlet-A     10.1076 eV  122.66 nm  f=0.0570  <S**2>=0.000
       8 -> 16        -0.12111
      10 -> 16         0.14722
      12 -> 16         0.48578
      12 -> 17         0.29487
      12 -> 19         0.31733

 Excited State  15:      Singlet-A     10.2296 eV  121.20 nm  f=0.0011  <S**2>=0.000
       7 -> 15        -0.14639
      10 -> 15        -0.16688
      11 -> 15         0.61900
      11 -> 16         0.14390
      13 -> 15        -0.10575

 The electronic state is 1-A.
 Alpha  occ. eigenvalues --   -1.96137  -1.20049  -0.97221  -0.83751  -0.78020
 Alpha  occ. eigenvalues --   -0.69330  -0.66548  -0.55051  -0.53461  -0.45749
 Alpha  occ. eigenvalues --   -0.45216  -0.40205  -0.28007
 Alpha virt. eigenvalues --    0.09973   0.16300   0.19474   0.25973   0.26322
 Alpha virt. eigenvalues --    0.28770   0.31295   0.31855   0.37581   0.46254
 Alpha virt. eigenvalues --    0.50883

 Mulliken charges:
               1
     1  C   -0.247026
     2  C   -1.977832
     3  O    3.173439
     4  C   -1.991684
     5  C   -0.216000
     6  H    0.250980
     7  H    0.367591
     8  H    0.387505
     9  H    0.253027
 Sum of Mulliken charges =   0.00000

 Dipole moment (field-independent basis, Debye):
    X=             -2.1966    Y=            -10.0867    Z=             -0.3028  Tot=             10.3276
 N-N= 1.050403814338D+02 E-N=-1.707709730632D+02  KE=-1.554466804899D+01
 Orbital energies and kinetic energies (alpha):
                                 1                 2
   1         O                -1.961369         -1.423759
   2         O                -1.200487         -1.063089
   3         O                -0.972214         -0.876709
   4         O                -0.837515         -0.605758
   5         O                -0.780205         -0.675844
   6         O                -0.693296         -0.564287
   7         O                -0.665477         -0.525590

 Normal termination of Gaussian 09 at Tue Dec 15 17:07:13 2015.
