 Gaussian 09, Revision D.01,
 Gaussian 09:  ES64L-G09RevD.01 24-Apr-2013

 ------------------------------------------------------------
 #P AM1(Input,print) CIS(Singlets,NStates=15) pop(full) force
 ------------------------------------------------------------

 -----------------
 AM1-Reparam Input
 -----------------
 Symbolic Z-matrix:
 Charge =  0 Multiplicity = 1

                         Standard orientation:
 ---------------------------------------------------------------------
 Center     Atomic      Atomic             Coordinates (Angstroms)
 Number     Number       Type             X           Y           Z
 ---------------------------------------------------------------------
      1          6           0        0.811789    0.906537    0.025962
      2          6           0        1.075719   -0.432537   -0.019495
      3          8           0       -0.075229   -1.151355    0.012376
      4          6           0       -1.172783   -0.259584   -0.018905
      5          6           0       -0.628214    1.018835    0.000406
      6          1           0       -1.201693    1.945600   -0.018772
      7          1           0       -2.175478   -0.712502    0.035409
      8          1           0        1.920125   -1.066049   -0.008658
      9          1           0        1.539818    1.644287   -0.034797
 ---------------------------------------------------------------------

 SCF Done:  E(RAM1) =   1.39341593272     A.U. after   13 cycles

 Excitation energies and oscillator strengths:

 Excited State   1:      Singlet-A      5.9039 eV  210.00 nm  f=0.3180  <S**2>=0.000
      13 -> 14         0.69227
 This state for optimization and/or second-order correction.
 Total Energy, E(CIS) =   1.61037960209
 Copying the excited state density for this state as the 1-particle RhoCI density.

 Excited State   2:      Singlet-A      6.2764 eV  197.54 nm  f=0.0013  <S**2>=0.000
      12 -> 15         0.11332
      13 -> 15         0.65870
      13 -> 17         0.17983

 Excited State   3:      Singlet-A      6.7392 eV  183.98 nm  f=0.0001  <S**2>=0.000
      12 -> 15        -0.10078
      12 -> 16        -0.12852
      13 -> 16         0.64682
      13 -> 21         0.11522
      13 -> 22        -0.12939

 Excited State   4:      Singlet-A      7.4910 eV  165.51 nm  f=0.0010  <S**2>=0.000
       9 -> 14        -0.10345
      11 -> 14         0.67235
      12 -> 14        -0.13084
      13 -> 22        -0.10499

 Excited State   5:      Singlet-A      7.6281 eV  162.54 nm  f=0.0130  <S**2>=0.000
      13 -> 15        -0.16768
      13 -> 17         0.65036
      13 -> 22         0.11388

 Excited State   6:      Singlet-A      8.0026 eV  154.93 nm  f=0.0009  <S**2>=0.000
      11 -> 14         0.10421
      12 -> 15        -0.12478
      12 -> 16        -0.10858
      13 -> 16         0.10786
      13 -> 19        -0.31575
      13 -> 21         0.10325
      13 -> 22         0.56514

 Excited State   7:      Singlet-A      8.2200 eV  150.83 nm  f=0.0066  <S**2>=0.000
      11 -> 14         0.10599
      12 -> 14         0.51477
      13 -> 18        -0.45520

 Excited State   8:      Singlet-A      8.3373 eV  148.71 nm  f=0.0008  <S**2>=0.000
      10 -> 14         0.69085

 Excited State   9:      Singlet-A      8.6706 eV  142.99 nm  f=0.0031  <S**2>=0.000
      12 -> 15         0.17353
      13 -> 19        -0.35403
      13 -> 20         0.32797
      13 -> 21         0.43696
      13 -> 22        -0.15744

 Excited State  10:      Singlet-A      8.7808 eV  141.20 nm  f=0.0010  <S**2>=0.000
      13 -> 19         0.50224
      13 -> 20         0.20398
      13 -> 21         0.35335
      13 -> 22         0.23597

 Excited State  11:      Singlet-A      9.0170 eV  137.50 nm  f=0.1471  <S**2>=0.000
      12 -> 14         0.33309
      12 -> 15        -0.10699
      12 -> 16         0.14126
      13 -> 18         0.38448
      13 -> 20        -0.31661
      13 -> 21         0.26147

 Excited State  12:      Singlet-A      9.1006 eV  136.24 nm  f=0.1432  <S**2>=0.000
      12 -> 14         0.29468
      12 -> 15         0.21259
      12 -> 16        -0.16683
      13 -> 18         0.34137
      13 -> 20         0.34081
      13 -> 21        -0.23678
      13 -> 22         0.11113

 Excited State  13:      Singlet-A      9.1948 eV  134.84 nm  f=0.0072  <S**2>=0.000
      12 -> 15         0.55485
      12 -> 16         0.14433
      12 -> 17         0.12230
      13 -> 15        -0.13089
      13 -> 16         0.13402
      13 -> 20        -0.23924
      13 -> 22         0.13951

 Excited State  14:      Singlet-A      9.6971 eV  127.86 nm  f=0.0056  <S**2>=0.000
      12 -> 16         0.57548
      12 -> 21         0.10457
      13 -> 15         0.10727
      13 -> 16         0.14851
      13 -> 20         0.21022
      13 -> 21        -0.14233
      13 -> 23         0.11501

 Excited State  15:      Singlet-A      9.8512 eV  125.86 nm  f=0.0485  <S**2>=0.000
       8 -> 15         0.23468
      10 -> 16         0.10902
      10 -> 17         0.17711
      11 -> 15         0.46980
      11 -> 16        -0.27295
      11 -> 19        -0.13302
      11 -> 22         0.12996

 The electronic state is 1-A.
 Alpha  occ. eigenvalues --   -1.88156  -1.17317  -0.95359  -0.79198  -0.76890
 Alpha  occ. eigenvalues --   -0.67246  -0.60801  -0.50657  -0.48402  -0.40882
 Alpha  occ. eigenvalues --   -0.38387  -0.36988  -0.24934
 Alpha virt. eigenvalues --    0.16857   0.21017   0.22847   0.28253   0.28872
 Alpha virt. eigenvalues --    0.30996   0.32861   0.33489   0.34488   0.39316
 Alpha virt. eigenvalues --    0.44820

 Mulliken charges:
               1
     1  C   -0.085567
     2  C   -1.537416
     3  O    2.785308
     4  C   -1.547025
     5  C   -0.051607
     6  H    0.065681
     7  H    0.154044
     8  H    0.145526
     9  H    0.071057
 Sum of Mulliken charges =   0.00000

 Dipole moment (field-independent basis, Debye):
    X=             -0.3712    Y=             -9.6174    Z=              0.4147  Tot=              9.6335
 N-N= 1.029875828358D+02 E-N=-1.688841316647D+02  KE=-1.579984133223D+01
 Orbital energies and kinetic energies (alpha):
                                 1                 2
   1         O                -1.881561         -1.360542
   2         O                -1.173175         -1.061433
   3         O                -0.953591         -0.868143
   4         O                -0.791984         -0.655556
   5         O                -0.768897         -0.687541
   6         O                -0.672461         -0.625641
   7         O                -0.608011         -0.532522

 Normal termination of Gaussian 09 at Tue Dec 15 17:08:05 2015.
