 Gaussian 09, Revision D.01,
 Gaussian 09:  ES64L-G09RevD.01 24-Apr-2013

 ------------------------------------------------------------
 #P AM1(Input,print) CIS(Singlets,NStates=15) pop(full) force
 ------------------------------------------------------------

 -----------------
 AM1-Reparam Input
 -----------------
 Symbolic Z-matrix:
 Charge =  0 Multiplicity = 1

                         Standard orientation:
 ---------------------------------------------------------------------
 Center     Atomic      Atomic             Coordinates (Angstroms)
 Number     Number       Type             X           Y           Z
 ---------------------------------------------------------------------
      1          6           0       -0.854886    0.855175    0.007371
      2          6           0       -1.039381   -0.523795   -0.018260
      3          8           0        0.161980   -1.110345    0.011342
      4          6           0        1.149741   -0.200510   -0.033841
      5          6           0        0.565601    1.020617    0.019370
      6          1           0        1.073919    1.971679   -0.025861
      7          1           0        2.154652   -0.508292    0.067459
      8          1           0       -1.846721   -1.133546    0.036402
      9          1           0       -1.604135    1.643992   -0.016579
 ---------------------------------------------------------------------

 SCF Done:  E(RAM1) =   2.51210407824     A.U. after   13 cycles

 Excitation energies and oscillator strengths:

 Excited State   1:      Singlet-A      5.3941 eV  229.85 nm  f=0.3546  <S**2>=0.000
      13 -> 14         0.69568
 This state for optimization and/or second-order correction.
 Total Energy, E(CIS) =   2.71033373474
 Copying the excited state density for this state as the 1-particle RhoCI density.

 Excited State   2:      Singlet-A      6.6737 eV  185.78 nm  f=0.0073  <S**2>=0.000
      13 -> 15         0.62408
      13 -> 16         0.21391
      13 -> 17        -0.20317

 Excited State   3:      Singlet-A      6.7887 eV  182.63 nm  f=0.0003  <S**2>=0.000
       9 -> 14        -0.14145
      12 -> 14         0.68588

 Excited State   4:      Singlet-A      6.8589 eV  180.77 nm  f=0.0000  <S**2>=0.000
      11 -> 15        -0.11056
      13 -> 15        -0.21268
      13 -> 16         0.61304
      13 -> 18         0.15919
      13 -> 19         0.17025

 Excited State   5:      Singlet-A      7.8477 eV  157.99 nm  f=0.0045  <S**2>=0.000
      10 -> 14         0.66801
      11 -> 14         0.18980

 Excited State   6:      Singlet-A      7.9499 eV  155.96 nm  f=0.0000  <S**2>=0.000
      13 -> 16        -0.14096
      13 -> 17        -0.13071
      13 -> 18         0.57199
      13 -> 19        -0.10064
      13 -> 21        -0.31662

 Excited State   7:      Singlet-A      8.5660 eV  144.74 nm  f=0.0051  <S**2>=0.000
      11 -> 16        -0.14966
      13 -> 15         0.16032
      13 -> 17         0.63854
      13 -> 18         0.14325

 Excited State   8:      Singlet-A      8.7376 eV  141.90 nm  f=0.1067  <S**2>=0.000
      10 -> 14        -0.18939
      11 -> 14         0.66529

 Excited State   9:      Singlet-A      9.1173 eV  135.99 nm  f=0.0003  <S**2>=0.000
      11 -> 15         0.14341
      13 -> 16        -0.14197
      13 -> 19         0.63952
      13 -> 21        -0.13606

 Excited State  10:      Singlet-A      9.4780 eV  130.81 nm  f=0.0054  <S**2>=0.000
       9 -> 16        -0.12377
      10 -> 15         0.22660
      10 -> 17        -0.21216
      12 -> 16         0.30275
      12 -> 17        -0.11688
      12 -> 18         0.30579
      13 -> 18         0.17128
      13 -> 21         0.26573

 Excited State  11:      Singlet-A      9.5220 eV  130.21 nm  f=0.0031  <S**2>=0.000
       9 -> 14        -0.20534
      10 -> 15        -0.10653
      10 -> 17         0.10697
      12 -> 16        -0.18608
      12 -> 18        -0.16906
      13 -> 18         0.27921
      13 -> 20        -0.17796
      13 -> 21         0.46099

 Excited State  12:      Singlet-A      9.7080 eV  127.71 nm  f=0.0764  <S**2>=0.000
       9 -> 14        -0.17644
      10 -> 15         0.13543
      10 -> 16        -0.10067
      12 -> 15         0.56610
      12 -> 16        -0.20359
      12 -> 17        -0.11831

 Excited State  13:      Singlet-A      9.7565 eV  127.08 nm  f=0.0066  <S**2>=0.000
       9 -> 14         0.61556
      12 -> 14         0.12079
      12 -> 15         0.17378
      13 -> 19         0.10759
      13 -> 20        -0.11135
      13 -> 21         0.14981

 Excited State  14:      Singlet-A      9.8996 eV  125.24 nm  f=0.1013  <S**2>=0.000
      11 -> 16        -0.12357
      13 -> 20         0.63693
      13 -> 21         0.23608

 Excited State  15:      Singlet-A      9.9605 eV  124.48 nm  f=0.1244  <S**2>=0.000
       9 -> 16         0.11639
      10 -> 15        -0.23294
      10 -> 16        -0.22763
      10 -> 17         0.12787
      11 -> 15        -0.14368
      11 -> 16        -0.11082
      12 -> 15         0.20442
      12 -> 16         0.47255
      12 -> 18        -0.12602
      12 -> 19         0.14195

 The electronic state is 1-A.
 Alpha  occ. eigenvalues --   -1.75633  -1.15518  -0.97196  -0.81631  -0.77272
 Alpha  occ. eigenvalues --   -0.68043  -0.65305  -0.57209  -0.50200  -0.45281
 Alpha  occ. eigenvalues --   -0.44839  -0.41623  -0.30403
 Alpha virt. eigenvalues --    0.09999   0.17899   0.18487   0.24645   0.26010
 Alpha virt. eigenvalues --    0.27868   0.29608   0.30504   0.40803   0.49262
 Alpha virt. eigenvalues --    0.55176

 Mulliken charges:
               1
     1  C   -0.066587
     2  C   -1.949438
     3  O    3.239687
     4  C   -1.944084
     5  C   -0.068027
     6  H    0.128096
     7  H    0.273016
     8  H    0.259290
     9  H    0.128047
 Sum of Mulliken charges =   0.00000

 Dipole moment (field-independent basis, Debye):
    X=              1.5437    Y=             -9.4390    Z=              0.7551  Tot=              9.5942
 N-N= 1.040759542829D+02 E-N=-1.690532390194D+02  KE=-1.507145225144D+01
 Orbital energies and kinetic energies (alpha):
                                 1                 2
   1         O                -1.756330         -1.260857
   2         O                -1.155181         -0.999911
   3         O                -0.971957         -0.861676
   4         O                -0.816311         -0.626954
   5         O                -0.772717         -0.696747
   6         O                -0.680425         -0.576298
   7         O                -0.653050         -0.525096

 Normal termination of Gaussian 09 at Tue Dec 15 17:06:21 2015.
