 Gaussian 09, Revision D.01,
 Gaussian 09:  ES64L-G09RevD.01 24-Apr-2013

 ------------------------------------------------------------
 #P AM1(Input,print) CIS(Singlets,NStates=15) pop(full) force
 ------------------------------------------------------------

 -----------------
 AM1-Reparam Input
 -----------------
 Symbolic Z-matrix:
 Charge =  0 Multiplicity = 1

                         Standard orientation:
 ---------------------------------------------------------------------
 Center     Atomic      Atomic             Coordinates (Angstroms)
 Number     Number       Type             X           Y           Z
 ---------------------------------------------------------------------
      1          6           0       -0.539353    1.061019   -0.012649
      2          6           0       -1.170045   -0.182549    0.028961
      3          8           0       -0.201308   -1.090727   -0.017120
      4          6           0        1.014732   -0.522020   -0.001889
      5          6           0        0.911592    0.780923   -0.009582
      6          1           0        1.622497    1.557458    0.076031
      7          1           0        1.845513   -1.197540    0.044122
      8          1           0       -2.155868   -0.461706    0.015911
      9          1           0       -1.003236    2.003364   -0.028147
 ---------------------------------------------------------------------

 SCF Done:  E(RAM1) =  -3.66115987338     A.U. after   14 cycles

 Excitation energies and oscillator strengths:

 Excited State   1:      Singlet-A      6.5185 eV  190.20 nm  f=0.2455  <S**2>=0.000
      12 -> 14        -0.18867
      13 -> 14         0.65829
 This state for optimization and/or second-order correction.
 Total Energy, E(CIS) =  -3.42160769239
 Copying the excited state density for this state as the 1-particle RhoCI density.

 Excited State   2:      Singlet-A      6.6639 eV  186.05 nm  f=0.0284  <S**2>=0.000
      11 -> 14        -0.23891
      12 -> 14         0.62696
      13 -> 14         0.19950

 Excited State   3:      Singlet-A      7.9570 eV  155.82 nm  f=0.0024  <S**2>=0.000
      13 -> 15         0.67648
      13 -> 16         0.14356

 Excited State   4:      Singlet-A      8.1716 eV  151.73 nm  f=0.0096  <S**2>=0.000
       9 -> 14         0.17369
      13 -> 15        -0.14189
      13 -> 16         0.65915

 Excited State   5:      Singlet-A      8.3848 eV  147.87 nm  f=0.0035  <S**2>=0.000
       9 -> 14        -0.34215
      11 -> 14         0.55120
      12 -> 14         0.21663
      13 -> 16         0.12328

 Excited State   6:      Singlet-A      8.5419 eV  145.15 nm  f=0.0013  <S**2>=0.000
       8 -> 14        -0.13623
       9 -> 14         0.53971
      10 -> 14        -0.20606
      11 -> 14         0.31716
      12 -> 14         0.14402
      13 -> 16        -0.14014

 Excited State   7:      Singlet-A      9.4018 eV  131.87 nm  f=0.0350  <S**2>=0.000
       9 -> 14         0.17375
      10 -> 14         0.61463
      11 -> 14         0.12571
      12 -> 16        -0.18344
      13 -> 18         0.15089

 Excited State   8:      Singlet-A      9.8950 eV  125.30 nm  f=0.0518  <S**2>=0.000
      11 -> 15        -0.17345
      12 -> 15         0.64989

 Excited State   9:      Singlet-A     10.0960 eV  122.81 nm  f=0.0826  <S**2>=0.000
       8 -> 14         0.47839
       9 -> 14         0.12112
       9 -> 15         0.10009
      12 -> 16         0.44292
      13 -> 18         0.12415

 Excited State  10:      Singlet-A     10.1504 eV  122.15 nm  f=0.0966  <S**2>=0.000
       8 -> 14         0.45931
       9 -> 15        -0.11125
      10 -> 14        -0.10760
      11 -> 16         0.11902
      12 -> 16        -0.39548
      13 -> 17         0.13498
      13 -> 18        -0.20541

 Excited State  11:      Singlet-A     10.2038 eV  121.51 nm  f=0.0026  <S**2>=0.000
       8 -> 14        -0.12949
      13 -> 17         0.67819

 Excited State  12:      Singlet-A     11.0395 eV  112.31 nm  f=0.0130  <S**2>=0.000
      10 -> 15         0.41630
      11 -> 15         0.30578
      13 -> 18         0.12164
      13 -> 19         0.43407

 Excited State  13:      Singlet-A     11.1298 eV  111.40 nm  f=0.1801  <S**2>=0.000
       9 -> 15        -0.17161
      10 -> 14        -0.13058
      11 -> 16         0.23963
      12 -> 16        -0.10407
      13 -> 18         0.56913
      13 -> 19        -0.17575

 Excited State  14:      Singlet-A     11.3618 eV  109.12 nm  f=0.0704  <S**2>=0.000
      10 -> 16         0.48795
      11 -> 16         0.34334
      13 -> 18        -0.20144
      13 -> 19        -0.20147

 Excited State  15:      Singlet-A     11.6721 eV  106.22 nm  f=0.0723  <S**2>=0.000
       9 -> 16         0.10835
      10 -> 15         0.16560
      10 -> 16        -0.21356
      11 -> 15         0.39253
      11 -> 16        -0.13152
      12 -> 17        -0.19605
      13 -> 19        -0.38520

 The electronic state is 1-A.
 Alpha  occ. eigenvalues --   -3.19132  -1.30422  -1.03759  -0.98328  -0.96614
 Alpha  occ. eigenvalues --   -0.87530  -0.80448  -0.63992  -0.59753  -0.58737
 Alpha  occ. eigenvalues --   -0.57316  -0.51190  -0.45922
 Alpha virt. eigenvalues --   -0.02505   0.07107   0.07992   0.15742   0.17208
 Alpha virt. eigenvalues --    0.20195   0.23716   0.29728   0.40603   0.42609
 Alpha virt. eigenvalues --    0.45127

 Mulliken charges:
               1
     1  C   -0.342393
     2  C   -1.028936
     3  O    2.506735
     4  C   -1.004530
     5  C   -0.313030
     6  H    0.097461
     7  H   -0.002040
     8  H   -0.006915
     9  H    0.093648
 Sum of Mulliken charges =   0.00000

 Dipole moment (field-independent basis, Debye):
    X=             -1.3818    Y=             -9.3457    Z=             -0.2404  Tot=              9.4503
 N-N= 1.021473527146D+02 E-N=-1.653598479249D+02  KE=-2.119430782062D+01
 Orbital energies and kinetic energies (alpha):
                                 1                 2
   1         O                -3.191320         -2.411058
   2         O                -1.304222         -1.119304
   3         O                -1.037592         -0.910741
   4         O                -0.983278         -0.870938
   5         O                -0.966135         -0.894367
   6         O                -0.875304         -0.831331
   7         O                -0.804480         -0.638427

 Normal termination of Gaussian 09 at Fri Dec 11 13:41:36 2015.
