 Gaussian 09, Revision D.01,
 Gaussian 09:  ES64L-G09RevD.01 24-Apr-2013

 ------------------------------------------------------------
 #P AM1(Input,print) CIS(Singlets,NStates=15) pop(full) force
 ------------------------------------------------------------

 -----------------
 AM1-Reparam Input
 -----------------
 Symbolic Z-matrix:
 Charge =  0 Multiplicity = 1

                         Standard orientation:
 ---------------------------------------------------------------------
 Center     Atomic      Atomic             Coordinates (Angstroms)
 Number     Number       Type             X           Y           Z
 ---------------------------------------------------------------------
      1          6           0        0.784739    0.890012    0.024979
      2          6           0        1.094651   -0.427110   -0.003319
      3          8           0       -0.098608   -1.146301   -0.008261
      4          6           0       -1.154740   -0.277523    0.017410
      5          6           0       -0.611548    1.025134   -0.026362
      6          1           0       -1.258019    1.925486   -0.014861
      7          1           0       -2.069470   -0.704131    0.026416
      8          1           0        1.965159   -1.006822   -0.021285
      9          1           0        1.472580    1.692791   -0.000433
 ---------------------------------------------------------------------

 SCF Done:  E(RAM1) =   1.38886005981     A.U. after   13 cycles

 Excitation energies and oscillator strengths:

 Excited State   1:      Singlet-A      6.1107 eV  202.90 nm  f=0.3058  <S**2>=0.000
      13 -> 14         0.69233
 This state for optimization and/or second-order correction.
 Total Energy, E(CIS) =   1.61342363008
 Copying the excited state density for this state as the 1-particle RhoCI density.

 Excited State   2:      Singlet-A      6.6364 eV  186.82 nm  f=0.0010  <S**2>=0.000
      12 -> 16        -0.12027
      13 -> 15         0.63737
      13 -> 17         0.24525

 Excited State   3:      Singlet-A      7.0491 eV  175.89 nm  f=0.0003  <S**2>=0.000
      12 -> 15        -0.18167
      13 -> 16         0.62882
      13 -> 21        -0.12994
      13 -> 22        -0.14683

 Excited State   4:      Singlet-A      7.6443 eV  162.19 nm  f=0.0011  <S**2>=0.000
       9 -> 14         0.11117
      11 -> 14         0.65941
      12 -> 14         0.17369
      13 -> 22        -0.10739

 Excited State   5:      Singlet-A      7.8317 eV  158.31 nm  f=0.0106  <S**2>=0.000
      10 -> 14         0.14439
      12 -> 16         0.12896
      13 -> 15        -0.20809
      13 -> 17         0.62960

 Excited State   6:      Singlet-A      8.1891 eV  151.40 nm  f=0.0001  <S**2>=0.000
      10 -> 14        -0.16962
      12 -> 15        -0.15541
      13 -> 19        -0.35818
      13 -> 20        -0.20028
      13 -> 21        -0.11916
      13 -> 22         0.49225

 Excited State   7:      Singlet-A      8.2581 eV  150.14 nm  f=0.0020  <S**2>=0.000
      10 -> 14         0.65635
      13 -> 17        -0.14260
      13 -> 19        -0.11270
      13 -> 22         0.10648

 Excited State   8:      Singlet-A      8.3895 eV  147.79 nm  f=0.0145  <S**2>=0.000
      11 -> 14        -0.15836
      12 -> 14         0.53994
      13 -> 18         0.40017

 Excited State   9:      Singlet-A      8.8516 eV  140.07 nm  f=0.0057  <S**2>=0.000
      12 -> 15        -0.14622
      13 -> 19         0.56812
      13 -> 22         0.34597

 Excited State  10:      Singlet-A      8.9178 eV  139.03 nm  f=0.0023  <S**2>=0.000
      12 -> 15        -0.20084
      13 -> 16         0.10574
      13 -> 20         0.35528
      13 -> 21         0.53235
      13 -> 22         0.10771

 Excited State  11:      Singlet-A      9.2129 eV  134.58 nm  f=0.2039  <S**2>=0.000
      12 -> 14        -0.37723
      13 -> 18         0.53677
      13 -> 21        -0.12370

 Excited State  12:      Singlet-A      9.2292 eV  134.34 nm  f=0.0625  <S**2>=0.000
      12 -> 15        -0.11414
      12 -> 16        -0.28280
      13 -> 18        -0.12288
      13 -> 20         0.45293
      13 -> 21        -0.37001
      13 -> 23        -0.10841

 Excited State  13:      Singlet-A      9.4325 eV  131.44 nm  f=0.0053  <S**2>=0.000
      12 -> 15         0.53228
      12 -> 17         0.14730
      12 -> 20        -0.12269
      13 -> 16         0.22837
      13 -> 20         0.18873
      13 -> 22         0.25741

 Excited State  14:      Singlet-A      9.9111 eV  125.10 nm  f=0.0167  <S**2>=0.000
       8 -> 15         0.10430
      10 -> 15        -0.13997
      10 -> 17        -0.21591
      11 -> 19         0.14822
      12 -> 15        -0.12745
      12 -> 16         0.46987
      13 -> 15         0.15173
      13 -> 20         0.21751
      13 -> 21        -0.11706
      13 -> 23         0.11353

 Excited State  15:      Singlet-A      9.9413 eV  124.72 nm  f=0.0591  <S**2>=0.000
       8 -> 15        -0.10535
      10 -> 15         0.22081
      10 -> 17         0.36207
      11 -> 16        -0.18529
      11 -> 19        -0.25533
      12 -> 16         0.29068
      13 -> 20         0.10673
      13 -> 23         0.11873

 The electronic state is 1-A.
 Alpha  occ. eigenvalues --   -1.88594  -1.18384  -0.96214  -0.78668  -0.78439
 Alpha  occ. eigenvalues --   -0.67605  -0.61261  -0.51227  -0.48616  -0.40231
 Alpha  occ. eigenvalues --   -0.38851  -0.37024  -0.25788
 Alpha virt. eigenvalues --    0.17212   0.22406   0.23724   0.27704   0.29137
 Alpha virt. eigenvalues --    0.30356   0.32518   0.33371   0.34979   0.39471
 Alpha virt. eigenvalues --    0.45170

 Mulliken charges:
               1
     1  C   -0.032004
     2  C   -1.552518
     3  O    2.797685
     4  C   -1.574580
     5  C   -0.086609
     6  H    0.070587
     7  H    0.157125
     8  H    0.154087
     9  H    0.066227
 Sum of Mulliken charges =   0.00000

 Dipole moment (field-independent basis, Debye):
    X=             -0.6236    Y=             -9.3573    Z=             -0.1847  Tot=              9.3799
 N-N= 1.033800910962D+02 E-N=-1.695087025069D+02  KE=-1.585571093822D+01
 Orbital energies and kinetic energies (alpha):
                                 1                 2
   1         O                -1.885941         -1.369623
   2         O                -1.183842         -1.067371
   3         O                -0.962142         -0.874958
   4         O                -0.786684         -0.643437
   5         O                -0.784386         -0.711617
   6         O                -0.676054         -0.625622
   7         O                -0.612610         -0.537961

 Normal termination of Gaussian 09 at Tue Dec 15 17:08:00 2015.
