 Gaussian 09, Revision D.01,
 Gaussian 09:  ES64L-G09RevD.01 24-Apr-2013

 ------------------------------------------------------------
 #P AM1(Input,print) CIS(Singlets,NStates=15) pop(full) force
 ------------------------------------------------------------

 -----------------
 AM1-Reparam Input
 -----------------
 Symbolic Z-matrix:
 Charge =  0 Multiplicity = 1

                         Standard orientation:
 ---------------------------------------------------------------------
 Center     Atomic      Atomic             Coordinates (Angstroms)
 Number     Number       Type             X           Y           Z
 ---------------------------------------------------------------------
      1          6           0        0.793690    0.909031   -0.010062
      2          6           0        1.055359   -0.510029    0.011774
      3          8           0       -0.149891   -1.129275   -0.013064
      4          6           0       -1.121935   -0.230682   -0.006400
      5          6           0       -0.571771    1.008855    0.009104
      6          1           0       -1.136870    2.020088    0.001615
      7          1           0       -2.183792   -0.585309    0.049894
      8          1           0        1.969325   -1.125736    0.039170
      9          1           0        1.618412    1.662100   -0.012663
 ---------------------------------------------------------------------

 SCF Done:  E(RAM1) =   1.78527922347     A.U. after   13 cycles

 Excitation energies and oscillator strengths:

 Excited State   1:      Singlet-A      6.0167 eV  206.07 nm  f=0.2929  <S**2>=0.000
      11 -> 17         0.10726
      13 -> 14         0.68232
 This state for optimization and/or second-order correction.
 Total Energy, E(CIS) =   2.00639050241
 Copying the excited state density for this state as the 1-particle RhoCI density.

 Excited State   2:      Singlet-A      6.8336 eV  181.43 nm  f=0.0042  <S**2>=0.000
      10 -> 15         0.12825
      13 -> 15         0.61644
      13 -> 16         0.21265
      13 -> 17        -0.17676

 Excited State   3:      Singlet-A      6.9960 eV  177.22 nm  f=0.0009  <S**2>=0.000
      12 -> 14         0.68923
      13 -> 15         0.10099

 Excited State   4:      Singlet-A      7.1351 eV  173.77 nm  f=0.0015  <S**2>=0.000
      10 -> 16        -0.12223
      13 -> 15        -0.21715
      13 -> 16         0.60772
      13 -> 17        -0.13342
      13 -> 19         0.16108

 Excited State   5:      Singlet-A      7.6814 eV  161.41 nm  f=0.0039  <S**2>=0.000
      11 -> 14         0.69370

 Excited State   6:      Singlet-A      8.3738 eV  148.06 nm  f=0.0053  <S**2>=0.000
      10 -> 16        -0.18336
      13 -> 16         0.13719
      13 -> 17         0.62653
      13 -> 18        -0.14337
      13 -> 21         0.11456

 Excited State   7:      Singlet-A      8.6137 eV  143.94 nm  f=0.0063  <S**2>=0.000
      10 -> 15         0.12930
      13 -> 17         0.15647
      13 -> 18         0.60900
      13 -> 21        -0.26630

 Excited State   8:      Singlet-A      8.9182 eV  139.02 nm  f=0.0318  <S**2>=0.000
      10 -> 14         0.58974
      11 -> 15         0.12196
      12 -> 15         0.16502
      12 -> 16        -0.10344
      12 -> 17         0.17332
      12 -> 18        -0.13146

 Excited State   9:      Singlet-A      9.0846 eV  136.48 nm  f=0.1314  <S**2>=0.000
       9 -> 15        -0.11096
      10 -> 14         0.28502
      11 -> 15        -0.26706
      11 -> 16        -0.13412
      11 -> 17         0.21948
      11 -> 18         0.16637
      12 -> 15         0.11034
      12 -> 16         0.28461
      12 -> 17        -0.19499
      12 -> 18         0.18140
      13 -> 14        -0.13145

 Excited State  10:      Singlet-A      9.2519 eV  134.01 nm  f=0.0014  <S**2>=0.000
      10 -> 15         0.11824
      10 -> 16         0.15775
      13 -> 18        -0.13163
      13 -> 19         0.63346
      13 -> 20        -0.10331

 Excited State  11:      Singlet-A      9.3132 eV  133.13 nm  f=0.0915  <S**2>=0.000
      10 -> 14        -0.19477
      12 -> 15         0.62106
      12 -> 18        -0.12272

 Excited State  12:      Singlet-A      9.7563 eV  127.08 nm  f=0.0297  <S**2>=0.000
      10 -> 15        -0.31184
      10 -> 16        -0.12479
      11 -> 16        -0.31204
      11 -> 19        -0.12165
      12 -> 16        -0.11284
      12 -> 17         0.12155
      13 -> 15         0.10002
      13 -> 18         0.19942
      13 -> 19         0.16609
      13 -> 21         0.34097

 Excited State  13:      Singlet-A      9.7836 eV  126.73 nm  f=0.0341  <S**2>=0.000
       9 -> 16        -0.11450
      10 -> 15        -0.21120
      10 -> 16        -0.10660
      11 -> 16         0.43260
      11 -> 19         0.19615
      12 -> 17        -0.22274
      13 -> 18         0.13649
      13 -> 21         0.23177

 Excited State  14:      Singlet-A      9.9134 eV  125.07 nm  f=0.1642  <S**2>=0.000
       8 -> 16        -0.16685
      10 -> 14        -0.11394
      11 -> 16         0.13281
      11 -> 18         0.13650
      12 -> 16         0.42140
      12 -> 17         0.18999
      12 -> 18        -0.20219
      12 -> 19         0.21141
      12 -> 20         0.12117
      13 -> 21         0.19026

 Excited State  15:      Singlet-A      9.9371 eV  124.77 nm  f=0.0640  <S**2>=0.000
      10 -> 15        -0.36512
      10 -> 16         0.11139
      12 -> 16         0.13020
      13 -> 20         0.44113
      13 -> 21        -0.28571

 The electronic state is 1-A.
 Alpha  occ. eigenvalues --   -1.94656  -1.21381  -0.96643  -0.80596  -0.79734
 Alpha  occ. eigenvalues --   -0.69299  -0.65801  -0.53038  -0.49627  -0.41963
 Alpha  occ. eigenvalues --   -0.40894  -0.38917  -0.29959
 Alpha virt. eigenvalues --    0.13878   0.17986   0.19803   0.24628   0.26808
 Alpha virt. eigenvalues --    0.29491   0.30790   0.34352   0.38117   0.46330
 Alpha virt. eigenvalues --    0.52001

 Mulliken charges:
               1
     1  C   -0.087978
     2  C   -1.978549
     3  O    3.147819
     4  C   -1.958813
     5  C   -0.066525
     6  H    0.151285
     7  H    0.322342
     8  H    0.311410
     9  H    0.159010
 Sum of Mulliken charges =   0.00000

 Dipole moment (field-independent basis, Debye):
    X=             -1.7335    Y=             -9.2776    Z=             -0.0548  Tot=              9.4383
 N-N= 1.039649042917D+02 E-N=-1.694788085919D+02  KE=-1.563025759419D+01
 Orbital energies and kinetic energies (alpha):
                                 1                 2
   1         O                -1.946561         -1.432576
   2         O                -1.213814         -1.074388
   3         O                -0.966428         -0.884446
   4         O                -0.805960         -0.613171
   5         O                -0.797340         -0.691671
   6         O                -0.692986         -0.574515
   7         O                -0.658011         -0.587037

 Normal termination of Gaussian 09 at Tue Dec 15 17:09:53 2015.
