 Gaussian 09, Revision D.01,
 Gaussian 09:  ES64L-G09RevD.01 24-Apr-2013

 ------------------------------------------------------------
 #P AM1(Input,print) CIS(Singlets,NStates=15) pop(full) force
 ------------------------------------------------------------

 -----------------
 AM1-Reparam Input
 -----------------
 Symbolic Z-matrix:
 Charge =  0 Multiplicity = 1

                         Standard orientation:
 ---------------------------------------------------------------------
 Center     Atomic      Atomic             Coordinates (Angstroms)
 Number     Number       Type             X           Y           Z
 ---------------------------------------------------------------------
      1          6           0       -0.357273    1.107183    0.008426
      2          6           0       -1.134583   -0.015534   -0.019840
      3          8           0       -0.369875   -1.079863    0.012951
      4          6           0        0.918742   -0.623146   -0.030174
      5          6           0        0.961139    0.656778    0.000726
      6          1           0        1.851394    1.255369    0.024804
      7          1           0        1.690044   -1.408432    0.072972
      8          1           0       -2.200424   -0.150930    0.036690
      9          1           0       -0.710163    2.191213    0.007102
 ---------------------------------------------------------------------

 SCF Done:  E(RAM1) =   1.76904296519     A.U. after   14 cycles

 Excitation energies and oscillator strengths:

 Excited State   1:      Singlet-A      5.5490 eV  223.43 nm  f=0.3422  <S**2>=0.000
      13 -> 14         0.69227
 This state for optimization and/or second-order correction.
 Total Energy, E(CIS) =   1.97296631441
 Copying the excited state density for this state as the 1-particle RhoCI density.

 Excited State   2:      Singlet-A      7.0756 eV  175.23 nm  f=0.0001  <S**2>=0.000
      10 -> 16         0.10124
      13 -> 15         0.66758
      13 -> 19         0.13331

 Excited State   3:      Singlet-A      7.0983 eV  174.67 nm  f=0.0033  <S**2>=0.000
      12 -> 14         0.20443
      13 -> 16         0.64037
      13 -> 17        -0.14876

 Excited State   4:      Singlet-A      7.1050 eV  174.50 nm  f=0.0004  <S**2>=0.000
      12 -> 14         0.66824
      13 -> 16        -0.18742

 Excited State   5:      Singlet-A      7.9048 eV  156.85 nm  f=0.0064  <S**2>=0.000
      11 -> 14         0.70042

 Excited State   6:      Singlet-A      8.8309 eV  140.40 nm  f=0.0006  <S**2>=0.000
      13 -> 17         0.30594
      13 -> 18         0.56453
      13 -> 20         0.11321
      13 -> 22        -0.21778

 Excited State   7:      Singlet-A      9.0772 eV  136.59 nm  f=0.0075  <S**2>=0.000
      13 -> 16         0.14501
      13 -> 17         0.60708
      13 -> 18        -0.28193

 Excited State   8:      Singlet-A      9.5011 eV  130.49 nm  f=0.0395  <S**2>=0.000
       8 -> 15        -0.11490
      10 -> 14         0.53824
      11 -> 17        -0.11533
      12 -> 15         0.30814
      12 -> 18        -0.15360

 Excited State   9:      Singlet-A      9.7318 eV  127.40 nm  f=0.0009  <S**2>=0.000
      13 -> 18         0.16460
      13 -> 19         0.66471

 Excited State  10:      Singlet-A      9.8134 eV  126.34 nm  f=0.0389  <S**2>=0.000
       8 -> 16        -0.12501
      10 -> 14        -0.36491
      11 -> 17        -0.18181
      12 -> 15         0.40871
      12 -> 16        -0.18057
      12 -> 18        -0.24046

 Excited State  11:      Singlet-A     10.1740 eV  121.86 nm  f=0.1750  <S**2>=0.000
      10 -> 14        -0.12079
      11 -> 15        -0.25345
      11 -> 16        -0.23192
      11 -> 17         0.17554
      12 -> 15         0.35845
      12 -> 16         0.36063
      12 -> 18         0.20087

 Excited State  12:      Singlet-A     10.2600 eV  120.84 nm  f=0.1408  <S**2>=0.000
      10 -> 14        -0.11714
      11 -> 15        -0.12961
      11 -> 16         0.35420
      11 -> 17        -0.17540
      12 -> 15        -0.17337
      12 -> 16         0.44810
      12 -> 17        -0.16997

 Excited State  13:      Singlet-A     10.5101 eV  117.97 nm  f=0.0695  <S**2>=0.000
      13 -> 18        -0.18887
      13 -> 19         0.12826
      13 -> 20         0.58018
      13 -> 22        -0.29698

 Excited State  14:      Singlet-A     10.7819 eV  114.99 nm  f=0.0650  <S**2>=0.000
       8 -> 15        -0.20597
       9 -> 16         0.16214
      10 -> 14        -0.17004
      11 -> 15         0.43203
      11 -> 18         0.12106
      11 -> 19         0.24791
      12 -> 16         0.20053
      12 -> 17         0.22247

 Excited State  15:      Singlet-A     10.9712 eV  113.01 nm  f=0.0375  <S**2>=0.000
      10 -> 16        -0.20143
      13 -> 18         0.15635
      13 -> 20         0.31924
      13 -> 22         0.54366

 The electronic state is 1-A.
 Alpha  occ. eigenvalues --   -1.92600  -1.19915  -0.93317  -0.82318  -0.78453
 Alpha  occ. eigenvalues --   -0.70421  -0.68683  -0.56226  -0.54810  -0.47211
 Alpha  occ. eigenvalues --   -0.43606  -0.41200  -0.30139
 Alpha virt. eigenvalues --    0.11825   0.18574   0.18784   0.27121   0.28430
 Alpha virt. eigenvalues --    0.30744   0.33024   0.35510   0.36732   0.44240
 Alpha virt. eigenvalues --    0.47839

 Mulliken charges:
               1
     1  C   -0.224511
     2  C   -2.039136
     3  O    3.290432
     4  C   -1.993713
     5  C   -0.122315
     6  H    0.202598
     7  H    0.332289
     8  H    0.342866
     9  H    0.211489
 Sum of Mulliken charges =   0.00000

 Dipole moment (field-independent basis, Debye):
    X=             -3.1541    Y=            -10.1204    Z=              0.8620  Tot=             10.6355
 N-N= 1.047170097015D+02 E-N=-1.707516167740D+02  KE=-1.556633152043D+01
 Orbital energies and kinetic energies (alpha):
                                 1                 2
   1         O                -1.926002         -1.404452
   2         O                -1.199147         -1.068257
   3         O                -0.933175         -0.895116
   4         O                -0.823176         -0.564639
   5         O                -0.784531         -0.695824
   6         O                -0.704208         -0.573648
   7         O                -0.686829         -0.559861

 Normal termination of Gaussian 09 at Tue Dec 15 17:09:49 2015.
