 Gaussian 09, Revision D.01,
 Gaussian 09:  ES64L-G09RevD.01 24-Apr-2013

 ------------------------------------------------------------
 #P AM1(Input,print) CIS(Singlets,NStates=15) pop(full) force
 ------------------------------------------------------------

 -----------------
 AM1-Reparam Input
 -----------------
 Symbolic Z-matrix:
 Charge =  0 Multiplicity = 1

                         Standard orientation:
 ---------------------------------------------------------------------
 Center     Atomic      Atomic             Coordinates (Angstroms)
 Number     Number       Type             X           Y           Z
 ---------------------------------------------------------------------
      1          6           0        0.222048    1.174549   -0.022903
      2          6           0        1.125406    0.115966    0.022755
      3          8           0        0.481424   -1.064922   -0.017949
      4          6           0       -0.810911   -0.774028    0.015656
      5          6           0       -1.055215    0.593731   -0.003601
      6          1           0       -1.979509    1.086894    0.028569
      7          1           0       -1.545866   -1.581484    0.001573
      8          1           0        2.236428    0.095079    0.020905
      9          1           0        0.549588    2.257576    0.021105
 ---------------------------------------------------------------------

 SCF Done:  E(RAM1) =   1.35790232085     A.U. after   13 cycles

 Excitation energies and oscillator strengths:

 Excited State   1:      Singlet-A      6.2741 eV  197.61 nm  f=0.3086  <S**2>=0.000
      13 -> 14         0.69277
 This state for optimization and/or second-order correction.
 Total Energy, E(CIS) =   1.58847181810
 Copying the excited state density for this state as the 1-particle RhoCI density.

 Excited State   2:      Singlet-A      6.5230 eV  190.07 nm  f=0.0007  <S**2>=0.000
      12 -> 16        -0.14037
      13 -> 15         0.65254
      13 -> 17        -0.19559

 Excited State   3:      Singlet-A      6.8615 eV  180.69 nm  f=0.0002  <S**2>=0.000
      12 -> 15        -0.20742
      13 -> 16         0.64522
      13 -> 21        -0.12045

 Excited State   4:      Singlet-A      7.7043 eV  160.93 nm  f=0.0015  <S**2>=0.000
      10 -> 14         0.10657
      11 -> 14         0.67346

 Excited State   5:      Singlet-A      7.8850 eV  157.24 nm  f=0.0114  <S**2>=0.000
      10 -> 14        -0.15969
      12 -> 16        -0.14284
      13 -> 15         0.17012
      13 -> 17         0.63829

 Excited State   6:      Singlet-A      8.2876 eV  149.60 nm  f=0.0055  <S**2>=0.000
      10 -> 14         0.63782
      11 -> 14        -0.13876
      12 -> 14         0.20924
      13 -> 17         0.13778

 Excited State   7:      Singlet-A      8.3553 eV  148.39 nm  f=0.0000  <S**2>=0.000
      12 -> 15        -0.28720
      13 -> 18         0.37797
      13 -> 20         0.12423
      13 -> 22         0.48668

 Excited State   8:      Singlet-A      8.4491 eV  146.74 nm  f=0.0739  <S**2>=0.000
      10 -> 14        -0.21629
      12 -> 14         0.63616
      13 -> 19        -0.18542

 Excited State   9:      Singlet-A      8.7712 eV  141.35 nm  f=0.0037  <S**2>=0.000
      12 -> 15         0.41080
      13 -> 16         0.11520
      13 -> 18         0.44787
      13 -> 20        -0.18860
      13 -> 21        -0.21581

 Excited State  10:      Singlet-A      9.0534 eV  136.95 nm  f=0.0014  <S**2>=0.000
      12 -> 15         0.24626
      13 -> 18        -0.35402
      13 -> 21        -0.28067
      13 -> 22         0.45902

 Excited State  11:      Singlet-A      9.0743 eV  136.63 nm  f=0.0019  <S**2>=0.000
      12 -> 15         0.31908
      12 -> 17        -0.10393
      13 -> 16         0.23971
      13 -> 20         0.36047
      13 -> 21         0.41160

 Excited State  12:      Singlet-A      9.2195 eV  134.48 nm  f=0.0359  <S**2>=0.000
      12 -> 16         0.56873
      13 -> 15         0.13539
      13 -> 19        -0.11689
      13 -> 20         0.21504
      13 -> 21        -0.22112

 Excited State  13:      Singlet-A      9.5911 eV  129.27 nm  f=0.0492  <S**2>=0.000
      12 -> 16        -0.30075
      13 -> 15        -0.14085
      13 -> 19        -0.28507
      13 -> 20         0.40693
      13 -> 21        -0.32915
      13 -> 22        -0.11570

 Excited State  14:      Singlet-A      9.7119 eV  127.66 nm  f=0.0199  <S**2>=0.000
       8 -> 15        -0.22794
       9 -> 15        -0.13572
       9 -> 16         0.12480
      10 -> 15         0.32171
      10 -> 17        -0.26959
      10 -> 18        -0.10741
      11 -> 15        -0.18398
      11 -> 16         0.29839
      11 -> 17         0.16052
      11 -> 18        -0.13412

 Excited State  15:      Singlet-A      9.8592 eV  125.75 nm  f=0.2233  <S**2>=0.000
       8 -> 16        -0.12339
       9 -> 15         0.10002
      10 -> 15         0.10284
      10 -> 16         0.14862
      11 -> 15         0.20438
      12 -> 14         0.18252
      13 -> 19         0.48725
      13 -> 20         0.23541
      13 -> 21        -0.13269

 The electronic state is 1-A.
 Alpha  occ. eigenvalues --   -1.89873  -1.18751  -0.94402  -0.78848  -0.76892
 Alpha  occ. eigenvalues --   -0.67162  -0.62177  -0.49453  -0.47773  -0.40352
 Alpha  occ. eigenvalues --   -0.38831  -0.36325  -0.26106
 Alpha virt. eigenvalues --    0.17595   0.20974   0.22233   0.27957   0.30450
 Alpha virt. eigenvalues --    0.32020   0.32916   0.33701   0.35800   0.42261
 Alpha virt. eigenvalues --    0.47556

 Mulliken charges:
               1
     1  C   -0.033583
     2  C   -1.581916
     3  O    2.792754
     4  C   -1.592950
     5  C   -0.045417
     6  H    0.063162
     7  H    0.175045
     8  H    0.163574
     9  H    0.059330
 Sum of Mulliken charges =   0.00000

 Dipole moment (field-independent basis, Debye):
    X=              3.7115    Y=             -8.4869    Z=             -0.4309  Tot=              9.2730
 N-N= 1.035867822827D+02 E-N=-1.700491888244D+02  KE=-1.586965581363D+01
 Orbital energies and kinetic energies (alpha):
                                 1                 2
   1         O                -1.898734         -1.400118
   2         O                -1.187510         -1.079117
   3         O                -0.944020         -0.863772
   4         O                -0.788477         -0.633653
   5         O                -0.768921         -0.688516
   6         O                -0.671623         -0.627919
   7         O                -0.621773         -0.543847

 Normal termination of Gaussian 09 at Tue Dec 15 17:08:06 2015.
