 Gaussian 09, Revision D.01,
 Gaussian 09:  ES64L-G09RevD.01 24-Apr-2013

 ------------------------------------------------------------
 #P AM1(Input,print) CIS(Singlets,NStates=15) pop(full) force
 ------------------------------------------------------------

 -----------------
 AM1-Reparam Input
 -----------------
 Symbolic Z-matrix:
 Charge =  0 Multiplicity = 1

                         Standard orientation:
 ---------------------------------------------------------------------
 Center     Atomic      Atomic             Coordinates (Angstroms)
 Number     Number       Type             X           Y           Z
 ---------------------------------------------------------------------
      1          6           0        1.167013   -0.258812   -0.004737
      2          6           0        0.108758   -1.117973   -0.004070
      3          8           0       -1.113809   -0.441459    0.003735
      4          6           0       -0.706110    0.856629    0.002176
      5          6           0        0.623408    0.998950   -0.000937
      6          1           0        1.147896    1.909734    0.006692
      7          1           0       -1.591595    1.537298   -0.015170
      8          1           0       -0.026602   -2.201753    0.001494
      9          1           0        2.222362   -0.586368    0.022516
 ---------------------------------------------------------------------

 SCF Done:  E(RAM1) =  0.225673632814E-01 A.U. after   13 cycles

 Excitation energies and oscillator strengths:

 Excited State   1:      Singlet-A      4.2986 eV  288.43 nm  f=0.1013  <S**2>=0.000
      12 -> 15         0.15921
      13 -> 14         0.68105
 This state for optimization and/or second-order correction.
 Total Energy, E(CIS) =  0.180538154662
 Copying the excited state density for this state as the 1-particle RhoCI density.

 Excited State   2:      Singlet-A      5.0839 eV  243.88 nm  f=0.0080  <S**2>=0.000
      12 -> 14        -0.29424
      13 -> 15         0.45402
      13 -> 16         0.43419

 Excited State   3:      Singlet-A      5.1082 eV  242.71 nm  f=0.0054  <S**2>=0.000
      12 -> 14         0.25566
      13 -> 15        -0.37110
      13 -> 16         0.52254

 Excited State   4:      Singlet-A      5.8920 eV  210.43 nm  f=0.0037  <S**2>=0.000
      12 -> 19        -0.12122
      12 -> 21         0.14895
      13 -> 17         0.14425
      13 -> 18         0.47560
      13 -> 19        -0.32897
      13 -> 23        -0.21407
      13 -> 24         0.13534

 Excited State   5:      Singlet-A      5.9799 eV  207.34 nm  f=0.0001  <S**2>=0.000
      12 -> 18         0.15061
      12 -> 24         0.11106
      13 -> 17        -0.21050
      13 -> 18        -0.23256
      13 -> 19        -0.37911
      13 -> 21         0.39037
      13 -> 22         0.14457

 Excited State   6:      Singlet-A      6.3530 eV  195.16 nm  f=0.2118  <S**2>=0.000
      12 -> 14         0.41972
      12 -> 16         0.17431
      13 -> 15         0.28112
      13 -> 17         0.31892
      13 -> 18        -0.19550

 Excited State   7:      Singlet-A      6.3796 eV  194.34 nm  f=0.1589  <S**2>=0.000
      12 -> 14        -0.35618
      12 -> 19        -0.10099
      13 -> 15        -0.24079
      13 -> 17         0.40374
      13 -> 18        -0.26821

 Excited State   8:      Singlet-A      6.3976 eV  193.80 nm  f=0.0057  <S**2>=0.000
       7 -> 16        -0.19502
      12 -> 16         0.60464
      12 -> 20         0.10116
      12 -> 21        -0.10031
      13 -> 17        -0.17686
      13 -> 18         0.14026

 Excited State   9:      Singlet-A      6.7641 eV  183.30 nm  f=0.1232  <S**2>=0.000
      12 -> 15         0.67909
      13 -> 14        -0.14598

 Excited State  10:      Singlet-A      7.0788 eV  175.15 nm  f=0.0001  <S**2>=0.000
      11 -> 14        -0.14817
      12 -> 17        -0.17520
      12 -> 18         0.37068
      13 -> 16         0.11497
      13 -> 17         0.12368
      13 -> 18         0.11662
      13 -> 19         0.31707
      13 -> 20        -0.11941
      13 -> 21         0.34906

 Excited State  11:      Singlet-A      7.1981 eV  172.25 nm  f=0.0002  <S**2>=0.000
       9 -> 15        -0.14502
      10 -> 15        -0.17443
      11 -> 14         0.60207
      11 -> 15         0.10349
      12 -> 18         0.15348
      13 -> 19         0.12881

 Excited State  12:      Singlet-A      7.3879 eV  167.82 nm  f=0.0020  <S**2>=0.000
       9 -> 14         0.44842
      10 -> 14         0.29313
      10 -> 15        -0.10439
      11 -> 15        -0.30730
      12 -> 19        -0.13381
      12 -> 21         0.10300
      13 -> 24         0.18231

 Excited State  13:      Singlet-A      7.4861 eV  165.62 nm  f=0.0004  <S**2>=0.000
      11 -> 14        -0.10688
      12 -> 17         0.15732
      12 -> 18         0.39527
      13 -> 16        -0.10065
      13 -> 20         0.38007
      13 -> 21        -0.27664

 Excited State  14:      Singlet-A      7.5555 eV  164.10 nm  f=0.0009  <S**2>=0.000
       9 -> 14        -0.19322
      10 -> 14        -0.12257
      11 -> 15         0.13882
      12 -> 17        -0.19587
      12 -> 18         0.13010
      12 -> 19        -0.23633
      12 -> 20        -0.20852
      12 -> 21         0.15068
      13 -> 17        -0.25602
      13 -> 18        -0.17259
      13 -> 21        -0.18525
      13 -> 24         0.26967

 Excited State  15:      Singlet-A      7.6878 eV  161.27 nm  f=0.0140  <S**2>=0.000
       9 -> 14        -0.19440
      10 -> 14         0.23514
      13 -> 17         0.13770
      13 -> 20        -0.20298
      13 -> 21        -0.12141
      13 -> 22         0.22023
      13 -> 23         0.49322

 The electronic state is 1-A.
 Alpha  occ. eigenvalues --   -1.56862  -1.25877  -1.08398  -0.82214  -0.81839
 Alpha  occ. eigenvalues --   -0.68135  -0.59943  -0.55003  -0.52113  -0.50454
 Alpha  occ. eigenvalues --   -0.49941  -0.40608  -0.34386
 Alpha virt. eigenvalues --    0.02693   0.06886   0.10561   0.13689   0.14391
 Alpha virt. eigenvalues --    0.14705   0.17693   0.18462   0.18872   0.20767
 Alpha virt. eigenvalues --    0.21903

 Mulliken charges:
               1
     1  C   -0.179908
     2  C   -0.127371
     3  O   -0.079380
     4  C   -0.106469
     5  C   -0.190395
     6  H    0.154196
     7  H    0.182497
     8  H    0.182647
     9  H    0.164182
 Sum of Mulliken charges =   0.00000

 Dipole moment (field-independent basis, Debye):
    X=              0.4032    Y=              0.1209    Z=              0.0182  Tot=              0.4213
 N-N= 1.036273494961D+02 E-N=-1.713313575751D+02  KE=-1.656273905690D+01
 Orbital energies and kinetic energies (alpha):
                                 1                 2
   1         O                -1.568622         -1.323521
   2         O                -1.258766         -1.061992
   3         O                -1.083980         -0.948544
   4         O                -0.822144         -0.724257
   5         O                -0.818394         -0.700700
   6         O                -0.681348         -0.603362
   7         O                -0.599427         -0.486252

 Normal termination of Gaussian 09 at Tue Dec 15 16:12:08 2015.
