 Gaussian 09, Revision D.01,
 Gaussian 09:  ES64L-G09RevD.01 24-Apr-2013

 ------------------------------------------------------------
 #P AM1(Input,print) CIS(Singlets,NStates=15) pop(full) force
 ------------------------------------------------------------

 -----------------
 AM1-Reparam Input
 -----------------
 Symbolic Z-matrix:
 Charge =  0 Multiplicity = 1

                         Standard orientation:
 ---------------------------------------------------------------------
 Center     Atomic      Atomic             Coordinates (Angstroms)
 Number     Number       Type             X           Y           Z
 ---------------------------------------------------------------------
      1          6           0       -0.641123    1.005779   -0.031384
      2          6           0       -1.129898   -0.283423    0.038843
      3          8           0       -0.049575   -1.188788   -0.025569
      4          6           0        1.067270   -0.347998    0.002481
      5          6           0        0.740796    0.891495    0.010900
      6          1           0        1.483228    1.728144    0.013694
      7          1           0        2.054875   -0.910209    0.044960
      8          1           0       -2.029750   -0.737221    0.024056
      9          1           0       -1.334025    1.834473   -0.003191
 ---------------------------------------------------------------------

 SCF Done:  E(RAM1) =   1.76711278131     A.U. after   14 cycles

 Excitation energies and oscillator strengths:

 Excited State   1:      Singlet-A      5.4441 eV  227.74 nm  f=0.3056  <S**2>=0.000
      10 -> 17         0.10395
      13 -> 14         0.69059
 This state for optimization and/or second-order correction.
 Total Energy, E(CIS) =   1.96717820946
 Copying the excited state density for this state as the 1-particle RhoCI density.

 Excited State   2:      Singlet-A      5.9178 eV  209.51 nm  f=0.0006  <S**2>=0.000
      11 -> 15         0.12909
      13 -> 15         0.67555
      13 -> 17        -0.10077

 Excited State   3:      Singlet-A      6.5806 eV  188.41 nm  f=0.0038  <S**2>=0.000
      11 -> 16        -0.11426
      13 -> 16         0.62418
      13 -> 17        -0.24953
      13 -> 19        -0.13346

 Excited State   4:      Singlet-A      7.3121 eV  169.56 nm  f=0.0021  <S**2>=0.000
      12 -> 14         0.65226
      13 -> 21         0.20368

 Excited State   5:      Singlet-A      7.5625 eV  163.95 nm  f=0.0189  <S**2>=0.000
      10 -> 14        -0.11042
      11 -> 16        -0.11417
      13 -> 16         0.21712
      13 -> 17         0.62491
      13 -> 19        -0.11299

 Excited State   6:      Singlet-A      7.7184 eV  160.64 nm  f=0.0010  <S**2>=0.000
      12 -> 14        -0.23998
      13 -> 20         0.30694
      13 -> 21         0.56851

 Excited State   7:      Singlet-A      8.0475 eV  154.07 nm  f=0.0026  <S**2>=0.000
      10 -> 14         0.67431
      11 -> 14         0.12707
      13 -> 17         0.11022

 Excited State   8:      Singlet-A      8.3913 eV  147.75 nm  f=0.0001  <S**2>=0.000
      13 -> 16         0.13685
      13 -> 18         0.13021
      13 -> 19         0.63851
      13 -> 20        -0.15174

 Excited State   9:      Singlet-A      8.4511 eV  146.71 nm  f=0.0048  <S**2>=0.000
      13 -> 18         0.68067
      13 -> 19        -0.13212

 Excited State  10:      Singlet-A      8.7506 eV  141.69 nm  f=0.0271  <S**2>=0.000
       8 -> 15        -0.11319
      10 -> 14        -0.11738
      11 -> 14         0.58125
      12 -> 15         0.26937
      13 -> 22         0.11029

 Excited State  11:      Singlet-A      9.0653 eV  136.77 nm  f=0.0925  <S**2>=0.000
      11 -> 14        -0.10269
      13 -> 19         0.17057
      13 -> 20         0.58202
      13 -> 21        -0.30282

 Excited State  12:      Singlet-A      9.2309 eV  134.31 nm  f=0.1641  <S**2>=0.000
       8 -> 15        -0.16181
      10 -> 17        -0.14827
      11 -> 14        -0.30155
      12 -> 15         0.47821
      12 -> 16        -0.16756
      12 -> 18         0.10770
      12 -> 21        -0.11472
      13 -> 20        -0.10561

 Excited State  13:      Singlet-A      9.5113 eV  130.36 nm  f=0.0934  <S**2>=0.000
       9 -> 15        -0.10852
      10 -> 15        -0.30308
      10 -> 16        -0.11876
      10 -> 17         0.25187
      11 -> 15         0.25570
      12 -> 15         0.32967
      12 -> 16         0.15475
      12 -> 17        -0.16912
      12 -> 21         0.13873

 Excited State  14:      Singlet-A      9.5692 eV  129.57 nm  f=0.0454  <S**2>=0.000
       7 -> 15        -0.11883
      10 -> 17        -0.13943
      11 -> 15         0.58395
      11 -> 16         0.10585
      11 -> 17        -0.11574
      12 -> 15        -0.13483
      13 -> 15        -0.12612

 Excited State  15:      Singlet-A     10.0021 eV  123.96 nm  f=0.0866  <S**2>=0.000
       8 -> 16         0.15659
       9 -> 15         0.16778
      10 -> 15         0.25145
      10 -> 16        -0.21779
      10 -> 17         0.11503
      10 -> 18        -0.13427
      10 -> 19         0.19880
      11 -> 14        -0.11546
      11 -> 16         0.22318
      12 -> 16         0.18977
      12 -> 17         0.23233
      12 -> 19        -0.14233
      12 -> 21         0.11813
      13 -> 22         0.10830

 The electronic state is 1-A.
 Alpha  occ. eigenvalues --   -1.89942  -1.23694  -0.98931  -0.81369  -0.80721
 Alpha  occ. eigenvalues --   -0.68205  -0.62650  -0.52635  -0.51552  -0.41532
 Alpha  occ. eigenvalues --   -0.41254  -0.39604  -0.26635
 Alpha virt. eigenvalues --    0.14611   0.17163   0.21113   0.25517   0.28369
 Alpha virt. eigenvalues --    0.29723   0.30406   0.31385   0.33892   0.43564
 Alpha virt. eigenvalues --    0.47037

 Mulliken charges:
               1
     1  C   -0.150962
     2  C   -1.928732
     3  O    3.171444
     4  C   -1.891120
     5  C   -0.103881
     6  H    0.164684
     7  H    0.286353
     8  H    0.275895
     9  H    0.176320
 Sum of Mulliken charges =   0.00000

 Dipole moment (field-independent basis, Debye):
    X=              0.2861    Y=            -11.4518    Z=             -0.5448  Tot=             11.4683
 N-N= 1.038723624823D+02 E-N=-1.693068444735D+02  KE=-1.572917326895D+01
 Orbital energies and kinetic energies (alpha):
                                 1                 2
   1         O                -1.899424         -1.348181
   2         O                -1.236944         -1.119030
   3         O                -0.989308         -0.930786
   4         O                -0.813691         -0.677299
   5         O                -0.807210         -0.645866
   6         O                -0.682046         -0.585179
   7         O                -0.626503         -0.519071

 Normal termination of Gaussian 09 at Tue Dec 15 17:07:07 2015.
