 Gaussian 09, Revision D.01,
 Gaussian 09:  ES64L-G09RevD.01 24-Apr-2013

 ------------------------------------------------------------
 #P AM1(Input,print) CIS(Singlets,NStates=15) pop(full) force
 ------------------------------------------------------------

 -----------------
 AM1-Reparam Input
 -----------------
 Symbolic Z-matrix:
 Charge =  0 Multiplicity = 1

                         Standard orientation:
 ---------------------------------------------------------------------
 Center     Atomic      Atomic             Coordinates (Angstroms)
 Number     Number       Type             X           Y           Z
 ---------------------------------------------------------------------
      1          6           0       -0.619851    1.030034    0.007988
      2          6           0       -1.102430   -0.219413   -0.030448
      3          8           0       -0.134311   -1.166405    0.029321
      4          6           0        1.027502   -0.459811   -0.018884
      5          6           0        0.840039    0.864140    0.005937
      6          1           0        1.535831    1.716008   -0.021504
      7          1           0        1.951865   -1.049190   -0.017593
      8          1           0       -2.137643   -0.600521   -0.033458
      9          1           0       -1.147130    1.975245    0.050430
 ---------------------------------------------------------------------

 SCF Done:  E(RAM1) =   1.39771171599     A.U. after   13 cycles

 Excitation energies and oscillator strengths:

 Excited State   1:      Singlet-A      5.7891 eV  214.17 nm  f=0.3145  <S**2>=0.000
      13 -> 14         0.69160
 This state for optimization and/or second-order correction.
 Total Energy, E(CIS) =   1.61045731806
 Copying the excited state density for this state as the 1-particle RhoCI density.

 Excited State   2:      Singlet-A      6.0070 eV  206.40 nm  f=0.0005  <S**2>=0.000
      13 -> 15         0.67555
      13 -> 17        -0.12646

 Excited State   3:      Singlet-A      6.1374 eV  202.01 nm  f=0.0027  <S**2>=0.000
      13 -> 16         0.66621
      13 -> 21         0.15173

 Excited State   4:      Singlet-A      7.1828 eV  172.61 nm  f=0.0003  <S**2>=0.000
      11 -> 14         0.40069
      12 -> 14         0.56820

 Excited State   5:      Singlet-A      7.6264 eV  162.57 nm  f=0.0053  <S**2>=0.000
      13 -> 15         0.12437
      13 -> 17         0.66640
      13 -> 22         0.10833

 Excited State   6:      Singlet-A      7.7439 eV  160.11 nm  f=0.0011  <S**2>=0.000
      13 -> 16         0.11654
      13 -> 17         0.11535
      13 -> 19         0.45239
      13 -> 21        -0.24537
      13 -> 22        -0.42486

 Excited State   7:      Singlet-A      8.2830 eV  149.68 nm  f=0.0048  <S**2>=0.000
      11 -> 14         0.43329
      12 -> 14        -0.30195
      13 -> 18         0.44541

 Excited State   8:      Singlet-A      8.4508 eV  146.71 nm  f=0.0005  <S**2>=0.000
      11 -> 15        -0.10858
      13 -> 19         0.48665
      13 -> 21         0.43202
      13 -> 22         0.19277

 Excited State   9:      Singlet-A      8.5284 eV  145.38 nm  f=0.0010  <S**2>=0.000
      10 -> 14         0.68884
      13 -> 20         0.10412

 Excited State  10:      Singlet-A      8.7285 eV  142.05 nm  f=0.0000  <S**2>=0.000
      13 -> 19         0.20365
      13 -> 21        -0.44009
      13 -> 22         0.49675

 Excited State  11:      Singlet-A      8.9234 eV  138.94 nm  f=0.0870  <S**2>=0.000
      11 -> 14         0.12241
      11 -> 16         0.19968
      12 -> 16        -0.17100
      13 -> 17        -0.10604
      13 -> 18        -0.17234
      13 -> 20         0.56994

 Excited State  12:      Singlet-A      9.0291 eV  137.32 nm  f=0.0085  <S**2>=0.000
      11 -> 15         0.46659
      12 -> 15        -0.41954
      13 -> 16        -0.15393
      13 -> 21         0.12260
      13 -> 22         0.10854

 Excited State  13:      Singlet-A      9.2295 eV  134.34 nm  f=0.2413  <S**2>=0.000
      11 -> 14        -0.33400
      12 -> 14         0.24113
      13 -> 18         0.49452
      13 -> 20         0.19049

 Excited State  14:      Singlet-A      9.3277 eV  132.92 nm  f=0.0221  <S**2>=0.000
      11 -> 16        -0.34568
      12 -> 16         0.48053
      13 -> 15         0.13108
      13 -> 20         0.29574

 Excited State  15:      Singlet-A      9.4179 eV  131.65 nm  f=0.1914  <S**2>=0.000
       8 -> 15        -0.24348
      10 -> 17        -0.12704
      11 -> 15        -0.13412
      11 -> 16         0.47123
      12 -> 16         0.31463
      12 -> 19        -0.10173

 The electronic state is 1-A.
 Alpha  occ. eigenvalues --   -1.89276  -1.18472  -0.95175  -0.78372  -0.77005
 Alpha  occ. eigenvalues --   -0.67371  -0.61891  -0.48643  -0.48048  -0.40830
 Alpha  occ. eigenvalues --   -0.36987  -0.36655  -0.23586
 Alpha virt. eigenvalues --    0.17662   0.20996   0.21844   0.29764   0.30558
 Alpha virt. eigenvalues --    0.30920   0.33830   0.34345   0.35747   0.41228
 Alpha virt. eigenvalues --    0.45990

 Mulliken charges:
               1
     1  C   -0.072447
     2  C   -1.525111
     3  O    2.761726
     4  C   -1.525400
     5  C   -0.063604
     6  H    0.058574
     7  H    0.154628
     8  H    0.152760
     9  H    0.058873
 Sum of Mulliken charges =   0.00000

 Dipole moment (field-independent basis, Debye):
    X=             -1.1326    Y=             -9.8117    Z=              0.6224  Tot=              9.8964
 N-N= 1.035150775727D+02 E-N=-1.699409527086D+02  KE=-1.584760210798D+01
 Orbital energies and kinetic energies (alpha):
                                 1                 2
   1         O                -1.892756         -1.385602
   2         O                -1.184725         -1.075315
   3         O                -0.951746         -0.877296
   4         O                -0.783720         -0.621327
   5         O                -0.770049         -0.702740
   6         O                -0.673707         -0.620437
   7         O                -0.618909         -0.543592

 Normal termination of Gaussian 09 at Tue Dec 15 17:07:52 2015.
