 Gaussian 09, Revision D.01,
 Gaussian 09:  ES64L-G09RevD.01 24-Apr-2013

 ------------------------------------------------------------
 #P AM1(Input,print) CIS(Singlets,NStates=15) pop(full) force
 ------------------------------------------------------------

 -----------------
 AM1-Reparam Input
 -----------------
 Symbolic Z-matrix:
 Charge =  0 Multiplicity = 1

                         Standard orientation:
 ---------------------------------------------------------------------
 Center     Atomic      Atomic             Coordinates (Angstroms)
 Number     Number       Type             X           Y           Z
 ---------------------------------------------------------------------
      1          6           0       -0.743755    0.928976   -0.008493
      2          6           0       -1.092569   -0.362042   -0.008402
      3          8           0       -0.006767   -1.137432    0.000742
      4          6           0        1.131052   -0.315910   -0.016647
      5          6           0        0.702879    0.929417    0.010949
      6          1           0        1.371381    1.803845    0.032348
      7          1           0        2.052946   -0.811230    0.032611
      8          1           0       -1.994924   -0.820840    0.078009
      9          1           0       -1.360904    1.845042   -0.013350
 ---------------------------------------------------------------------

 SCF Done:  E(RAM1) =   2.14109090934     A.U. after   13 cycles

 Excitation energies and oscillator strengths:

 Excited State   1:      Singlet-A      5.3457 eV  231.93 nm  f=0.3560  <S**2>=0.000
      13 -> 14         0.69610
 This state for optimization and/or second-order correction.
 Total Energy, E(CIS) =   2.33754255507
 Copying the excited state density for this state as the 1-particle RhoCI density.

 Excited State   2:      Singlet-A      6.3848 eV  194.19 nm  f=0.0024  <S**2>=0.000
      10 -> 15         0.10337
      13 -> 15         0.67401
      13 -> 17        -0.12253
      13 -> 19         0.11808

 Excited State   3:      Singlet-A      6.7298 eV  184.23 nm  f=0.0009  <S**2>=0.000
      10 -> 16        -0.10632
      13 -> 16         0.66357
      13 -> 17        -0.10594
      13 -> 18        -0.10308
      13 -> 19        -0.10820

 Excited State   4:      Singlet-A      7.0607 eV  175.60 nm  f=0.0003  <S**2>=0.000
      12 -> 14         0.69943

 Excited State   5:      Singlet-A      7.8913 eV  157.12 nm  f=0.0004  <S**2>=0.000
      13 -> 17        -0.12067
      13 -> 18         0.56827
      13 -> 19         0.13746
      13 -> 20         0.14974
      13 -> 22        -0.29741

 Excited State   6:      Singlet-A      8.0401 eV  154.21 nm  f=0.0073  <S**2>=0.000
      11 -> 14         0.65429
      13 -> 17        -0.22701

 Excited State   7:      Singlet-A      8.3356 eV  148.74 nm  f=0.0024  <S**2>=0.000
      11 -> 14         0.25044
      13 -> 17         0.62692
      13 -> 18         0.10168

 Excited State   8:      Singlet-A      9.0017 eV  137.73 nm  f=0.0001  <S**2>=0.000
      13 -> 18        -0.27205
      13 -> 19         0.59207
      13 -> 20         0.18816

 Excited State   9:      Singlet-A      9.0951 eV  136.32 nm  f=0.0565  <S**2>=0.000
      10 -> 14         0.64146
      13 -> 21        -0.20215

 Excited State  10:      Singlet-A      9.4660 eV  130.98 nm  f=0.0193  <S**2>=0.000
      13 -> 18         0.25076
      13 -> 19         0.28613
      13 -> 20        -0.31198
      13 -> 21        -0.11035
      13 -> 22         0.48033

 Excited State  11:      Singlet-A      9.6609 eV  128.34 nm  f=0.0170  <S**2>=0.000
      11 -> 16        -0.12754
      11 -> 17         0.21084
      12 -> 15         0.42308
      12 -> 16        -0.26011
      12 -> 17        -0.10700
      12 -> 18         0.29424

 Excited State  12:      Singlet-A      9.8165 eV  126.30 nm  f=0.0811  <S**2>=0.000
      13 -> 20         0.53580
      13 -> 22         0.39821

 Excited State  13:      Singlet-A     10.1053 eV  122.69 nm  f=0.0834  <S**2>=0.000
      10 -> 14         0.20317
      11 -> 15         0.13804
      11 -> 16        -0.10052
      12 -> 15         0.32184
      12 -> 16         0.47526
      12 -> 20        -0.10363
      13 -> 21         0.21313

 Excited State  14:      Singlet-A     10.1388 eV  122.29 nm  f=0.0410  <S**2>=0.000
      10 -> 14         0.13062
      11 -> 15        -0.16533
      12 -> 15        -0.19916
      12 -> 16        -0.11090
      13 -> 20        -0.13263
      13 -> 21         0.59378

 Excited State  15:      Singlet-A     10.1730 eV  121.88 nm  f=0.2691  <S**2>=0.000
      11 -> 15        -0.27387
      11 -> 16        -0.23679
      11 -> 17         0.23481
      12 -> 15        -0.23432
      12 -> 16         0.32561
      12 -> 17        -0.11083
      12 -> 18         0.26781

 The electronic state is 1-A.
 Alpha  occ. eigenvalues --   -1.94698  -1.19459  -0.95424  -0.81259  -0.79268
 Alpha  occ. eigenvalues --   -0.69805  -0.66652  -0.56682  -0.54058  -0.45538
 Alpha  occ. eigenvalues --   -0.44506  -0.41284  -0.28613
 Alpha virt. eigenvalues --    0.11430   0.18160   0.19452   0.25759   0.26972
 Alpha virt. eigenvalues --    0.29728   0.30974   0.31362   0.31969   0.39411
 Alpha virt. eigenvalues --    0.43980

 Mulliken charges:
               1
     1  C   -0.203571
     2  C   -1.887970
     3  O    3.219058
     4  C   -1.857919
     5  C   -0.124890
     6  H    0.159745
     7  H    0.257498
     8  H    0.271089
     9  H    0.166959
 Sum of Mulliken charges =   0.00000

 Dipole moment (field-independent basis, Debye):
    X=             -0.1381    Y=            -10.6316    Z=              0.4322  Tot=             10.6413
 N-N= 1.044484552261D+02 E-N=-1.697031797702D+02  KE=-1.536663655455D+01
 Orbital energies and kinetic energies (alpha):
                                 1                 2
   1         O                -1.946982         -1.368672
   2         O                -1.194591         -1.041019
   3         O                -0.954243         -0.892535
   4         O                -0.812585         -0.585690
   5         O                -0.792680         -0.690886
   6         O                -0.698047         -0.574137
   7         O                -0.666522         -0.531816

 Normal termination of Gaussian 09 at Tue Dec 15 17:09:29 2015.
