 Gaussian 09, Revision D.01,
 Gaussian 09:  ES64L-G09RevD.01 24-Apr-2013

 ------------------------------------------------------------
 #P AM1(Input,print) CIS(Singlets,NStates=15) pop(full) force
 ------------------------------------------------------------

 -----------------
 AM1-Reparam Input
 -----------------
 Symbolic Z-matrix:
 Charge =  0 Multiplicity = 1

                         Standard orientation:
 ---------------------------------------------------------------------
 Center     Atomic      Atomic             Coordinates (Angstroms)
 Number     Number       Type             X           Y           Z
 ---------------------------------------------------------------------
      1          6           0        0.962296    0.749562    0.007155
      2          6           0        0.974707   -0.643081   -0.023719
      3          8           0       -0.345927   -1.140192    0.028641
      4          6           0       -1.173187   -0.023624   -0.018379
      5          6           0       -0.399275    1.114596   -0.003523
      6          1           0       -0.804527    2.105082    0.016803
      7          1           0       -2.203463   -0.163177   -0.018833
      8          1           0        1.747143   -1.331401   -0.043330
      9          1           0        1.841019    1.326315    0.047029
 ---------------------------------------------------------------------

 SCF Done:  E(RAM1) =   2.10190612821     A.U. after   13 cycles

 Excitation energies and oscillator strengths:

 Excited State   1:      Singlet-A      5.6219 eV  220.54 nm  f=0.3370  <S**2>=0.000
      13 -> 14         0.69357
 This state for optimization and/or second-order correction.
 Total Energy, E(CIS) =   2.30850857293
 Copying the excited state density for this state as the 1-particle RhoCI density.

 Excited State   2:      Singlet-A      6.8063 eV  182.16 nm  f=0.0041  <S**2>=0.000
      11 -> 16        -0.10292
      13 -> 15         0.64855
      13 -> 16         0.16607
      13 -> 17        -0.16953

 Excited State   3:      Singlet-A      7.0827 eV  175.05 nm  f=0.0002  <S**2>=0.000
      11 -> 15        -0.12878
      13 -> 15        -0.16473
      13 -> 16         0.64024
      13 -> 20         0.17096

 Excited State   4:      Singlet-A      7.4592 eV  166.22 nm  f=0.0004  <S**2>=0.000
      12 -> 14         0.69817

 Excited State   5:      Singlet-A      8.1057 eV  152.96 nm  f=0.0061  <S**2>=0.000
      10 -> 14         0.63818
      11 -> 14        -0.27172

 Excited State   6:      Singlet-A      8.4506 eV  146.72 nm  f=0.0004  <S**2>=0.000
      13 -> 17        -0.27302
      13 -> 18         0.48501
      13 -> 20         0.11028
      13 -> 22         0.37691

 Excited State   7:      Singlet-A      8.7173 eV  142.23 nm  f=0.0090  <S**2>=0.000
      11 -> 16        -0.12488
      13 -> 15         0.12653
      13 -> 17         0.60215
      13 -> 18         0.23189
      13 -> 22         0.14926

 Excited State   8:      Singlet-A      8.9351 eV  138.76 nm  f=0.0822  <S**2>=0.000
      10 -> 14         0.25968
      11 -> 14         0.61619
      13 -> 19        -0.18372

 Excited State   9:      Singlet-A      9.3693 eV  132.33 nm  f=0.0004  <S**2>=0.000
      11 -> 15         0.12131
      13 -> 18        -0.28806
      13 -> 20         0.60209
      13 -> 22         0.12061

 Excited State  10:      Singlet-A      9.8005 eV  126.51 nm  f=0.0008  <S**2>=0.000
      13 -> 18        -0.33781
      13 -> 20        -0.24858
      13 -> 22         0.54723

 Excited State  11:      Singlet-A      9.9516 eV  124.59 nm  f=0.0214  <S**2>=0.000
       8 -> 15        -0.12750
       9 -> 16         0.12095
       9 -> 20         0.10099
      10 -> 15        -0.29977
      10 -> 17         0.23605
      12 -> 15         0.11751
      12 -> 16         0.30990
      12 -> 17        -0.16858
      12 -> 18         0.25787
      13 -> 19         0.16957

 Excited State  12:      Singlet-A     10.0251 eV  123.67 nm  f=0.1097  <S**2>=0.000
      11 -> 14         0.15364
      11 -> 16         0.10361
      13 -> 19         0.58379
      13 -> 21        -0.26334

 Excited State  13:      Singlet-A     10.1301 eV  122.39 nm  f=0.0940  <S**2>=0.000
      11 -> 16        -0.12778
      13 -> 19         0.25203
      13 -> 21         0.60691

 Excited State  14:      Singlet-A     10.3208 eV  120.13 nm  f=0.1108  <S**2>=0.000
      11 -> 15         0.31669
      12 -> 15         0.49358
      12 -> 16        -0.27973
      12 -> 17        -0.10037
      12 -> 20        -0.11103

 Excited State  15:      Singlet-A     10.3461 eV  119.84 nm  f=0.0021  <S**2>=0.000
      10 -> 15         0.15009
      11 -> 15         0.49988
      11 -> 16         0.17481
      12 -> 15        -0.31880
      13 -> 16         0.15274
      13 -> 20        -0.11411

 The electronic state is 1-A.
 Alpha  occ. eigenvalues --   -1.91733  -1.18485  -0.92690  -0.79604  -0.79095
 Alpha  occ. eigenvalues --   -0.69629  -0.64419  -0.54981  -0.54146  -0.44340
 Alpha  occ. eigenvalues --   -0.43561  -0.42202  -0.29415
 Alpha virt. eigenvalues --    0.12135   0.19255   0.20159   0.26265   0.28281
 Alpha virt. eigenvalues --    0.29930   0.30257   0.31470   0.32591   0.38492
 Alpha virt. eigenvalues --    0.42250

 Mulliken charges:
               1
     1  C   -0.120295
     2  C   -1.898331
     3  O    3.218450
     4  C   -1.894986
     5  C   -0.141484
     6  H    0.156478
     7  H    0.265345
     8  H    0.258965
     9  H    0.155858
 Sum of Mulliken charges =   0.00000

 Dipole moment (field-independent basis, Debye):
    X=             -3.2773    Y=            -10.5883    Z=              0.6879  Tot=             11.1052
 N-N= 1.035156222592D+02 E-N=-1.682387823864D+02  KE=-1.530263013681D+01
 Orbital energies and kinetic energies (alpha):
                                 1                 2
   1         O                -1.917333         -1.321956
   2         O                -1.184846         -1.054088
   3         O                -0.926899         -0.891566
   4         O                -0.796044         -0.566642
   5         O                -0.790950         -0.691495
   6         O                -0.696286         -0.598368
   7         O                -0.644192         -0.521520

 Normal termination of Gaussian 09 at Tue Dec 15 17:09:27 2015.
