 Gaussian 09, Revision D.01,
 Gaussian 09:  ES64L-G09RevD.01 24-Apr-2013

 ------------------------------------------------------------
 #P AM1(Input,print) CIS(Singlets,NStates=15) pop(full) force
 ------------------------------------------------------------

 -----------------
 AM1-Reparam Input
 -----------------
 Symbolic Z-matrix:
 Charge =  0 Multiplicity = 1

                         Standard orientation:
 ---------------------------------------------------------------------
 Center     Atomic      Atomic             Coordinates (Angstroms)
 Number     Number       Type             X           Y           Z
 ---------------------------------------------------------------------
      1          6           0        0.757171    0.896867   -0.007864
      2          6           0        1.115852   -0.438017   -0.018797
      3          8           0       -0.113448   -1.144788    0.022470
      4          6           0       -1.135647   -0.256853   -0.027972
      5          6           0       -0.613125    0.984238    0.020463
      6          1           0       -1.228986    1.966866   -0.028794
      7          1           0       -2.111270   -0.674049    0.012461
      8          1           0        1.989501   -0.939612   -0.011258
      9          1           0        1.512834    1.687690    0.052856
 ---------------------------------------------------------------------

 SCF Done:  E(RAM1) =   1.11278558625     A.U. after   13 cycles

 Excitation energies and oscillator strengths:

 Excited State   1:      Singlet-A      5.6878 eV  217.98 nm  f=0.1609  <S**2>=0.000
      12 -> 15         0.15978
      13 -> 14         0.67017
 This state for optimization and/or second-order correction.
 Total Energy, E(CIS) =   1.32180670459
 Copying the excited state density for this state as the 1-particle RhoCI density.

 Excited State   2:      Singlet-A      6.5000 eV  190.74 nm  f=0.0051  <S**2>=0.000
      13 -> 15         0.19338
      13 -> 16         0.64117
      13 -> 17         0.13059
      13 -> 20        -0.12771

 Excited State   3:      Singlet-A      6.8520 eV  180.95 nm  f=0.0142  <S**2>=0.000
      12 -> 14        -0.35538
      13 -> 15         0.56397
      13 -> 16        -0.18387

 Excited State   4:      Singlet-A      7.3029 eV  169.77 nm  f=0.0001  <S**2>=0.000
      12 -> 16        -0.13276
      13 -> 16        -0.11547
      13 -> 17         0.64461
      13 -> 21        -0.13767

 Excited State   5:      Singlet-A      7.4796 eV  165.76 nm  f=0.0006  <S**2>=0.000
       9 -> 14         0.14971
      10 -> 14        -0.17118
      11 -> 14         0.66162

 Excited State   6:      Singlet-A      7.6012 eV  163.11 nm  f=0.0057  <S**2>=0.000
      10 -> 14         0.63057
      11 -> 14         0.16038
      11 -> 15         0.16797
      12 -> 14        -0.12316

 Excited State   7:      Singlet-A      7.9847 eV  155.28 nm  f=0.2201  <S**2>=0.000
      10 -> 14         0.14572
      11 -> 16         0.10226
      12 -> 14         0.57718
      13 -> 15         0.31310

 Excited State   8:      Singlet-A      8.1867 eV  151.45 nm  f=0.0201  <S**2>=0.000
       9 -> 15        -0.18203
      10 -> 14        -0.19185
      10 -> 15         0.14499
      11 -> 15         0.54408
      12 -> 15        -0.15641
      12 -> 16        -0.14876
      13 -> 18         0.19655

 Excited State   9:      Singlet-A      8.2191 eV  150.85 nm  f=0.0075  <S**2>=0.000
      11 -> 15        -0.25295
      12 -> 16        -0.33701
      13 -> 18         0.49948
      13 -> 24        -0.11567

 Excited State  10:      Singlet-A      8.4001 eV  147.60 nm  f=0.0096  <S**2>=0.000
      12 -> 15         0.15879
      12 -> 16         0.28462
      12 -> 17         0.11560
      13 -> 18         0.21371
      13 -> 19         0.51563
      13 -> 20        -0.14078
      13 -> 23        -0.10551

 Excited State  11:      Singlet-A      8.5166 eV  145.58 nm  f=0.0504  <S**2>=0.000
      12 -> 15        -0.34737
      12 -> 16        -0.26462
      13 -> 17        -0.14707
      13 -> 18        -0.29935
      13 -> 19         0.37041
      13 -> 20        -0.10239
      13 -> 24         0.13523

 Excited State  12:      Singlet-A      8.6160 eV  143.90 nm  f=0.1955  <S**2>=0.000
      12 -> 15         0.51420
      12 -> 16        -0.37112
      13 -> 14        -0.12276
      13 -> 18        -0.13098
      13 -> 19         0.10010

 Excited State  13:      Singlet-A      9.1006 eV  136.24 nm  f=0.0380  <S**2>=0.000
       9 -> 16        -0.17147
      11 -> 16         0.42560
      12 -> 17         0.38133
      13 -> 20        -0.22939

 Excited State  14:      Singlet-A      9.1410 eV  135.64 nm  f=0.0317  <S**2>=0.000
       9 -> 16         0.14416
      10 -> 17        -0.12698
      11 -> 16        -0.39210
      12 -> 17         0.42944
      13 -> 19        -0.12002
      13 -> 20        -0.20747

 Excited State  15:      Singlet-A      9.2715 eV  133.73 nm  f=0.1391  <S**2>=0.000
       9 -> 17        -0.17591
      10 -> 16         0.43312
      10 -> 17         0.23668
      10 -> 19        -0.19357
      11 -> 18         0.29109
      13 -> 14        -0.11744

 The electronic state is 1-A.
 Alpha  occ. eigenvalues --   -1.81552  -1.19544  -0.99266  -0.86484  -0.81835
 Alpha  occ. eigenvalues --   -0.73663  -0.71185  -0.61963  -0.56654  -0.50561
 Alpha  occ. eigenvalues --   -0.49634  -0.46963  -0.39133
 Alpha virt. eigenvalues --    0.03859   0.08457   0.09779   0.12467   0.17293
 Alpha virt. eigenvalues --    0.18343   0.19511   0.22276   0.26299   0.26546
 Alpha virt. eigenvalues --    0.27240

 Mulliken charges:
               1
     1  C   -0.106121
     2  C   -1.258421
     3  O    2.150141
     4  C   -1.241737
     5  C   -0.175370
     6  H    0.133661
     7  H    0.198259
     8  H    0.182064
     9  H    0.117524
 Sum of Mulliken charges =   0.00000

 Dipole moment (field-independent basis, Debye):
    X=             -1.1162    Y=             -6.7950    Z=              0.4557  Tot=              6.9011
 N-N= 1.042231105946D+02 E-N=-1.708984439270D+02  KE=-1.495349924330D+01
 Orbital energies and kinetic energies (alpha):
                                 1                 2
   1         O                -1.815515         -1.227871
   2         O                -1.195435         -0.965019
   3         O                -0.992660         -0.822565
   4         O                -0.864844         -0.619591
   5         O                -0.818350         -0.680460
   6         O                -0.736630         -0.592633
   7         O                -0.711845         -0.515956

 Normal termination of Gaussian 09 at Tue Dec 15 17:05:41 2015.
