 Gaussian 09, Revision D.01,
 Gaussian 09:  ES64L-G09RevD.01 24-Apr-2013

 ------------------------------------------------------------
 #P AM1(Input,print) CIS(Singlets,NStates=15) pop(full) force
 ------------------------------------------------------------

 -----------------
 AM1-Reparam Input
 -----------------
 Symbolic Z-matrix:
 Charge =  0 Multiplicity = 1

                         Standard orientation:
 ---------------------------------------------------------------------
 Center     Atomic      Atomic             Coordinates (Angstroms)
 Number     Number       Type             X           Y           Z
 ---------------------------------------------------------------------
      1          6           0       -0.357273    1.107183    0.008426
      2          6           0       -1.134583   -0.015534   -0.019840
      3          8           0       -0.369875   -1.079863    0.012951
      4          6           0        0.918742   -0.623146   -0.030174
      5          6           0        0.961139    0.656778    0.000726
      6          1           0        1.851394    1.255369    0.024804
      7          1           0        1.690044   -1.408432    0.072972
      8          1           0       -2.200424   -0.150930    0.036690
      9          1           0       -0.710163    2.191213    0.007102
 ---------------------------------------------------------------------

 SCF Done:  E(RAM1) =   2.57547696756     A.U. after   14 cycles

 Excitation energies and oscillator strengths:

 Excited State   1:      Singlet-A      5.4436 eV  227.76 nm  f=0.3289  <S**2>=0.000
      13 -> 14         0.69430
 This state for optimization and/or second-order correction.
 Total Energy, E(CIS) =   2.77552707823
 Copying the excited state density for this state as the 1-particle RhoCI density.

 Excited State   2:      Singlet-A      6.3491 eV  195.28 nm  f=0.0028  <S**2>=0.000
      10 -> 15         0.11312
      13 -> 15         0.27925
      13 -> 16         0.60595
      13 -> 17         0.18385

 Excited State   3:      Singlet-A      6.3688 eV  194.67 nm  f=0.0006  <S**2>=0.000
      10 -> 16         0.11621
      13 -> 15         0.61149
      13 -> 16        -0.27011
      13 -> 19         0.14566

 Excited State   4:      Singlet-A      6.9300 eV  178.91 nm  f=0.0002  <S**2>=0.000
       9 -> 14         0.11475
      12 -> 14         0.69495

 Excited State   5:      Singlet-A      7.8138 eV  158.67 nm  f=0.0072  <S**2>=0.000
      11 -> 14         0.65086
      13 -> 17         0.22818

 Excited State   6:      Singlet-A      7.9263 eV  156.42 nm  f=0.0001  <S**2>=0.000
      11 -> 14         0.18057
      13 -> 17        -0.22282
      13 -> 18         0.55136
      13 -> 20         0.17282
      13 -> 21        -0.26014

 Excited State   7:      Singlet-A      8.1534 eV  152.06 nm  f=0.0051  <S**2>=0.000
      11 -> 14        -0.18915
      13 -> 16        -0.16224
      13 -> 17         0.59019
      13 -> 18         0.23550
      13 -> 21        -0.10156

 Excited State   8:      Singlet-A      8.8636 eV  139.88 nm  f=0.0004  <S**2>=0.000
      13 -> 15        -0.11517
      13 -> 18         0.10860
      13 -> 19         0.66169
      13 -> 20        -0.12422

 Excited State   9:      Singlet-A      8.9300 eV  138.84 nm  f=0.0474  <S**2>=0.000
       8 -> 15        -0.10503
      10 -> 14         0.57709
      11 -> 17         0.10710
      12 -> 15         0.26639
      12 -> 16         0.12425
      12 -> 18        -0.11133

 Excited State  10:      Singlet-A      9.2472 eV  134.08 nm  f=0.0549  <S**2>=0.000
       8 -> 16        -0.14915
      10 -> 14        -0.30883
      11 -> 17         0.16242
      12 -> 15         0.48501
      12 -> 16        -0.16415
      12 -> 18        -0.22144

 Excited State  11:      Singlet-A      9.4226 eV  131.58 nm  f=0.0297  <S**2>=0.000
      13 -> 18        -0.31034
      13 -> 19         0.15337
      13 -> 20         0.44644
      13 -> 21        -0.39776

 Excited State  12:      Singlet-A      9.5257 eV  130.16 nm  f=0.1357  <S**2>=0.000
       9 -> 15        -0.14299
      11 -> 15        -0.24426
      11 -> 16        -0.25610
      11 -> 17        -0.20144
      12 -> 15         0.30775
      12 -> 16         0.35064
      12 -> 18         0.21925

 Excited State  13:      Singlet-A      9.5825 eV  129.39 nm  f=0.0893  <S**2>=0.000
       9 -> 15         0.10567
       9 -> 16        -0.12401
      10 -> 14        -0.16023
      11 -> 15        -0.12635
      11 -> 16         0.30906
      11 -> 17         0.18358
      12 -> 15        -0.13146
      12 -> 16         0.45492
      12 -> 17         0.17358
      12 -> 18        -0.11878

 Excited State  14:      Singlet-A      9.9133 eV  125.07 nm  f=0.0483  <S**2>=0.000
       9 -> 14         0.13360
      10 -> 15        -0.18072
      10 -> 16         0.40830
      13 -> 20        -0.35946
      13 -> 21        -0.32464

 Excited State  15:      Singlet-A     10.0356 eV  123.54 nm  f=0.0267  <S**2>=0.000
       9 -> 14        -0.15261
      10 -> 16         0.47585
      13 -> 20         0.29005
      13 -> 21         0.33498

 The electronic state is 1-A.
 Alpha  occ. eigenvalues --   -1.76434  -1.17949  -0.96246  -0.81383  -0.76324
 Alpha  occ. eigenvalues --   -0.67537  -0.65752  -0.54879  -0.49584  -0.44290
 Alpha  occ. eigenvalues --   -0.43143  -0.40256  -0.28857
 Alpha virt. eigenvalues --    0.12281   0.17388   0.17483   0.25200   0.26981
 Alpha virt. eigenvalues --    0.29174   0.31173   0.33311   0.40932   0.50236
 Alpha virt. eigenvalues --    0.54613

 Mulliken charges:
               1
     1  C   -0.122594
     2  C   -1.947215
     3  O    3.221830
     4  C   -1.899329
     5  C   -0.019239
     6  H    0.114065
     7  H    0.256405
     8  H    0.272477
     9  H    0.123601
 Sum of Mulliken charges =   0.00000

 Dipole moment (field-independent basis, Debye):
    X=             -3.1378    Y=             -9.9712    Z=              0.8012  Tot=             10.4840
 N-N= 1.046309853943D+02 E-N=-1.701514991860D+02  KE=-1.510685351915D+01
 Orbital energies and kinetic energies (alpha):
                                 1                 2
   1         O                -1.764344         -1.277672
   2         O                -1.179486         -1.024092
   3         O                -0.962455         -0.872562
   4         O                -0.813834         -0.609126
   5         O                -0.763241         -0.686756
   6         O                -0.675371         -0.562485
   7         O                -0.657517         -0.541628

 Normal termination of Gaussian 09 at Tue Dec 15 17:06:27 2015.
