 Gaussian 09, Revision D.01,
 Gaussian 09:  ES64L-G09RevD.01 24-Apr-2013

 ------------------------------------------------------------
 #P AM1(Input,print) CIS(Singlets,NStates=15) pop(full) force
 ------------------------------------------------------------

 -----------------
 AM1-Reparam Input
 -----------------
 Symbolic Z-matrix:
 Charge =  0 Multiplicity = 1

                         Standard orientation:
 ---------------------------------------------------------------------
 Center     Atomic      Atomic             Coordinates (Angstroms)
 Number     Number       Type             X           Y           Z
 ---------------------------------------------------------------------
      1          6           0        0.189453    1.179624   -0.007322
      2          6           0        1.110218    0.098785   -0.010080
      3          8           0        0.524540   -1.018994    0.021351
      4          6           0       -0.864042   -0.752405   -0.027256
      5          6           0       -1.003499    0.533802    0.034799
      6          1           0       -2.008220    1.067352   -0.039839
      7          1           0       -1.475100   -1.599951   -0.033952
      8          1           0        2.209512    0.142955   -0.033423
      9          1           0        0.484703    2.182759   -0.004430
 ---------------------------------------------------------------------

 SCF Done:  E(RAM1) =   1.39853792484     A.U. after   13 cycles

 Excitation energies and oscillator strengths:

 Excited State   1:      Singlet-A      6.1014 eV  203.21 nm  f=0.0019  <S**2>=0.000
      11 -> 15        -0.11213
      13 -> 15         0.64698
      13 -> 17        -0.21264
 This state for optimization and/or second-order correction.
 Total Energy, E(CIS) =   1.62275932703
 Copying the excited state density for this state as the 1-particle RhoCI density.

 Excited State   2:      Singlet-A      6.2847 eV  197.28 nm  f=0.2979  <S**2>=0.000
      13 -> 14         0.69062

 Excited State   3:      Singlet-A      7.0412 eV  176.08 nm  f=0.0005  <S**2>=0.000
      11 -> 16         0.14998
      13 -> 16         0.65051
      13 -> 21         0.10153

 Excited State   4:      Singlet-A      7.5387 eV  164.46 nm  f=0.0062  <S**2>=0.000
      12 -> 14         0.59259
      13 -> 15        -0.10345
      13 -> 17        -0.33016

 Excited State   5:      Singlet-A      7.5991 eV  163.16 nm  f=0.0044  <S**2>=0.000
      11 -> 15        -0.11283
      12 -> 14         0.34044
      13 -> 15         0.16468
      13 -> 17         0.55471
      13 -> 22         0.11566

 Excited State   6:      Singlet-A      8.3048 eV  149.29 nm  f=0.0023  <S**2>=0.000
      13 -> 18         0.53790
      13 -> 22         0.40674

 Excited State   7:      Singlet-A      8.4749 eV  146.30 nm  f=0.0015  <S**2>=0.000
      10 -> 14         0.64320
      11 -> 14         0.14434
      13 -> 18         0.14612
      13 -> 20         0.12701

 Excited State   8:      Singlet-A      8.6304 eV  143.66 nm  f=0.0060  <S**2>=0.000
       7 -> 15         0.10472
      11 -> 15         0.55329
      12 -> 15        -0.10698
      13 -> 17         0.12096
      13 -> 18         0.17442
      13 -> 19         0.14676
      13 -> 20        -0.21613
      13 -> 22        -0.14652

 Excited State   9:      Singlet-A      8.8054 eV  140.81 nm  f=0.0093  <S**2>=0.000
      10 -> 14        -0.12027
      11 -> 14         0.56619
      11 -> 15        -0.10203
      12 -> 17        -0.14008
      13 -> 19         0.28371

 Excited State  10:      Singlet-A      8.8455 eV  140.17 nm  f=0.0008  <S**2>=0.000
      11 -> 15         0.28101
      13 -> 15         0.14890
      13 -> 16        -0.12736
      13 -> 19        -0.19916
      13 -> 20         0.48132
      13 -> 21         0.18345
      13 -> 22         0.19798

 Excited State  11:      Singlet-A      9.0827 eV  136.51 nm  f=0.0063  <S**2>=0.000
      10 -> 14         0.18832
      11 -> 15         0.10305
      13 -> 18        -0.34662
      13 -> 19         0.14669
      13 -> 20        -0.24251
      13 -> 22         0.47925

 Excited State  12:      Singlet-A      9.2976 eV  133.35 nm  f=0.0022  <S**2>=0.000
       9 -> 15         0.19641
      10 -> 15         0.15731
      10 -> 17        -0.14951
      10 -> 18         0.10524
      12 -> 15         0.37453
      12 -> 17        -0.25894
      13 -> 19        -0.31774
      13 -> 20        -0.16209

 Excited State  13:      Singlet-A      9.6249 eV  128.82 nm  f=0.0627  <S**2>=0.000
      11 -> 16        -0.12683
      12 -> 15         0.17702
      13 -> 18         0.10078
      13 -> 19         0.15976
      13 -> 20        -0.11709
      13 -> 21         0.60159

 Excited State  14:      Singlet-A      9.7313 eV  127.41 nm  f=0.3159  <S**2>=0.000
       9 -> 15         0.17837
      11 -> 14         0.15980
      12 -> 15         0.18943
      12 -> 17         0.42039
      12 -> 18         0.31794
      12 -> 20        -0.15624
      13 -> 21        -0.13644

 Excited State  15:      Singlet-A      9.8119 eV  126.36 nm  f=0.0083  <S**2>=0.000
       8 -> 15        -0.10454
       9 -> 15         0.10357
      10 -> 15         0.54005
      10 -> 17        -0.17289
      10 -> 20        -0.10329
      12 -> 15        -0.31855

 The electronic state is 1-A.
 Alpha  occ. eigenvalues --   -1.91579  -1.21519  -0.96451  -0.79549  -0.77571
 Alpha  occ. eigenvalues --   -0.67811  -0.63796  -0.51066  -0.47046  -0.40375
 Alpha  occ. eigenvalues --   -0.37702  -0.37146  -0.25676
 Alpha virt. eigenvalues --    0.18575   0.19489   0.24305   0.27028   0.30865
 Alpha virt. eigenvalues --    0.31823   0.32184   0.35357   0.36467   0.41830
 Alpha virt. eigenvalues --    0.47210

 Mulliken charges:
               1
     1  C   -0.136594
     2  C   -1.624862
     3  O    2.798405
     4  C   -1.535412
     5  C    0.039577
     6  H    0.051215
     7  H    0.144232
     8  H    0.192076
     9  H    0.071362
 Sum of Mulliken charges =   0.00000

 Dipole moment (field-independent basis, Debye):
    X=              4.5805    Y=             -8.1653    Z=              0.4424  Tot=              9.3728
 N-N= 1.044481826074D+02 E-N=-1.713841757482D+02  KE=-1.596938563365D+01
 Orbital energies and kinetic energies (alpha):
                                 1                 2
   1         O                -1.915792         -1.417437
   2         O                -1.215192         -1.094118
   3         O                -0.964508         -0.882950
   4         O                -0.795488         -0.631020
   5         O                -0.775715         -0.696921
   6         O                -0.678108         -0.625319
   7         O                -0.637962         -0.555265

 Normal termination of Gaussian 09 at Tue Dec 15 17:08:08 2015.
