 Gaussian 09, Revision D.01,
 Gaussian 09:  ES64L-G09RevD.01 24-Apr-2013

 ------------------------------------------------------------
 #P AM1(Input,print) CIS(Singlets,NStates=15) pop(full) force
 ------------------------------------------------------------

 -----------------
 AM1-Reparam Input
 -----------------
 Symbolic Z-matrix:
 Charge =  0 Multiplicity = 1

                         Standard orientation:
 ---------------------------------------------------------------------
 Center     Atomic      Atomic             Coordinates (Angstroms)
 Number     Number       Type             X           Y           Z
 ---------------------------------------------------------------------
      1          6           0        0.284427    1.155142   -0.014745
      2          6           0       -1.009958    0.597668   -0.004234
      3          8           0       -0.898506   -0.785851    0.003526
      4          6           0        0.448782   -1.041636    0.009463
      5          6           0        1.206793    0.132270   -0.010155
      6          1           0        2.319277    0.109767    0.026051
      7          1           0        0.757952   -2.073515   -0.015654
      8          1           0       -1.915603    0.955824    0.004693
      9          1           0        0.446161    2.234072    0.074725
 ---------------------------------------------------------------------

 SCF Done:  E(RAM1) =   1.38601486232     A.U. after   13 cycles

 Excitation energies and oscillator strengths:

 Excited State   1:      Singlet-A      6.3427 eV  195.48 nm  f=0.2778  <S**2>=0.000
      13 -> 14         0.68707
 This state for optimization and/or second-order correction.
 Total Energy, E(CIS) =   1.61910522158
 Copying the excited state density for this state as the 1-particle RhoCI density.

 Excited State   2:      Singlet-A      6.6846 eV  185.48 nm  f=0.0044  <S**2>=0.000
      12 -> 15         0.13557
      13 -> 15         0.63270
      13 -> 16         0.11628
      13 -> 17        -0.20255

 Excited State   3:      Singlet-A      7.2894 eV  170.09 nm  f=0.0012  <S**2>=0.000
      12 -> 15        -0.18339
      12 -> 16        -0.12418
      13 -> 15        -0.12327
      13 -> 16         0.61159
      13 -> 17        -0.14137
      13 -> 21         0.15510

 Excited State   4:      Singlet-A      7.8219 eV  158.51 nm  f=0.0035  <S**2>=0.000
      10 -> 14         0.11461
      11 -> 14         0.66956

 Excited State   5:      Singlet-A      7.9875 eV  155.22 nm  f=0.0103  <S**2>=0.000
      10 -> 14        -0.18540
      12 -> 16        -0.14892
      13 -> 15         0.15183
      13 -> 16         0.12553
      13 -> 17         0.60556
      13 -> 22        -0.11806

 Excited State   6:      Singlet-A      8.2835 eV  149.68 nm  f=0.0074  <S**2>=0.000
      10 -> 14         0.58779
      12 -> 14         0.29649
      13 -> 17         0.16209
      13 -> 18        -0.11476

 Excited State   7:      Singlet-A      8.4079 eV  147.46 nm  f=0.0315  <S**2>=0.000
      10 -> 14        -0.29069
      11 -> 14         0.13687
      12 -> 14         0.54800
      13 -> 18        -0.28751

 Excited State   8:      Singlet-A      8.5338 eV  145.29 nm  f=0.0001  <S**2>=0.000
      12 -> 15         0.22296
      12 -> 16         0.12297
      13 -> 17        -0.10803
      13 -> 19         0.45593
      13 -> 22        -0.44716

 Excited State   9:      Singlet-A      8.8683 eV  139.81 nm  f=0.0009  <S**2>=0.000
      12 -> 15        -0.37138
      12 -> 16        -0.12482
      13 -> 19         0.42854
      13 -> 20         0.10789
      13 -> 21        -0.26919
      13 -> 22         0.20816

 Excited State  10:      Singlet-A      9.1102 eV  136.09 nm  f=0.0025  <S**2>=0.000
      12 -> 15         0.19376
      13 -> 19         0.29207
      13 -> 20        -0.16588
      13 -> 21         0.44465
      13 -> 22         0.36780

 Excited State  11:      Singlet-A      9.2603 eV  133.89 nm  f=0.0100  <S**2>=0.000
      12 -> 15         0.39194
      12 -> 17        -0.13361
      12 -> 20         0.11268
      13 -> 15        -0.16214
      13 -> 16         0.19449
      13 -> 18        -0.10792
      13 -> 21        -0.39077
      13 -> 22         0.25127

 Excited State  12:      Singlet-A      9.3742 eV  132.26 nm  f=0.2030  <S**2>=0.000
      11 -> 15         0.12419
      12 -> 14         0.29282
      13 -> 18         0.58266

 Excited State  13:      Singlet-A      9.4378 eV  131.37 nm  f=0.0592  <S**2>=0.000
      12 -> 16         0.39161
      13 -> 16         0.10262
      13 -> 18         0.10368
      13 -> 20         0.51404
      13 -> 22         0.12052

 Excited State  14:      Singlet-A      9.7359 eV  127.35 nm  f=0.0297  <S**2>=0.000
       8 -> 15        -0.13981
       9 -> 15         0.14180
      10 -> 15        -0.15443
      10 -> 16        -0.21694
      10 -> 17         0.28974
      10 -> 19        -0.12664
      11 -> 15         0.36631
      11 -> 17        -0.22417
      11 -> 19        -0.16088
      13 -> 18        -0.10238

 Excited State  15:      Singlet-A      9.8775 eV  125.52 nm  f=0.0224  <S**2>=0.000
      12 -> 15        -0.11876
      12 -> 16         0.44190
      12 -> 21         0.13163
      13 -> 15         0.12981
      13 -> 16         0.14606
      13 -> 20        -0.39932
      13 -> 21        -0.13691

 The electronic state is 1-A.
 Alpha  occ. eigenvalues --   -1.87792  -1.18379  -0.94759  -0.78249  -0.77832
 Alpha  occ. eigenvalues --   -0.67332  -0.60703  -0.49510  -0.48130  -0.39852
 Alpha  occ. eigenvalues --   -0.38597  -0.35829  -0.26126
 Alpha virt. eigenvalues --    0.18109   0.22080   0.24902   0.27891   0.29515
 Alpha virt. eigenvalues --    0.30247   0.33285   0.33666   0.36316   0.40213
 Alpha virt. eigenvalues --    0.45055

 Mulliken charges:
               1
     1  C   -0.033576
     2  C   -1.567447
     3  O    2.781745
     4  C   -1.577231
     5  C   -0.036068
     6  H    0.061821
     7  H    0.160463
     8  H    0.150671
     9  H    0.059622
 Sum of Mulliken charges =   0.00000

 Dipole moment (field-independent basis, Debye):
    X=             -7.0012    Y=             -6.6236    Z=              0.0350  Tot=              9.6380
 N-N= 1.031695011400D+02 E-N=-1.692686302939D+02  KE=-1.583653437750D+01
 Orbital energies and kinetic energies (alpha):
                                 1                 2
   1         O                -1.877922         -1.362375
   2         O                -1.183791         -1.078286
   3         O                -0.947592         -0.876861
   4         O                -0.782492         -0.697956
   5         O                -0.778318         -0.639548
   6         O                -0.673318         -0.625802
   7         O                -0.607031         -0.537883

 Normal termination of Gaussian 09 at Tue Dec 15 17:08:03 2015.
