 Gaussian 09, Revision D.01,
 Gaussian 09:  ES64L-G09RevD.01 24-Apr-2013

 ------------------------------------------------------------
 #P AM1(Input,print) CIS(Singlets,NStates=15) pop(full) force
 ------------------------------------------------------------

 -----------------
 AM1-Reparam Input
 -----------------
 Symbolic Z-matrix:
 Charge =  0 Multiplicity = 1

                         Standard orientation:
 ---------------------------------------------------------------------
 Center     Atomic      Atomic             Coordinates (Angstroms)
 Number     Number       Type             X           Y           Z
 ---------------------------------------------------------------------
      1          6           0       -0.854886    0.855175    0.007371
      2          6           0       -1.039381   -0.523795   -0.018260
      3          8           0        0.161980   -1.110345    0.011342
      4          6           0        1.149741   -0.200510   -0.033841
      5          6           0        0.565601    1.020617    0.019370
      6          1           0        1.073919    1.971679   -0.025861
      7          1           0        2.154652   -0.508292    0.067459
      8          1           0       -1.846721   -1.133546    0.036402
      9          1           0       -1.604135    1.643992   -0.016579
 ---------------------------------------------------------------------

 SCF Done:  E(RAM1) =   1.81629559474     A.U. after   13 cycles

 Excitation energies and oscillator strengths:

 Excited State   1:      Singlet-A      5.7002 eV  217.51 nm  f=0.3386  <S**2>=0.000
      11 -> 17         0.10102
      13 -> 14         0.69041
 This state for optimization and/or second-order correction.
 Total Energy, E(CIS) =   2.02577481502
 Copying the excited state density for this state as the 1-particle RhoCI density.

 Excited State   2:      Singlet-A      6.6676 eV  185.95 nm  f=0.0010  <S**2>=0.000
      12 -> 14         0.69700

 Excited State   3:      Singlet-A      6.8136 eV  181.97 nm  f=0.0069  <S**2>=0.000
      13 -> 15         0.59787
      13 -> 16         0.27709
      13 -> 17        -0.20408

 Excited State   4:      Singlet-A      6.9775 eV  177.69 nm  f=0.0001  <S**2>=0.000
      10 -> 15        -0.11746
      13 -> 15        -0.27870
      13 -> 16         0.59166
      13 -> 18         0.14134
      13 -> 19         0.16739

 Excited State   5:      Singlet-A      7.7218 eV  160.56 nm  f=0.0041  <S**2>=0.000
      11 -> 14         0.69904

 Excited State   6:      Singlet-A      8.2373 eV  150.52 nm  f=0.0001  <S**2>=0.000
      13 -> 16        -0.13217
      13 -> 17        -0.17383
      13 -> 18         0.57474
      13 -> 21        -0.31843

 Excited State   7:      Singlet-A      8.5163 eV  145.58 nm  f=0.0074  <S**2>=0.000
      10 -> 16        -0.13048
      13 -> 15         0.16058
      13 -> 17         0.63523
      13 -> 18         0.17397

 Excited State   8:      Singlet-A      8.9400 eV  138.68 nm  f=0.0710  <S**2>=0.000
      10 -> 14         0.64329
      12 -> 15        -0.13245
      12 -> 17        -0.11274
      12 -> 18         0.10879

 Excited State   9:      Singlet-A      9.1021 eV  136.22 nm  f=0.0184  <S**2>=0.000
       9 -> 16        -0.10591
      10 -> 14        -0.18926
      11 -> 15         0.23212
      11 -> 17        -0.23140
      12 -> 16         0.37726
      12 -> 18         0.32880
      12 -> 21        -0.13593

 Excited State  10:      Singlet-A      9.1858 eV  134.97 nm  f=0.0006  <S**2>=0.000
      10 -> 15         0.11273
      13 -> 16        -0.12769
      13 -> 19         0.66185

 Excited State  11:      Singlet-A      9.5295 eV  130.11 nm  f=0.0868  <S**2>=0.000
      11 -> 15         0.20526
      11 -> 16        -0.10080
      12 -> 15         0.59081
      12 -> 17        -0.17307

 Excited State  12:      Singlet-A      9.6676 eV  128.25 nm  f=0.0058  <S**2>=0.000
      13 -> 18         0.32825
      13 -> 20        -0.16491
      13 -> 21         0.57775

 Excited State  13:      Singlet-A      9.8185 eV  126.28 nm  f=0.1691  <S**2>=0.000
      11 -> 15        -0.25321
      11 -> 16        -0.26954
      11 -> 17         0.16688
      12 -> 15         0.13439
      12 -> 16         0.47473
      12 -> 18        -0.12524
      12 -> 19         0.15869

 Excited State  14:      Singlet-A      9.8884 eV  125.38 nm  f=0.0895  <S**2>=0.000
      10 -> 16        -0.13072
      13 -> 20         0.65930
      13 -> 21         0.16831

 Excited State  15:      Singlet-A     10.1238 eV  122.47 nm  f=0.0664  <S**2>=0.000
       8 -> 16        -0.17651
       9 -> 15        -0.15304
       9 -> 16        -0.15543
      10 -> 14         0.13091
      11 -> 16         0.35799
      11 -> 18        -0.13099
      11 -> 19         0.27096
      12 -> 15         0.13873
      12 -> 17         0.28568
      12 -> 18        -0.11956
      12 -> 20        -0.14201

 The electronic state is 1-A.
 Alpha  occ. eigenvalues --   -1.95697  -1.21257  -0.99621  -0.82031  -0.80959
 Alpha  occ. eigenvalues --   -0.69909  -0.67208  -0.54204  -0.50134  -0.43278
 Alpha  occ. eigenvalues --   -0.42266  -0.38964  -0.29173
 Alpha virt. eigenvalues --    0.12592   0.19461   0.19980   0.25831   0.27301
 Alpha virt. eigenvalues --    0.29596   0.30961   0.33197   0.37421   0.45541
 Alpha virt. eigenvalues --    0.51379

 Mulliken charges:
               1
     1  C   -0.104709
     2  C   -1.956558
     3  O    3.151307
     4  C   -1.949998
     5  C   -0.092534
     6  H    0.160401
     7  H    0.319813
     8  H    0.309786
     9  H    0.162493
 Sum of Mulliken charges =   0.00000

 Dipole moment (field-independent basis, Debye):
    X=              1.5380    Y=             -9.2539    Z=              0.7549  Tot=              9.4111
 N-N= 1.044934597859D+02 E-N=-1.701608965093D+02  KE=-1.569940778962D+01
 Orbital energies and kinetic energies (alpha):
                                 1                 2
   1         O                -1.956971         -1.438196
   2         O                -1.212566         -1.068552
   3         O                -0.996212         -0.904532
   4         O                -0.820306         -0.644172
   5         O                -0.809590         -0.690335
   6         O                -0.699093         -0.573071
   7         O                -0.672079         -0.582583

 Normal termination of Gaussian 09 at Tue Dec 15 17:10:03 2015.
