 Gaussian 09, Revision D.01,
 Gaussian 09:  ES64L-G09RevD.01 24-Apr-2013

 ------------------------------------------------------------
 #P AM1(Input,print) CIS(Singlets,NStates=15) pop(full) force
 ------------------------------------------------------------

 -----------------
 AM1-Reparam Input
 -----------------
 Symbolic Z-matrix:
 Charge =  0 Multiplicity = 1

                         Standard orientation:
 ---------------------------------------------------------------------
 Center     Atomic      Atomic             Coordinates (Angstroms)
 Number     Number       Type             X           Y           Z
 ---------------------------------------------------------------------
      1          6           0       -0.357273    1.107183    0.008426
      2          6           0       -1.134583   -0.015534   -0.019840
      3          8           0       -0.369875   -1.079863    0.012951
      4          6           0        0.918742   -0.623146   -0.030174
      5          6           0        0.961139    0.656778    0.000726
      6          1           0        1.851394    1.255369    0.024804
      7          1           0        1.690044   -1.408432    0.072972
      8          1           0       -2.200424   -0.150930    0.036690
      9          1           0       -0.710163    2.191213    0.007102
 ---------------------------------------------------------------------

 SCF Done:  E(RAM1) =   1.74776740529     A.U. after   14 cycles

 Excitation energies and oscillator strengths:

 Excited State   1:      Singlet-A      5.4668 eV  226.80 nm  f=0.3225  <S**2>=0.000
      13 -> 14         0.69284
 This state for optimization and/or second-order correction.
 Total Energy, E(CIS) =   1.94866698288
 Copying the excited state density for this state as the 1-particle RhoCI density.

 Excited State   2:      Singlet-A      6.2179 eV  199.40 nm  f=0.0036  <S**2>=0.000
      13 -> 15         0.65837
      13 -> 17         0.20724

 Excited State   3:      Singlet-A      6.3677 eV  194.71 nm  f=0.0009  <S**2>=0.000
      11 -> 15        -0.11523
      13 -> 16         0.65703
      13 -> 19         0.10817
      13 -> 20         0.10688

 Excited State   4:      Singlet-A      7.1317 eV  173.85 nm  f=0.0002  <S**2>=0.000
      12 -> 14         0.67325
      13 -> 21        -0.17652

 Excited State   5:      Singlet-A      7.5754 eV  163.67 nm  f=0.0149  <S**2>=0.000
      13 -> 15        -0.17552
      13 -> 17         0.56765
      13 -> 20        -0.11940
      13 -> 21         0.31692

 Excited State   6:      Singlet-A      7.6610 eV  161.84 nm  f=0.0030  <S**2>=0.000
      12 -> 14         0.15645
      13 -> 16         0.11498
      13 -> 17        -0.32195
      13 -> 20        -0.19442
      13 -> 21         0.53853

 Excited State   7:      Singlet-A      8.1053 eV  152.97 nm  f=0.0010  <S**2>=0.000
      10 -> 14         0.59242
      11 -> 14        -0.30302
      13 -> 17        -0.11917
      13 -> 18        -0.16122

 Excited State   8:      Singlet-A      8.3037 eV  149.31 nm  f=0.0082  <S**2>=0.000
      10 -> 14         0.15757
      13 -> 16        -0.11790
      13 -> 18         0.62923
      13 -> 19         0.15888
      13 -> 20         0.12886

 Excited State   9:      Singlet-A      8.4837 eV  146.14 nm  f=0.0045  <S**2>=0.000
      13 -> 18        -0.23749
      13 -> 19         0.57201
      13 -> 20         0.30517

 Excited State  10:      Singlet-A      8.8223 eV  140.54 nm  f=0.0482  <S**2>=0.000
      10 -> 14         0.28088
      11 -> 14         0.53819
      12 -> 15         0.21608
      12 -> 16        -0.12047

 Excited State  11:      Singlet-A      9.0196 eV  137.46 nm  f=0.0852  <S**2>=0.000
      13 -> 19        -0.34444
      13 -> 20         0.55617
      13 -> 21         0.22432

 Excited State  12:      Singlet-A      9.2906 eV  133.45 nm  f=0.0440  <S**2>=0.000
       8 -> 15         0.17798
      10 -> 14         0.10266
      10 -> 15        -0.10913
      10 -> 17        -0.22126
      11 -> 14         0.22403
      11 -> 17         0.10052
      12 -> 15        -0.10009
      12 -> 16         0.43072
      12 -> 18         0.17259
      12 -> 20         0.11321
      12 -> 21        -0.22103

 Excited State  13:      Singlet-A      9.6443 eV  128.56 nm  f=0.2141  <S**2>=0.000
       8 -> 16         0.12462
      10 -> 15        -0.15752
      10 -> 17        -0.15536
      10 -> 18         0.10043
      11 -> 14        -0.18161
      12 -> 15         0.53573
      12 -> 18         0.18896
      12 -> 21        -0.12147

 Excited State  14:      Singlet-A      9.6740 eV  128.16 nm  f=0.0019  <S**2>=0.000
       7 -> 16         0.11817
      10 -> 15         0.19363
      10 -> 16         0.13527
      11 -> 15         0.53737
      11 -> 16         0.27528
      11 -> 17         0.12593
      13 -> 16         0.15321

 Excited State  15:      Singlet-A      9.7983 eV  126.54 nm  f=0.1714  <S**2>=0.000
       9 -> 16        -0.11490
      10 -> 15         0.27058
      10 -> 16         0.16437
      10 -> 17         0.21664
      11 -> 15        -0.11125
      12 -> 15         0.18081
      12 -> 16         0.41928
      12 -> 17         0.18570
      12 -> 19         0.16345
      12 -> 21         0.10872

 The electronic state is 1-A.
 Alpha  occ. eigenvalues --   -1.93200  -1.24508  -1.00299  -0.82356  -0.80558
 Alpha  occ. eigenvalues --   -0.68752  -0.64844  -0.53998  -0.51647  -0.42973
 Alpha  occ. eigenvalues --   -0.42569  -0.40130  -0.27744
 Alpha virt. eigenvalues --    0.13567   0.17796   0.18294   0.24854   0.26779
 Alpha virt. eigenvalues --    0.28887   0.29287   0.30058   0.38041   0.47037
 Alpha virt. eigenvalues --    0.51506

 Mulliken charges:
               1
     1  C   -0.181329
     2  C   -1.957153
     3  O    3.177021
     4  C   -1.911139
     5  C   -0.082636
     6  H    0.170230
     7  H    0.294886
     8  H    0.311985
     9  H    0.178134
 Sum of Mulliken charges =   0.00000

 Dipole moment (field-independent basis, Debye):
    X=             -3.0813    Y=             -9.7524    Z=              0.8216  Tot=             10.2605
 N-N= 1.048321743214D+02 E-N=-1.708868651750D+02  KE=-1.581038501004D+01
 Orbital energies and kinetic energies (alpha):
                                 1                 2
   1         O                -1.931996         -1.415784
   2         O                -1.245082         -1.114038
   3         O                -1.002989         -0.920512
   4         O                -0.823562         -0.624043
   5         O                -0.805584         -0.703662
   6         O                -0.687522         -0.578427
   7         O                -0.648444         -0.528204

 Normal termination of Gaussian 09 at Tue Dec 15 17:07:09 2015.
