 Gaussian 09, Revision D.01,
 Gaussian 09:  ES64L-G09RevD.01 24-Apr-2013

 ------------------------------------------------------------
 #P AM1(Input,print) CIS(Singlets,NStates=15) pop(full) force
 ------------------------------------------------------------

 -----------------
 AM1-Reparam Input
 -----------------
 Symbolic Z-matrix:
 Charge =  0 Multiplicity = 1

                         Standard orientation:
 ---------------------------------------------------------------------
 Center     Atomic      Atomic             Coordinates (Angstroms)
 Number     Number       Type             X           Y           Z
 ---------------------------------------------------------------------
      1          6           0       -0.743755    0.928976   -0.008493
      2          6           0       -1.092569   -0.362042   -0.008402
      3          8           0       -0.006767   -1.137432    0.000742
      4          6           0        1.131052   -0.315910   -0.016647
      5          6           0        0.702879    0.929417    0.010949
      6          1           0        1.371381    1.803845    0.032348
      7          1           0        2.052946   -0.811230    0.032611
      8          1           0       -1.994924   -0.820840    0.078009
      9          1           0       -1.360904    1.845042   -0.013350
 ---------------------------------------------------------------------

 SCF Done:  E(RAM1) =   1.73408743467     A.U. after   14 cycles

 Excitation energies and oscillator strengths:

 Excited State   1:      Singlet-A      5.2196 eV  237.53 nm  f=0.3432  <S**2>=0.000
      13 -> 14         0.69511
 This state for optimization and/or second-order correction.
 Total Energy, E(CIS) =   1.92590589897
 Copying the excited state density for this state as the 1-particle RhoCI density.

 Excited State   2:      Singlet-A      6.1923 eV  200.22 nm  f=0.0054  <S**2>=0.000
      13 -> 15         0.65338
      13 -> 17        -0.20128
      13 -> 19        -0.12396

 Excited State   3:      Singlet-A      6.5402 eV  189.57 nm  f=0.0013  <S**2>=0.000
      13 -> 16         0.61630
      13 -> 17        -0.13805
      13 -> 19         0.17938
      13 -> 20        -0.12726
      13 -> 21        -0.16659

 Excited State   4:      Singlet-A      6.9104 eV  179.42 nm  f=0.0002  <S**2>=0.000
      12 -> 14         0.66618
      13 -> 16         0.11721
      13 -> 20         0.12857

 Excited State   5:      Singlet-A      7.2600 eV  170.78 nm  f=0.0002  <S**2>=0.000
      12 -> 14        -0.19915
      13 -> 16         0.16447
      13 -> 19        -0.35072
      13 -> 20         0.52120

 Excited State   6:      Singlet-A      7.6147 eV  162.82 nm  f=0.0139  <S**2>=0.000
      10 -> 14         0.11924
      13 -> 15         0.17701
      13 -> 16         0.15056
      13 -> 17         0.63745

 Excited State   7:      Singlet-A      8.0763 eV  153.52 nm  f=0.0006  <S**2>=0.000
      10 -> 14         0.64547
      13 -> 17        -0.12747
      13 -> 18         0.19295
      13 -> 19        -0.10059

 Excited State   8:      Singlet-A      8.2635 eV  150.04 nm  f=0.0070  <S**2>=0.000
      10 -> 14        -0.21457
      13 -> 16         0.11434
      13 -> 18         0.62721
      13 -> 19        -0.11216
      13 -> 21         0.12689

 Excited State   9:      Singlet-A      8.3703 eV  148.12 nm  f=0.0001  <S**2>=0.000
      13 -> 18         0.20847
      13 -> 19         0.39462
      13 -> 20         0.40030
      13 -> 21        -0.34004

 Excited State  10:      Singlet-A      8.7844 eV  141.14 nm  f=0.0745  <S**2>=0.000
      11 -> 14         0.64043
      13 -> 21        -0.13287

 Excited State  11:      Singlet-A      8.8486 eV  140.12 nm  f=0.0939  <S**2>=0.000
      10 -> 14         0.10818
      11 -> 14         0.14190
      13 -> 19         0.35372
      13 -> 20         0.14615
      13 -> 21         0.55178

 Excited State  12:      Singlet-A      9.3338 eV  132.83 nm  f=0.0174  <S**2>=0.000
       8 -> 15         0.10277
      10 -> 16         0.11425
      10 -> 17        -0.25521
      12 -> 15         0.30212
      12 -> 16        -0.26938
      12 -> 18         0.14434
      12 -> 19        -0.19478
      12 -> 20         0.31637

 Excited State  13:      Singlet-A      9.8144 eV  126.33 nm  f=0.0859  <S**2>=0.000
      10 -> 15        -0.15551
      10 -> 17         0.10058
      11 -> 14         0.16974
      11 -> 15        -0.15928
      12 -> 15         0.49783
      12 -> 16         0.19407
      12 -> 20        -0.24108
      12 -> 21        -0.11591

 Excited State  14:      Singlet-A     10.0181 eV  123.76 nm  f=0.1198  <S**2>=0.000
      10 -> 15         0.10677
      10 -> 16         0.14237
      10 -> 17        -0.12159
      11 -> 15         0.45676
      12 -> 16         0.37627
      12 -> 17        -0.11169

 Excited State  15:      Singlet-A     10.0429 eV  123.45 nm  f=0.2146  <S**2>=0.000
      10 -> 15        -0.12350
      10 -> 16        -0.13049
      10 -> 17         0.16070
      11 -> 15         0.40769
      11 -> 16         0.10707
      11 -> 17        -0.10058
      12 -> 15         0.13721
      12 -> 16        -0.34879
      12 -> 17         0.13731
      12 -> 20        -0.16256

 The electronic state is 1-A.
 Alpha  occ. eigenvalues --   -1.92113  -1.22359  -1.01639  -0.82549  -0.81058
 Alpha  occ. eigenvalues --   -0.69144  -0.63941  -0.55601  -0.52015  -0.43720
 Alpha  occ. eigenvalues --   -0.43259  -0.40181  -0.27267
 Alpha virt. eigenvalues --    0.12366   0.18590   0.19953   0.24928   0.26953
 Alpha virt. eigenvalues --    0.28196   0.28496   0.29073   0.35876   0.44606
 Alpha virt. eigenvalues --    0.49708

 Mulliken charges:
               1
     1  C   -0.188476
     2  C   -1.940490
     3  O    3.189782
     4  C   -1.912885
     5  C   -0.108819
     6  H    0.175775
     7  H    0.292612
     8  H    0.307016
     9  H    0.185484
 Sum of Mulliken charges =   0.00000

 Dipole moment (field-independent basis, Debye):
    X=             -0.1618    Y=            -10.2593    Z=              0.4608  Tot=             10.2709
 N-N= 1.042657915400D+02 E-N=-1.697977668108D+02  KE=-1.576873527949D+01
 Orbital energies and kinetic energies (alpha):
                                 1                 2
   1         O                -1.921126         -1.385679
   2         O                -1.223591         -1.090605
   3         O                -1.016391         -0.929985
   4         O                -0.825488         -0.649743
   5         O                -0.810579         -0.700515
   6         O                -0.691442         -0.571195
   7         O                -0.639410         -0.515145

 Normal termination of Gaussian 09 at Tue Dec 15 17:07:08 2015.
