 Gaussian 09, Revision D.01,
 Gaussian 09:  ES64L-G09RevD.01 24-Apr-2013

 ------------------------------------------------------------
 #P AM1(Input,print) CIS(Singlets,NStates=15) pop(full) force
 ------------------------------------------------------------

 -----------------
 AM1-Reparam Input
 -----------------
 Symbolic Z-matrix:
 Charge =  0 Multiplicity = 1

                         Standard orientation:
 ---------------------------------------------------------------------
 Center     Atomic      Atomic             Coordinates (Angstroms)
 Number     Number       Type             X           Y           Z
 ---------------------------------------------------------------------
      1          6           0        0.222048    1.174549   -0.022903
      2          6           0        1.125406    0.115966    0.022755
      3          8           0        0.481424   -1.064922   -0.017949
      4          6           0       -0.810911   -0.774028    0.015656
      5          6           0       -1.055215    0.593731   -0.003601
      6          1           0       -1.979509    1.086894    0.028569
      7          1           0       -1.545866   -1.581484    0.001573
      8          1           0        2.236428    0.095079    0.020905
      9          1           0        0.549588    2.257576    0.021105
 ---------------------------------------------------------------------

 SCF Done:  E(RAM1) =   2.57787484501     A.U. after   13 cycles

 Excitation energies and oscillator strengths:

 Excited State   1:      Singlet-A      5.3331 eV  232.48 nm  f=0.3492  <S**2>=0.000
      13 -> 14         0.69757
 This state for optimization and/or second-order correction.
 Total Energy, E(CIS) =   2.77386246025
 Copying the excited state density for this state as the 1-particle RhoCI density.

 Excited State   2:      Singlet-A      6.4759 eV  191.45 nm  f=0.0003  <S**2>=0.000
      13 -> 15         0.66577
      13 -> 17        -0.12002
      13 -> 19         0.14225

 Excited State   3:      Singlet-A      6.6437 eV  186.62 nm  f=0.0044  <S**2>=0.000
      11 -> 15         0.10267
      12 -> 14        -0.11069
      13 -> 16         0.66598
      13 -> 18         0.12617

 Excited State   4:      Singlet-A      6.8035 eV  182.24 nm  f=0.0008  <S**2>=0.000
      10 -> 14        -0.12487
      12 -> 14         0.67944

 Excited State   5:      Singlet-A      7.3536 eV  168.60 nm  f=0.0042  <S**2>=0.000
      10 -> 14         0.61222
      11 -> 14        -0.31345
      12 -> 14         0.11553

 Excited State   6:      Singlet-A      8.1629 eV  151.89 nm  f=0.0001  <S**2>=0.000
      11 -> 16         0.10554
      13 -> 15         0.10897
      13 -> 17         0.65670
      13 -> 18         0.12972
      13 -> 21        -0.13068

 Excited State   7:      Singlet-A      8.3819 eV  147.92 nm  f=0.1203  <S**2>=0.000
      10 -> 14         0.31420
      11 -> 14         0.62631

 Excited State   8:      Singlet-A      9.2293 eV  134.34 nm  f=0.0063  <S**2>=0.000
       7 -> 16         0.13107
      10 -> 15        -0.10569
      11 -> 15        -0.35718
      11 -> 16         0.20827
      13 -> 17        -0.12629
      13 -> 18         0.52102

 Excited State   9:      Singlet-A      9.3520 eV  132.58 nm  f=0.0045  <S**2>=0.000
       8 -> 16         0.12277
       9 -> 15         0.13116
      10 -> 16         0.31981
      10 -> 18         0.19295
      11 -> 16        -0.19781
      12 -> 15         0.35201
      12 -> 17        -0.30635

 Excited State  10:      Singlet-A      9.4885 eV  130.67 nm  f=0.0063  <S**2>=0.000
       7 -> 15         0.13641
      10 -> 16        -0.14640
      11 -> 15        -0.24476
      11 -> 16        -0.34664
      12 -> 15        -0.13502
      13 -> 19         0.49014

 Excited State  11:      Singlet-A      9.7334 eV  127.38 nm  f=0.2571  <S**2>=0.000
      10 -> 16        -0.23265
      12 -> 15         0.42637
      12 -> 16        -0.42003
      12 -> 18        -0.13012
      12 -> 19         0.11305

 Excited State  12:      Singlet-A      9.9097 eV  125.11 nm  f=0.1068  <S**2>=0.000
      10 -> 15         0.44646
      10 -> 16         0.20195
      10 -> 19         0.14896
      11 -> 15        -0.19899
      12 -> 15        -0.21904
      12 -> 16        -0.27900
      13 -> 19        -0.12970

 Excited State  13:      Singlet-A     10.0947 eV  122.82 nm  f=0.0069  <S**2>=0.000
      10 -> 16         0.21261
      11 -> 16         0.44800
      13 -> 15        -0.17537
      13 -> 18        -0.17471
      13 -> 19         0.38310

 Excited State  14:      Singlet-A     10.1655 eV  121.97 nm  f=0.0029  <S**2>=0.000
      10 -> 15         0.22229
      11 -> 15         0.43843
      12 -> 16        -0.10116
      13 -> 16        -0.14547
      13 -> 18         0.36747
      13 -> 19         0.21984

 Excited State  15:      Singlet-A     10.3086 eV  120.27 nm  f=0.0035  <S**2>=0.000
       6 -> 16         0.10481
       8 -> 15         0.16196
       8 -> 16        -0.11398
       9 -> 15         0.23195
       9 -> 16         0.13142
      10 -> 15         0.27589
      10 -> 16        -0.10505
      10 -> 17         0.16937
      10 -> 19         0.14953
      12 -> 15         0.13909
      12 -> 16         0.36083
      12 -> 17         0.20461

 The electronic state is 1-A.
 Alpha  occ. eigenvalues --   -1.84810  -1.12224  -0.86183  -0.79323  -0.73986
 Alpha  occ. eigenvalues --   -0.66291  -0.63304  -0.55104  -0.54241  -0.44678
 Alpha  occ. eigenvalues --   -0.44052  -0.43080  -0.30998
 Alpha virt. eigenvalues --    0.09089   0.16500   0.16913   0.25297   0.27395
 Alpha virt. eigenvalues --    0.29145   0.35018   0.40114   0.50490   0.58163
 Alpha virt. eigenvalues --    0.62105

 Mulliken charges:
               1
     1  C   -0.154461
     2  C   -2.015832
     3  O    3.422095
     4  C   -2.034347
     5  C   -0.164833
     6  H    0.180848
     7  H    0.293139
     8  H    0.281860
     9  H    0.191532
 Sum of Mulliken charges =   0.00000

 Dipole moment (field-independent basis, Debye):
    X=              4.5374    Y=             -9.9659    Z=             -0.5066  Tot=             10.9620
 N-N= 1.039551432004D+02 E-N=-1.696616660725D+02  KE=-1.432735672975D+01
 Orbital energies and kinetic energies (alpha):
                                 1                 2
   1         O                -1.848097         -1.264386
   2         O                -1.122245         -0.971276
   3         O                -0.861834         -0.776889
   4         O                -0.793228         -0.531954
   5         O                -0.739857         -0.615100
   6         O                -0.662910         -0.551177
   7         O                -0.633042         -0.495791

 Normal termination of Gaussian 09 at Tue Dec 15 17:07:46 2015.
