 Gaussian 09, Revision D.01,
 Gaussian 09:  ES64L-G09RevD.01 24-Apr-2013

 -------------------------------------------------------
 #P B3LYP/3-21G CIS(Singlets,NStates=15) pop(full) force
 -------------------------------------------------------

 --------
 FuranDFT
 --------
 Symbolic Z-matrix:
 Charge =  0 Multiplicity = 1

                         Standard orientation:
 ---------------------------------------------------------------------
 Center     Atomic      Atomic             Coordinates (Angstroms)
 Number     Number       Type             X           Y           Z
 ---------------------------------------------------------------------
      1          6           0       -0.665865    0.957278    0.014724
      2          6           0       -1.132175   -0.269605   -0.006172
      3          8           0       -0.098945   -1.117611    0.002424
      4          6           0        1.108963   -0.423892   -0.004289
      5          6           0        0.776661    0.915995   -0.001533
      6          1           0        1.541009    1.678498   -0.014108
      7          1           0        2.043037   -1.016907    0.012523
      8          1           0       -2.092149   -0.719377   -0.010107
      9          1           0       -1.225847    1.920021   -0.024073
 ---------------------------------------------------------------------

 SCF Done:  E(RB3LYP) =  -228.741552141     A.U. after   14 cycles

 Excitation energies and oscillator strengths:

 Excited State   1:      Singlet-A      7.2665 eV  170.62 nm  f=0.0496  <S**2>=0.000
      17 -> 19         0.48621
      18 -> 19         0.32436
      18 -> 20         0.37709
 This state for optimization and/or second-order correction.
 Total Energy, E(CIS) =  -228.474513538
 Copying the excited state density for this state as the 1-particle RhoCI density.

 Excited State   2:      Singlet-A      7.5334 eV  164.58 nm  f=0.1835  <S**2>=0.000
      17 -> 19        -0.23504
      18 -> 19         0.59786
      18 -> 20        -0.23973

 Excited State   3:      Singlet-A      8.4886 eV  146.06 nm  f=0.0033  <S**2>=0.000
      16 -> 19         0.70314

 Excited State   4:      Singlet-A      8.7100 eV  142.35 nm  f=0.0004  <S**2>=0.000
      18 -> 21         0.67057
      18 -> 22        -0.20386

 Excited State   5:      Singlet-A      9.1751 eV  135.13 nm  f=0.0008  <S**2>=0.000
      18 -> 21         0.20170
      18 -> 22         0.66739

 Excited State   6:      Singlet-A      9.4507 eV  131.19 nm  f=0.2257  <S**2>=0.000
      17 -> 19         0.21203
      17 -> 20         0.59495
      18 -> 20        -0.24684

 Excited State   7:      Singlet-A      9.5194 eV  130.24 nm  f=0.0037  <S**2>=0.000
      17 -> 21         0.38762
      18 -> 23         0.55739
      18 -> 24        -0.10354

 Excited State   8:      Singlet-A      9.6930 eV  127.91 nm  f=0.0131  <S**2>=0.000
      15 -> 19         0.27424
      17 -> 21         0.51288
      17 -> 22        -0.13767
      18 -> 23        -0.34417

 Excited State   9:      Singlet-A      9.8571 eV  125.78 nm  f=0.1857  <S**2>=0.000
      15 -> 19         0.44550
      16 -> 20         0.13234
      17 -> 19         0.21387
      17 -> 20        -0.21545
      17 -> 21        -0.22829
      18 -> 20        -0.27870
      18 -> 23         0.16531

 Excited State  10:      Singlet-A      9.9036 eV  125.19 nm  f=0.2933  <S**2>=0.000
      15 -> 19         0.41895
      16 -> 20         0.11602
      17 -> 19        -0.26700
      17 -> 20         0.24064
      18 -> 20         0.34089
      18 -> 23         0.14211

 Excited State  11:      Singlet-A     10.1040 eV  122.71 nm  f=0.0003  <S**2>=0.000
      17 -> 21         0.15602
      17 -> 22         0.67805

 Excited State  12:      Singlet-A     10.3166 eV  120.18 nm  f=0.0019  <S**2>=0.000
      14 -> 19         0.26407
      15 -> 19        -0.15442
      16 -> 20         0.60689
      18 -> 24         0.16859

 Excited State  13:      Singlet-A     10.3692 eV  119.57 nm  f=0.0023  <S**2>=0.000
      16 -> 20        -0.13295
      18 -> 24         0.67054

 Excited State  14:      Singlet-A     10.6581 eV  116.33 nm  f=0.0010  <S**2>=0.000
      14 -> 19         0.25503
      16 -> 20        -0.10675
      17 -> 23         0.63378

 Excited State  15:      Singlet-A     10.7868 eV  114.94 nm  f=0.0028  <S**2>=0.000
      14 -> 19         0.57566
      16 -> 20        -0.24600
      17 -> 23        -0.25959
      17 -> 24         0.15049

 The electronic state is 1-A.
 Alpha  occ. eigenvalues --  -19.10343 -10.18020 -10.17079 -10.12802 -10.12270
 Alpha  occ. eigenvalues --   -1.12259  -0.79864  -0.75540  -0.60096  -0.57105
 Alpha  occ. eigenvalues --   -0.53457  -0.45290  -0.44606  -0.42287  -0.39316
 Alpha  occ. eigenvalues --   -0.34830  -0.27241  -0.23672
 Alpha virt. eigenvalues --    0.02342   0.08459   0.12910   0.14306   0.16419
 Alpha virt. eigenvalues --    0.18387   0.21602   0.23208   0.35939   0.42092
 Alpha virt. eigenvalues --    0.48992   0.68286   0.69783   0.70356   0.75448

 Mulliken charges:
               1
     1  C   -0.266636
     2  C    0.133035
     3  O   -0.498976
     4  C    0.071649
     5  C   -0.254018
     6  H    0.189458
     7  H    0.219795
     8  H    0.225014
     9  H    0.180679
 Sum of Mulliken charges =   0.00000

 Dipole moment (field-independent basis, Debye):
    X=              0.1413    Y=              0.5602    Z=             -0.0375  Tot=              0.5790
 Quadrupole moment (field-independent basis, Debye-Ang):
   XX=            -23.1242   YY=            -28.2280   ZZ=            -31.8165
   XY=             -0.2427   XZ=              0.0753   YZ=             -0.0970

 Normal termination of Gaussian 09 at Tue Dec 15 16:18:50 2015.
