 Gaussian 09, Revision D.01,
 Gaussian 09:  ES64L-G09RevD.01 24-Apr-2013

 ------------------------------------------------------------
 #P AM1(Input,print) CIS(Singlets,NStates=15) pop(full) force
 ------------------------------------------------------------

 -----------------
 AM1-Reparam Input
 -----------------
 Symbolic Z-matrix:
 Charge =  0 Multiplicity = 1

                         Standard orientation:
 ---------------------------------------------------------------------
 Center     Atomic      Atomic             Coordinates (Angstroms)
 Number     Number       Type             X           Y           Z
 ---------------------------------------------------------------------
      1          6           0        0.956267    0.768817   -0.033050
      2          6           0       -0.446032    1.036165    0.027912
      3          8           0       -1.161625   -0.059223   -0.012288
      4          6           0       -0.315899   -1.090225   -0.000004
      5          6           0        1.029584   -0.673188   -0.002364
      6          1           0        1.929279   -1.218888    0.064128
      7          1           0       -0.770907   -2.058547    0.023451
      8          1           0       -0.921401    2.023070    0.013819
      9          1           0        1.712513    1.478739    0.041936
 ---------------------------------------------------------------------

 SCF Done:  E(RAM1) =   2.58516599609     A.U. after   13 cycles

 Excitation energies and oscillator strengths:

 Excited State   1:      Singlet-A      5.2372 eV  236.74 nm  f=0.3687  <S**2>=0.000
      13 -> 14         0.69827
 This state for optimization and/or second-order correction.
 Total Energy, E(CIS) =   2.77762883933
 Copying the excited state density for this state as the 1-particle RhoCI density.

 Excited State   2:      Singlet-A      6.4312 eV  192.79 nm  f=0.0010  <S**2>=0.000
      13 -> 15         0.65381
      13 -> 16        -0.11706
      13 -> 17        -0.16296
      13 -> 19        -0.10778

 Excited State   3:      Singlet-A      6.6154 eV  187.42 nm  f=0.0029  <S**2>=0.000
      11 -> 14         0.15020
      12 -> 14         0.67815

 Excited State   4:      Singlet-A      6.7386 eV  183.99 nm  f=0.0048  <S**2>=0.000
      13 -> 15         0.12796
      13 -> 16         0.65846
      13 -> 18        -0.10783

 Excited State   5:      Singlet-A      7.4591 eV  166.22 nm  f=0.0055  <S**2>=0.000
      10 -> 14         0.66344
      11 -> 14        -0.21453

 Excited State   6:      Singlet-A      8.1279 eV  152.54 nm  f=0.0008  <S**2>=0.000
      11 -> 16        -0.10851
      13 -> 15         0.11849
      13 -> 17         0.65368
      13 -> 21         0.12836

 Excited State   7:      Singlet-A      8.2199 eV  150.83 nm  f=0.1235  <S**2>=0.000
      10 -> 14         0.21939
      11 -> 14         0.64712
      12 -> 14        -0.14982

 Excited State   8:      Singlet-A      9.3292 eV  132.90 nm  f=0.0100  <S**2>=0.000
       7 -> 15         0.11702
      11 -> 15         0.44356
      12 -> 15        -0.23370
      12 -> 16         0.10231
      13 -> 18        -0.42978

 Excited State   9:      Singlet-A      9.4149 eV  131.69 nm  f=0.0398  <S**2>=0.000
       8 -> 16         0.11499
       9 -> 15        -0.12170
      10 -> 15         0.15547
      10 -> 16         0.22014
      10 -> 18        -0.14924
      11 -> 15         0.20576
      11 -> 16        -0.16070
      12 -> 15         0.37117
      12 -> 16        -0.13643
      12 -> 17        -0.29398
      13 -> 18        -0.17462

 Excited State  10:      Singlet-A      9.5337 eV  130.05 nm  f=0.0129  <S**2>=0.000
       7 -> 16         0.10796
      11 -> 15        -0.10984
      11 -> 16        -0.42258
      12 -> 16         0.22974
      13 -> 19         0.46657

 Excited State  11:      Singlet-A      9.9083 eV  125.13 nm  f=0.1606  <S**2>=0.000
      10 -> 15         0.44409
      10 -> 16         0.15668
      10 -> 18        -0.13634
      11 -> 15        -0.19884
      12 -> 15        -0.37691

 Excited State  12:      Singlet-A     10.0352 eV  123.55 nm  f=0.0751  <S**2>=0.000
      10 -> 15        -0.10842
      10 -> 16         0.25169
      12 -> 16         0.52482
      12 -> 19         0.10989
      13 -> 19        -0.26957

 Excited State  13:      Singlet-A     10.0976 eV  122.79 nm  f=0.0325  <S**2>=0.000
      10 -> 16         0.18882
      11 -> 15         0.32936
      11 -> 16         0.19386
      12 -> 15        -0.15021
      12 -> 16         0.11939
      13 -> 15         0.16422
      13 -> 18         0.35862
      13 -> 19         0.25019

 Excited State  14:      Singlet-A     10.2995 eV  120.38 nm  f=0.0100  <S**2>=0.000
       9 -> 14         0.18683
      11 -> 15        -0.20059
      11 -> 16         0.40610
      13 -> 16        -0.15691
      13 -> 18        -0.32834
      13 -> 19         0.27950

 Excited State  15:      Singlet-A     10.4266 eV  118.91 nm  f=0.0181  <S**2>=0.000
       8 -> 15         0.17801
       9 -> 14         0.22511
       9 -> 15        -0.18809
       9 -> 16        -0.11861
      10 -> 15         0.27912
      10 -> 16        -0.17285
      10 -> 17         0.13896
      10 -> 19        -0.17043
      12 -> 15         0.21079
      12 -> 16         0.18778
      12 -> 17         0.24241

 The electronic state is 1-A.
 Alpha  occ. eigenvalues --   -1.85306  -1.10951  -0.86621  -0.79924  -0.74348
 Alpha  occ. eigenvalues --   -0.67011  -0.63270  -0.55724  -0.54803  -0.46332
 Alpha  occ. eigenvalues --   -0.44642  -0.43831  -0.31591
 Alpha virt. eigenvalues --    0.07690   0.15894   0.16768   0.24791   0.27475
 Alpha virt. eigenvalues --    0.28644   0.34337   0.38760   0.51157   0.58526
 Alpha virt. eigenvalues --    0.62920

 Mulliken charges:
               1
     1  C   -0.161120
     2  C   -2.049283
     3  O    3.418660
     4  C   -2.010332
     5  C   -0.126050
     6  H    0.179608
     7  H    0.272166
     8  H    0.298066
     9  H    0.178285
 Sum of Mulliken charges =   0.00000

 Dipole moment (field-independent basis, Debye):
    X=            -10.5861    Y=             -0.3296    Z=             -0.2518  Tot=             10.5942
 N-N= 1.038604633877D+02 E-N=-1.693356360323D+02  KE=-1.432787403386D+01
 Orbital energies and kinetic energies (alpha):
                                 1                 2
   1         O                -1.853061         -1.270856
   2         O                -1.109510         -0.961218
   3         O                -0.866210         -0.747999
   4         O                -0.799238         -0.564795
   5         O                -0.743480         -0.618851
   6         O                -0.670106         -0.563263
   7         O                -0.632703         -0.486384

 Normal termination of Gaussian 09 at Tue Dec 15 17:07:32 2015.
