 Gaussian 09, Revision D.01,
 Gaussian 09:  ES64L-G09RevD.01 24-Apr-2013

 ------------------------------------------------------------
 #P AM1(Input,print) CIS(Singlets,NStates=15) pop(full) force
 ------------------------------------------------------------

 -----------------
 AM1-Reparam Input
 -----------------
 Symbolic Z-matrix:
 Charge =  0 Multiplicity = 1

                         Standard orientation:
 ---------------------------------------------------------------------
 Center     Atomic      Atomic             Coordinates (Angstroms)
 Number     Number       Type             X           Y           Z
 ---------------------------------------------------------------------
      1          6           0        0.956267    0.768817   -0.033050
      2          6           0       -0.446032    1.036165    0.027912
      3          8           0       -1.161625   -0.059223   -0.012288
      4          6           0       -0.315899   -1.090225   -0.000004
      5          6           0        1.029584   -0.673188   -0.002364
      6          1           0        1.929279   -1.218888    0.064128
      7          1           0       -0.770907   -2.058547    0.023451
      8          1           0       -0.921401    2.023070    0.013819
      9          1           0        1.712513    1.478739    0.041936
 ---------------------------------------------------------------------

 SCF Done:  E(RAM1) =   1.65515299069     A.U. after   13 cycles

 Excitation energies and oscillator strengths:

 Excited State   1:      Singlet-A      5.5278 eV  224.29 nm  f=0.3539  <S**2>=0.000
      13 -> 14         0.69452
 This state for optimization and/or second-order correction.
 Total Energy, E(CIS) =   1.85829638225
 Copying the excited state density for this state as the 1-particle RhoCI density.

 Excited State   2:      Singlet-A      6.5378 eV  189.64 nm  f=0.0081  <S**2>=0.000
      13 -> 15         0.64181
      13 -> 17         0.26166

 Excited State   3:      Singlet-A      6.8723 eV  180.41 nm  f=0.0005  <S**2>=0.000
      12 -> 15        -0.10704
      13 -> 16         0.62324
      13 -> 18        -0.15653
      13 -> 19         0.23650

 Excited State   4:      Singlet-A      7.1116 eV  174.34 nm  f=0.0037  <S**2>=0.000
      11 -> 14         0.56592
      12 -> 14        -0.38165

 Excited State   5:      Singlet-A      7.7076 eV  160.86 nm  f=0.0006  <S**2>=0.000
      11 -> 14         0.11110
      13 -> 16        -0.14510
      13 -> 18         0.13242
      13 -> 19         0.51573
      13 -> 21        -0.37724

 Excited State   6:      Singlet-A      8.0492 eV  154.03 nm  f=0.0267  <S**2>=0.000
      10 -> 14         0.33736
      12 -> 16         0.11156
      13 -> 15        -0.19800
      13 -> 17         0.54046

 Excited State   7:      Singlet-A      8.1769 eV  151.63 nm  f=0.0086  <S**2>=0.000
      10 -> 14         0.54830
      11 -> 14         0.14913
      12 -> 14         0.21412
      13 -> 17        -0.32701

 Excited State   8:      Singlet-A      8.4277 eV  147.12 nm  f=0.1076  <S**2>=0.000
      10 -> 14        -0.26817
      11 -> 14         0.35534
      12 -> 14         0.52779

 Excited State   9:      Singlet-A      8.4848 eV  146.12 nm  f=0.0024  <S**2>=0.000
      12 -> 15        -0.12335
      13 -> 16         0.17264
      13 -> 18         0.63159
      13 -> 19        -0.14354

 Excited State  10:      Singlet-A      8.9441 eV  138.62 nm  f=0.0035  <S**2>=0.000
      13 -> 18         0.20018
      13 -> 19         0.32495
      13 -> 20        -0.30756
      13 -> 21         0.49826

 Excited State  11:      Singlet-A      9.1682 eV  135.23 nm  f=0.0737  <S**2>=0.000
      13 -> 19         0.14573
      13 -> 20         0.59589
      13 -> 21         0.29138

 Excited State  12:      Singlet-A      9.3995 eV  131.91 nm  f=0.0043  <S**2>=0.000
      11 -> 15         0.25529
      12 -> 15         0.53574
      12 -> 17         0.15507
      13 -> 16         0.17649
      13 -> 20         0.10025

 Excited State  13:      Singlet-A      9.5395 eV  129.97 nm  f=0.0423  <S**2>=0.000
       8 -> 15         0.16015
      10 -> 15         0.31359
      10 -> 17         0.25953
      11 -> 15        -0.20568
      11 -> 16         0.26247
      11 -> 19         0.14219
      11 -> 21        -0.17198
      12 -> 16        -0.18511
      12 -> 21         0.10126

 Excited State  14:      Singlet-A      9.8778 eV  125.52 nm  f=0.0056  <S**2>=0.000
       7 -> 15         0.11959
      11 -> 15        -0.19991
      11 -> 16         0.24612
      12 -> 16         0.54494
      12 -> 18        -0.10710
      13 -> 15         0.15003
      13 -> 17        -0.11501

 Excited State  15:      Singlet-A     10.0074 eV  123.89 nm  f=0.0314  <S**2>=0.000
       8 -> 16         0.15612
      10 -> 21         0.14423
      11 -> 15         0.46548
      11 -> 16         0.23536
      11 -> 17         0.10325
      11 -> 20         0.14407
      12 -> 15        -0.27004
      12 -> 20        -0.10105

 The electronic state is 1-A.
 Alpha  occ. eigenvalues --   -1.91845  -1.20480  -0.98202  -0.82542  -0.80162
 Alpha  occ. eigenvalues --   -0.68990  -0.63219  -0.54259  -0.51747  -0.45164
 Alpha  occ. eigenvalues --   -0.42096  -0.41727  -0.29403
 Alpha virt. eigenvalues --    0.11536   0.17622   0.18746   0.24314   0.26018
 Alpha virt. eigenvalues --    0.27817   0.28119   0.29177   0.39591   0.48292
 Alpha virt. eigenvalues --    0.53169

 Mulliken charges:
               1
     1  C   -0.127888
     2  C   -1.991391
     3  O    3.176782
     4  C   -1.954018
     5  C   -0.082058
     6  H    0.177340
     7  H    0.299226
     8  H    0.321433
     9  H    0.180573
 Sum of Mulliken charges =   0.00000

 Dipole moment (field-independent basis, Debye):
    X=             -9.5569    Y=             -0.3065    Z=             -0.2158  Tot=              9.5643
 N-N= 1.038142614624D+02 E-N=-1.691851767836D+02  KE=-1.573634277226D+01
 Orbital energies and kinetic energies (alpha):
                                 1                 2
   1         O                -1.918454         -1.402366
   2         O                -1.204798         -1.095699
   3         O                -0.982024         -0.887714
   4         O                -0.825417         -0.651117
   5         O                -0.801615         -0.696582
   6         O                -0.689899         -0.594992
   7         O                -0.632189         -0.504670

 Normal termination of Gaussian 09 at Tue Dec 15 17:06:51 2015.
