 Gaussian 09, Revision D.01,
 Gaussian 09:  ES64L-G09RevD.01 24-Apr-2013

 -------------------------------------------------------
 #P B3LYP/3-21G CIS(Singlets,NStates=15) pop(full) force
 -------------------------------------------------------

 --------
 FuranDFT
 --------
 Symbolic Z-matrix:
 Charge =  0 Multiplicity = 1

                         Standard orientation:
 ---------------------------------------------------------------------
 Center     Atomic      Atomic             Coordinates (Angstroms)
 Number     Number       Type             X           Y           Z
 ---------------------------------------------------------------------
      1          6           0        0.961004    0.714901    0.003316
      2          6           0        0.937369   -0.618462   -0.000946
      3          8           0       -0.343133   -1.143220   -0.015483
      4          6           0       -1.091747   -0.002208    0.030209
      5          6           0       -0.447050    1.116828   -0.006390
      6          1           0       -0.799831    2.085926   -0.007749
      7          1           0       -2.187945   -0.289368   -0.041894
      8          1           0        1.755621   -1.305255    0.050051
      9          1           0        1.819766    1.388099   -0.033679
 ---------------------------------------------------------------------

 SCF Done:  E(RB3LYP) =  -228.735126606     A.U. after   14 cycles

 Excitation energies and oscillator strengths:

 Excited State   1:      Singlet-A      7.4569 eV  166.27 nm  f=0.1884  <S**2>=0.000
      17 -> 19         0.11362
      18 -> 19         0.67568
 This state for optimization and/or second-order correction.
 Total Energy, E(CIS) =  -228.461091620
 Copying the excited state density for this state as the 1-particle RhoCI density.

 Excited State   2:      Singlet-A      7.5533 eV  164.15 nm  f=0.0054  <S**2>=0.000
      17 -> 19         0.50486
      18 -> 19        -0.10969
      18 -> 20         0.47153

 Excited State   3:      Singlet-A      8.6561 eV  143.23 nm  f=0.0015  <S**2>=0.000
      18 -> 21         0.69462

 Excited State   4:      Singlet-A      9.3812 eV  132.16 nm  f=0.0100  <S**2>=0.000
      16 -> 19         0.68117

 Excited State   5:      Singlet-A      9.4194 eV  131.63 nm  f=0.0028  <S**2>=0.000
      15 -> 19         0.10022
      17 -> 21         0.15419
      18 -> 22         0.62714
      18 -> 23        -0.23960

 Excited State   6:      Singlet-A      9.5421 eV  129.93 nm  f=0.1182  <S**2>=0.000
      17 -> 19         0.13948
      17 -> 20         0.62155
      17 -> 21         0.12703
      18 -> 20        -0.15607

 Excited State   7:      Singlet-A      9.7683 eV  126.92 nm  f=0.0073  <S**2>=0.000
      15 -> 19        -0.17746
      17 -> 20         0.14890
      17 -> 21        -0.31694
      18 -> 22         0.27985
      18 -> 23         0.49613

 Excited State   8:      Singlet-A      9.8692 eV  125.63 nm  f=0.0025  <S**2>=0.000
      15 -> 19         0.57229
      17 -> 21        -0.39494

 Excited State   9:      Singlet-A      9.9322 eV  124.83 nm  f=0.0352  <S**2>=0.000
      15 -> 19         0.32747
      16 -> 19        -0.11712
      17 -> 19        -0.11671
      17 -> 21         0.42921
      18 -> 20         0.13095
      18 -> 23         0.37807

 Excited State  10:      Singlet-A     10.1362 eV  122.32 nm  f=0.4381  <S**2>=0.000
      15 -> 19        -0.10200
      15 -> 21         0.10397
      17 -> 19        -0.37081
      17 -> 20         0.19939
      17 -> 22         0.16025
      18 -> 20         0.41545
      18 -> 23        -0.15941

 Excited State  11:      Singlet-A     10.5298 eV  117.75 nm  f=0.0082  <S**2>=0.000
      14 -> 19         0.54990
      16 -> 20         0.18335
      17 -> 22         0.35131

 Excited State  12:      Singlet-A     10.5747 eV  117.25 nm  f=0.0262  <S**2>=0.000
      14 -> 19        -0.35515
      17 -> 22         0.56180

 Excited State  13:      Singlet-A     10.7290 eV  115.56 nm  f=0.0010  <S**2>=0.000
      18 -> 24         0.69168

 Excited State  14:      Singlet-A     10.9125 eV  113.62 nm  f=0.0016  <S**2>=0.000
      13 -> 19        -0.19817
      14 -> 19        -0.23466
      15 -> 20        -0.12704
      16 -> 20         0.52058
      18 -> 25        -0.31531

 Excited State  15:      Singlet-A     10.9311 eV  113.42 nm  f=0.0174  <S**2>=0.000
      13 -> 19        -0.11286
      15 -> 20        -0.10141
      16 -> 20         0.29261
      17 -> 23        -0.19900
      18 -> 25         0.56550

 The electronic state is 1-A.
 Alpha  occ. eigenvalues --  -19.11365 -10.17435 -10.17189 -10.12769 -10.11889
 Alpha  occ. eigenvalues --   -1.12662  -0.81978  -0.74754  -0.60637  -0.56664
 Alpha  occ. eigenvalues --   -0.54798  -0.44980  -0.43934  -0.41946  -0.39195
 Alpha  occ. eigenvalues --   -0.37473  -0.28215  -0.24017
 Alpha virt. eigenvalues --    0.02663   0.08422   0.12547   0.15187   0.16844
 Alpha virt. eigenvalues --    0.19254   0.20522   0.23904   0.36682   0.42694
 Alpha virt. eigenvalues --    0.46738   0.67504   0.69545   0.69925   0.75814

 Mulliken charges:
               1
     1  C   -0.245429
     2  C    0.071759
     3  O   -0.473242
     4  C    0.101522
     5  C   -0.254529
     6  H    0.194298
     7  H    0.201507
     8  H    0.212724
     9  H    0.191390
 Sum of Mulliken charges =   0.00000

 Dipole moment (field-independent basis, Debye):
    X=              0.3285    Y=              0.9016    Z=             -0.0157  Tot=              0.9597
 Quadrupole moment (field-independent basis, Debye-Ang):
   XX=            -24.4106   YY=            -27.7065   ZZ=            -31.6369
   XY=             -0.9897   XZ=              0.1631   YZ=             -0.1552

 Normal termination of Gaussian 09 at Tue Dec 15 16:20:33 2015.
