 Gaussian 09, Revision D.01,
 Gaussian 09:  ES64L-G09RevD.01 24-Apr-2013

 ------------------------------------------------------------
 #P AM1(Input,print) CIS(Singlets,NStates=15) pop(full) force
 ------------------------------------------------------------

 -----------------
 AM1-Reparam Input
 -----------------
 Symbolic Z-matrix:
 Charge =  0 Multiplicity = 1

                         Standard orientation:
 ---------------------------------------------------------------------
 Center     Atomic      Atomic             Coordinates (Angstroms)
 Number     Number       Type             X           Y           Z
 ---------------------------------------------------------------------
      1          6           0        0.811789    0.906537    0.025962
      2          6           0        1.075719   -0.432537   -0.019495
      3          8           0       -0.075229   -1.151355    0.012376
      4          6           0       -1.172783   -0.259584   -0.018905
      5          6           0       -0.628214    1.018835    0.000406
      6          1           0       -1.201693    1.945600   -0.018772
      7          1           0       -2.175478   -0.712502    0.035409
      8          1           0        1.920125   -1.066049   -0.008658
      9          1           0        1.539818    1.644287   -0.034797
 ---------------------------------------------------------------------

 SCF Done:  E(RAM1) =   2.02549435320     A.U. after   13 cycles

 Excitation energies and oscillator strengths:

 Excited State   1:      Singlet-A      5.3237 eV  232.89 nm  f=0.3526  <S**2>=0.000
      13 -> 14         0.69479
 This state for optimization and/or second-order correction.
 Total Energy, E(CIS) =   2.22113682677
 Copying the excited state density for this state as the 1-particle RhoCI density.

 Excited State   2:      Singlet-A      6.7236 eV  184.40 nm  f=0.0077  <S**2>=0.000
      13 -> 15         0.64084
      13 -> 17         0.23275
      13 -> 18        -0.12790

 Excited State   3:      Singlet-A      6.8508 eV  180.98 nm  f=0.0018  <S**2>=0.000
      12 -> 14         0.69110

 Excited State   4:      Singlet-A      7.1190 eV  174.16 nm  f=0.0055  <S**2>=0.000
      13 -> 16         0.61427
      13 -> 18         0.28986

 Excited State   5:      Singlet-A      7.6867 eV  161.30 nm  f=0.0067  <S**2>=0.000
      10 -> 14         0.65528
      11 -> 14        -0.23224

 Excited State   6:      Singlet-A      7.9233 eV  156.48 nm  f=0.0003  <S**2>=0.000
      13 -> 15        -0.13093
      13 -> 16         0.19296
      13 -> 17         0.15982
      13 -> 18        -0.23249
      13 -> 19         0.56346
      13 -> 20         0.13677

 Excited State   7:      Singlet-A      8.5814 eV  144.48 nm  f=0.0219  <S**2>=0.000
      11 -> 16         0.10698
      13 -> 15        -0.19169
      13 -> 17         0.61089
      13 -> 19        -0.21362

 Excited State   8:      Singlet-A      8.6571 eV  143.22 nm  f=0.1169  <S**2>=0.000
      10 -> 14         0.23382
      11 -> 14         0.65037

 Excited State   9:      Singlet-A      9.0098 eV  137.61 nm  f=0.0030  <S**2>=0.000
      11 -> 16         0.13581
      13 -> 16        -0.20141
      13 -> 17         0.12121
      13 -> 18         0.54381
      13 -> 19         0.32070

 Excited State  10:      Singlet-A      9.6353 eV  128.68 nm  f=0.0046  <S**2>=0.000
       9 -> 15        -0.10721
       9 -> 18         0.10883
      10 -> 15         0.16806
      10 -> 16         0.19055
      10 -> 17         0.20353
      12 -> 15         0.30191
      12 -> 16        -0.14006
      12 -> 17         0.16594
      12 -> 18        -0.21950
      12 -> 19         0.31094

 Excited State  11:      Singlet-A      9.7103 eV  127.68 nm  f=0.0090  <S**2>=0.000
      13 -> 18         0.15587
      13 -> 19        -0.10268
      13 -> 20         0.64379
      13 -> 21        -0.18520

 Excited State  12:      Singlet-A     10.0307 eV  123.61 nm  f=0.0617  <S**2>=0.000
      13 -> 20         0.19564
      13 -> 21         0.66448

 Excited State  13:      Singlet-A     10.1589 eV  122.05 nm  f=0.0659  <S**2>=0.000
      10 -> 15        -0.35609
      10 -> 17        -0.16194
      10 -> 18         0.10172
      11 -> 15         0.18835
      12 -> 15         0.44933
      12 -> 16         0.15610
      12 -> 17         0.17019
      12 -> 19        -0.11599

 Excited State  14:      Singlet-A     10.2520 eV  120.94 nm  f=0.1999  <S**2>=0.000
      10 -> 16         0.12283
      11 -> 15        -0.28719
      11 -> 16        -0.14149
      12 -> 16         0.51392
      12 -> 18         0.22178

 Excited State  15:      Singlet-A     10.3391 eV  119.92 nm  f=0.0519  <S**2>=0.000
       7 -> 15        -0.10736
      10 -> 15         0.24050
      10 -> 16         0.17395
      11 -> 15         0.48685
      11 -> 16         0.13951
      11 -> 17         0.11364
      12 -> 16         0.20701
      13 -> 15        -0.11057

 The electronic state is 1-A.
 Alpha  occ. eigenvalues --   -1.93286  -1.18455  -0.95343  -0.82360  -0.78533
 Alpha  occ. eigenvalues --   -0.68332  -0.64018  -0.55650  -0.54267  -0.44339
 Alpha  occ. eigenvalues --   -0.44128  -0.41831  -0.29667
 Alpha virt. eigenvalues --    0.10352   0.18584   0.20384   0.25009   0.27068
 Alpha virt. eigenvalues --    0.28154   0.29988   0.31193   0.34028   0.42661
 Alpha virt. eigenvalues --    0.47587

 Mulliken charges:
               1
     1  C   -0.235948
     2  C   -1.997238
     3  O    3.192409
     4  C   -2.002905
     5  C   -0.187637
     6  H    0.257512
     7  H    0.361848
     8  H    0.353423
     9  H    0.258536
 Sum of Mulliken charges =   0.00000

 Dipole moment (field-independent basis, Debye):
    X=             -0.4895    Y=            -10.4007    Z=              0.4786  Tot=             10.4233
 N-N= 1.037296708871D+02 E-N=-1.685642323359D+02  KE=-1.543989446656D+01
 Orbital energies and kinetic energies (alpha):
                                 1                 2
   1         O                -1.932859         -1.363831
   2         O                -1.184552         -1.053800
   3         O                -0.953430         -0.857191
   4         O                -0.823603         -0.620966
   5         O                -0.785333         -0.669917
   6         O                -0.683321         -0.575036
   7         O                -0.640179         -0.511901

 Normal termination of Gaussian 09 at Tue Dec 15 17:07:24 2015.
