 Gaussian 09, Revision D.01,
 Gaussian 09:  ES64L-G09RevD.01 24-Apr-2013

 ------------------------------------------------------------
 #P AM1(Input,print) CIS(Singlets,NStates=15) pop(full) force
 ------------------------------------------------------------

 -----------------
 AM1-Reparam Input
 -----------------
 Symbolic Z-matrix:
 Charge =  0 Multiplicity = 1

                         Standard orientation:
 ---------------------------------------------------------------------
 Center     Atomic      Atomic             Coordinates (Angstroms)
 Number     Number       Type             X           Y           Z
 ---------------------------------------------------------------------
      1          6           0        0.285540    1.128025   -0.022795
      2          6           0        1.182488    0.050844   -0.009044
      3          8           0        0.402109   -1.082291    0.000520
      4          6           0       -0.907967   -0.694371    0.000924
      5          6           0       -0.980951    0.676219    0.016464
      6          1           0       -1.943050    1.161635   -0.007027
      7          1           0       -1.636924   -1.524341   -0.014432
      8          1           0        2.254782   -0.096142    0.061871
      9          1           0        0.633659    2.152871    0.042130
 ---------------------------------------------------------------------

 SCF Done:  E(RAM1) =   1.68551180574     A.U. after   13 cycles

 Excitation energies and oscillator strengths:

 Excited State   1:      Singlet-A      5.7666 eV  215.00 nm  f=0.2895  <S**2>=0.000
      10 -> 17        -0.10827
      13 -> 14         0.68464
 This state for optimization and/or second-order correction.
 Total Energy, E(CIS) =   1.89743023199
 Copying the excited state density for this state as the 1-particle RhoCI density.

 Excited State   2:      Singlet-A      6.6297 eV  187.01 nm  f=0.0064  <S**2>=0.000
      11 -> 15         0.10257
      13 -> 15         0.61932
      13 -> 16         0.11701
      13 -> 17         0.26487

 Excited State   3:      Singlet-A      7.0730 eV  175.29 nm  f=0.0027  <S**2>=0.000
      11 -> 15        -0.12264
      11 -> 16        -0.10692
      13 -> 15        -0.14717
      13 -> 16         0.61100
      13 -> 17         0.14595
      13 -> 18         0.11091
      13 -> 19        -0.12484
      13 -> 21        -0.12107

 Excited State   4:      Singlet-A      7.5090 eV  165.12 nm  f=0.0012  <S**2>=0.000
      11 -> 14        -0.26160
      12 -> 14         0.60741
      13 -> 21        -0.16870

 Excited State   5:      Singlet-A      7.8207 eV  158.53 nm  f=0.0223  <S**2>=0.000
      10 -> 14         0.24801
      12 -> 14         0.10560
      13 -> 15        -0.18886
      13 -> 16        -0.12471
      13 -> 17         0.50692
      13 -> 21         0.28468

 Excited State   6:      Singlet-A      8.0416 eV  154.18 nm  f=0.0016  <S**2>=0.000
      10 -> 14         0.58298
      11 -> 14        -0.15663
      13 -> 17        -0.30796

 Excited State   7:      Singlet-A      8.1316 eV  152.47 nm  f=0.0054  <S**2>=0.000
      10 -> 14        -0.24416
      12 -> 14         0.14080
      13 -> 17        -0.18508
      13 -> 18         0.17105
      13 -> 19        -0.11534
      13 -> 21         0.56352

 Excited State   8:      Singlet-A      8.6706 eV  142.99 nm  f=0.0008  <S**2>=0.000
      13 -> 16        -0.15463
      13 -> 18         0.51179
      13 -> 19        -0.37337
      13 -> 21        -0.17604

 Excited State   9:      Singlet-A      8.7581 eV  141.57 nm  f=0.0878  <S**2>=0.000
      10 -> 14         0.13428
      11 -> 14         0.60912
      12 -> 14         0.28567

 Excited State  10:      Singlet-A      8.9801 eV  138.07 nm  f=0.0006  <S**2>=0.000
      13 -> 18         0.41551
      13 -> 19         0.56087

 Excited State  11:      Singlet-A      9.3904 eV  132.03 nm  f=0.0802  <S**2>=0.000
       8 -> 15        -0.10542
      10 -> 15        -0.16360
      10 -> 16        -0.16009
      10 -> 17        -0.25321
      10 -> 21         0.11235
      11 -> 15         0.11037
      11 -> 17         0.12744
      12 -> 15        -0.25778
      12 -> 17        -0.18387
      12 -> 21        -0.13696
      13 -> 14        -0.12217
      13 -> 20         0.34594

 Excited State  12:      Singlet-A      9.4546 eV  131.14 nm  f=0.0894  <S**2>=0.000
      10 -> 16         0.10699
      10 -> 17         0.15129
      11 -> 15        -0.13551
      12 -> 15         0.12075
      12 -> 17         0.10086
      13 -> 20         0.59396

 Excited State  13:      Singlet-A      9.6470 eV  128.52 nm  f=0.0014  <S**2>=0.000
      11 -> 15         0.48962
      11 -> 16         0.19536
      11 -> 17         0.17904
      12 -> 15         0.29460
      13 -> 15        -0.13419
      13 -> 16         0.17039
      13 -> 21         0.10163

 Excited State  14:      Singlet-A     10.0095 eV  123.87 nm  f=0.2757  <S**2>=0.000
       6 -> 15         0.10858
       8 -> 15        -0.20460
      10 -> 15         0.26757
      10 -> 19        -0.11678
      11 -> 15         0.12274
      11 -> 19         0.10114
      12 -> 15        -0.28636
      12 -> 16         0.31417
      12 -> 17         0.20107
      12 -> 19        -0.20386

 Excited State  15:      Singlet-A     10.0455 eV  123.42 nm  f=0.0460  <S**2>=0.000
      10 -> 15        -0.29289
      10 -> 17        -0.16434
      11 -> 16        -0.31205
      11 -> 18        -0.12344
      12 -> 15         0.21333
      12 -> 16         0.31652
      12 -> 17         0.16681
      12 -> 18         0.15814
      12 -> 20         0.12582

 The electronic state is 1-A.
 Alpha  occ. eigenvalues --   -1.90720  -1.23576  -0.98326  -0.81800  -0.80982
 Alpha  occ. eigenvalues --   -0.68217  -0.63185  -0.54478  -0.52241  -0.42898
 Alpha  occ. eigenvalues --   -0.41723  -0.41511  -0.29674
 Alpha virt. eigenvalues --    0.13398   0.17851   0.19393   0.23451   0.26774
 Alpha virt. eigenvalues --    0.28313   0.28902   0.29844   0.36254   0.45058
 Alpha virt. eigenvalues --    0.50075

 Mulliken charges:
               1
     1  C   -0.115262
     2  C   -1.964519
     3  O    3.191008
     4  C   -1.964067
     5  C   -0.105008
     6  H    0.181805
     7  H    0.298384
     8  H    0.299261
     9  H    0.178399
 Sum of Mulliken charges =   0.00000

 Dipole moment (field-independent basis, Debye):
    X=              3.1755    Y=             -9.6816    Z=              0.2068  Tot=             10.1912
 N-N= 1.038858807339D+02 E-N=-1.692778170863D+02  KE=-1.573631307126D+01
 Orbital energies and kinetic energies (alpha):
                                 1                 2
   1         O                -1.907199         -1.373262
   2         O                -1.235763         -1.111528
   3         O                -0.983260         -0.904679
   4         O                -0.818005         -0.633744
   5         O                -0.809822         -0.697553
   6         O                -0.682168         -0.597966
   7         O                -0.631847         -0.516428

 Normal termination of Gaussian 09 at Tue Dec 15 17:06:58 2015.
