 Gaussian 09, Revision D.01,
 Gaussian 09:  ES64L-G09RevD.01 24-Apr-2013

 ------------------------------------------------------------
 #P AM1(Input,print) CIS(Singlets,NStates=15) pop(full) force
 ------------------------------------------------------------

 -----------------
 AM1-Reparam Input
 -----------------
 Symbolic Z-matrix:
 Charge =  0 Multiplicity = 1

                         Standard orientation:
 ---------------------------------------------------------------------
 Center     Atomic      Atomic             Coordinates (Angstroms)
 Number     Number       Type             X           Y           Z
 ---------------------------------------------------------------------
      1          6           0        0.426935    1.086993    0.006452
      2          6           0        1.158484   -0.062068    0.034016
      3          8           0        0.323832   -1.092775   -0.013920
      4          6           0       -0.987586   -0.654582   -0.000887
      5          6           0       -0.950789    0.774502   -0.023468
      6          1           0       -1.781889    1.417671    0.030627
      7          1           0       -1.744242   -1.345937    0.070045
      8          1           0        2.197984   -0.256572   -0.078761
      9          1           0        0.855220    2.057965   -0.007227
 ---------------------------------------------------------------------

 SCF Done:  E(RAM1) =   1.67382173085     A.U. after   13 cycles

 Excitation energies and oscillator strengths:

 Excited State   1:      Singlet-A      5.5124 eV  224.92 nm  f=0.3330  <S**2>=0.000
      13 -> 14         0.69195
 This state for optimization and/or second-order correction.
 Total Energy, E(CIS) =   1.87639774851
 Copying the excited state density for this state as the 1-particle RhoCI density.

 Excited State   2:      Singlet-A      6.5718 eV  188.66 nm  f=0.0118  <S**2>=0.000
      13 -> 15         0.61775
      13 -> 16         0.20104
      13 -> 17         0.23525

 Excited State   3:      Singlet-A      7.0429 eV  176.04 nm  f=0.0035  <S**2>=0.000
      13 -> 15        -0.18004
      13 -> 16         0.57569
      13 -> 19         0.28108

 Excited State   4:      Singlet-A      7.1864 eV  172.53 nm  f=0.0014  <S**2>=0.000
      11 -> 14         0.25702
      12 -> 14         0.61298
      13 -> 16        -0.12781
      13 -> 18         0.11589

 Excited State   5:      Singlet-A      7.6646 eV  161.76 nm  f=0.0001  <S**2>=0.000
      12 -> 14        -0.16854
      13 -> 16        -0.16799
      13 -> 17         0.13057
      13 -> 18         0.28698
      13 -> 19         0.42946
      13 -> 20        -0.18220
      13 -> 21         0.32175

 Excited State   6:      Singlet-A      8.0519 eV  153.98 nm  f=0.0152  <S**2>=0.000
      10 -> 14         0.52649
      13 -> 15         0.14625
      13 -> 17        -0.38909
      13 -> 19         0.11383
      13 -> 21         0.13078

 Excited State   7:      Singlet-A      8.1567 eV  152.00 nm  f=0.0048  <S**2>=0.000
      10 -> 14         0.45681
      13 -> 15        -0.14706
      13 -> 17         0.47400
      13 -> 19        -0.12567

 Excited State   8:      Singlet-A      8.5580 eV  144.88 nm  f=0.1148  <S**2>=0.000
      11 -> 14         0.63557
      12 -> 14        -0.27129

 Excited State   9:      Singlet-A      8.7040 eV  142.44 nm  f=0.0007  <S**2>=0.000
      11 -> 16        -0.11913
      13 -> 16         0.17238
      13 -> 17        -0.10905
      13 -> 18         0.57570
      13 -> 19        -0.27097

 Excited State  10:      Singlet-A      8.9456 eV  138.60 nm  f=0.0018  <S**2>=0.000
      13 -> 18         0.21395
      13 -> 19         0.23530
      13 -> 20         0.53989
      13 -> 21        -0.29505

 Excited State  11:      Singlet-A      9.2872 eV  133.50 nm  f=0.0887  <S**2>=0.000
      13 -> 19        -0.22675
      13 -> 20         0.38784
      13 -> 21         0.51805

 Excited State  12:      Singlet-A      9.5339 eV  130.05 nm  f=0.0181  <S**2>=0.000
       8 -> 15        -0.10024
       9 -> 15         0.11341
       9 -> 19        -0.10438
      10 -> 15         0.29556
      10 -> 16         0.15464
      10 -> 17         0.26675
      12 -> 16         0.27043
      12 -> 17         0.16099
      12 -> 19         0.18194
      12 -> 20        -0.13510
      12 -> 21         0.18710

 Excited State  13:      Singlet-A      9.6939 eV  127.90 nm  f=0.0096  <S**2>=0.000
      11 -> 15        -0.41075
      11 -> 16        -0.17127
      11 -> 17        -0.12086
      12 -> 15         0.43227
      12 -> 17         0.10285
      13 -> 15         0.13065
      13 -> 16        -0.13049

 Excited State  14:      Singlet-A      9.8765 eV  125.54 nm  f=0.0785  <S**2>=0.000
      11 -> 15         0.42297
      11 -> 17         0.10952
      12 -> 15         0.43878
      12 -> 17         0.11257
      12 -> 19        -0.13760

 Excited State  15:      Singlet-A     10.2609 eV  120.83 nm  f=0.0065  <S**2>=0.000
       8 -> 16        -0.13780
      10 -> 20         0.12003
      11 -> 15         0.18241
      11 -> 16        -0.31598
      12 -> 16         0.35917
      12 -> 17        -0.13906
      12 -> 18        -0.14077
      12 -> 19        -0.11223
      12 -> 20         0.20344
      13 -> 17         0.10300

 The electronic state is 1-A.
 Alpha  occ. eigenvalues --   -1.91483  -1.21855  -0.99965  -0.82481  -0.81229
 Alpha  occ. eigenvalues --   -0.69356  -0.63571  -0.55751  -0.52317  -0.44816
 Alpha  occ. eigenvalues --   -0.42657  -0.42003  -0.29676
 Alpha virt. eigenvalues --    0.11524   0.17627   0.20407   0.23879   0.26131
 Alpha virt. eigenvalues --    0.27827   0.28035   0.28305   0.37144   0.45491
 Alpha virt. eigenvalues --    0.51210

 Mulliken charges:
               1
     1  C   -0.143948
     2  C   -1.962288
     3  O    3.197900
     4  C   -1.981845
     5  C   -0.094609
     6  H    0.184736
     7  H    0.302294
     8  H    0.314037
     9  H    0.183723
 Sum of Mulliken charges =   0.00000

 Dipole moment (field-independent basis, Debye):
    X=              3.1902    Y=             -9.0271    Z=             -0.4617  Tot=              9.5854
 N-N= 1.039204586320D+02 E-N=-1.691978494118D+02  KE=-1.575223905833D+01
 Orbital energies and kinetic energies (alpha):
                                 1                 2
   1         O                -1.914832         -1.384482
   2         O                -1.218546         -1.092911
   3         O                -0.999649         -0.908126
   4         O                -0.824809         -0.639797
   5         O                -0.812289         -0.712914
   6         O                -0.693557         -0.590474
   7         O                -0.635706         -0.508159

 Normal termination of Gaussian 09 at Tue Dec 15 17:06:54 2015.
