 Gaussian 09, Revision D.01,
 Gaussian 09:  ES64L-G09RevD.01 24-Apr-2013

 ------------------------------------------------------------
 #P AM1(Input,print) CIS(Singlets,NStates=15) pop(full) force
 ------------------------------------------------------------

 -----------------
 AM1-Reparam Input
 -----------------
 Symbolic Z-matrix:
 Charge =  0 Multiplicity = 1

                         Standard orientation:
 ---------------------------------------------------------------------
 Center     Atomic      Atomic             Coordinates (Angstroms)
 Number     Number       Type             X           Y           Z
 ---------------------------------------------------------------------
      1          6           0       -0.611481    1.018234   -0.012699
      2          6           0       -1.096582   -0.170793    0.015960
      3          8           0       -0.181562   -1.109748   -0.010608
      4          6           0        1.017743   -0.505011    0.001332
      5          6           0        0.894040    0.834652    0.013340
      6          1           0        1.602161    1.597933   -0.015683
      7          1           0        1.865715   -1.158445   -0.001804
      8          1           0       -2.192187   -0.563814    0.011929
      9          1           0       -1.045513    1.939813   -0.017174
 ---------------------------------------------------------------------

 SCF Done:  E(RAM1) =   2.88256475457     A.U. after   13 cycles

 Excitation energies and oscillator strengths:

 Excited State   1:      Singlet-A      4.8916 eV  253.46 nm  f=0.3554  <S**2>=0.000
      13 -> 14         0.69724
 This state for optimization and/or second-order correction.
 Total Energy, E(CIS) =   3.06232845815
 Copying the excited state density for this state as the 1-particle RhoCI density.

 Excited State   2:      Singlet-A      5.5569 eV  223.12 nm  f=0.0004  <S**2>=0.000
      13 -> 15         0.67169
      13 -> 18         0.16424

 Excited State   3:      Singlet-A      6.1856 eV  200.44 nm  f=0.0020  <S**2>=0.000
      13 -> 15         0.10378
      13 -> 16         0.62526
      13 -> 17         0.18006
      13 -> 18        -0.21580

 Excited State   4:      Singlet-A      6.2027 eV  199.89 nm  f=0.0001  <S**2>=0.000
      12 -> 14         0.69441

 Excited State   5:      Singlet-A      7.1295 eV  173.90 nm  f=0.0011  <S**2>=0.000
      13 -> 15        -0.10912
      13 -> 16         0.21093
      13 -> 18         0.56497
      13 -> 19        -0.25269
      13 -> 20        -0.13793
      13 -> 21         0.16884

 Excited State   6:      Singlet-A      7.6724 eV  161.60 nm  f=0.0261  <S**2>=0.000
      10 -> 14        -0.13118
      13 -> 16        -0.13732
      13 -> 17         0.65181
      13 -> 19         0.11452

 Excited State   7:      Singlet-A      8.0384 eV  154.24 nm  f=0.0009  <S**2>=0.000
      10 -> 14         0.67677
      11 -> 14         0.10040
      13 -> 17         0.12352

 Excited State   8:      Singlet-A      8.2480 eV  150.32 nm  f=0.0009  <S**2>=0.000
      13 -> 16         0.12089
      13 -> 17        -0.12883
      13 -> 18         0.25808
      13 -> 19         0.61294

 Excited State   9:      Singlet-A      8.4489 eV  146.75 nm  f=0.0806  <S**2>=0.000
       8 -> 15        -0.11806
      11 -> 14         0.48897
      12 -> 15        -0.45206
      12 -> 18        -0.11155

 Excited State  10:      Singlet-A      8.7120 eV  142.31 nm  f=0.2191  <S**2>=0.000
      11 -> 14         0.45167
      12 -> 15         0.42150
      12 -> 16        -0.22493
      12 -> 18         0.16793

 Excited State  11:      Singlet-A      8.9342 eV  138.78 nm  f=0.0033  <S**2>=0.000
      13 -> 18         0.16315
      13 -> 19        -0.19086
      13 -> 20         0.50039
      13 -> 21        -0.42302

 Excited State  12:      Singlet-A      9.1703 eV  135.20 nm  f=0.0770  <S**2>=0.000
      13 -> 20         0.45089
      13 -> 21         0.51066

 Excited State  13:      Singlet-A      9.2600 eV  133.89 nm  f=0.0621  <S**2>=0.000
       9 -> 15        -0.14746
      10 -> 15        -0.14502
      10 -> 17        -0.14339
      11 -> 14         0.12402
      12 -> 15         0.25016
      12 -> 16         0.42531
      12 -> 17         0.14219
      12 -> 18        -0.28556
      12 -> 19         0.15128

 Excited State  14:      Singlet-A      9.5437 eV  129.91 nm  f=0.0002  <S**2>=0.000
       9 -> 14         0.69055

 Excited State  15:      Singlet-A      9.6760 eV  128.14 nm  f=0.0016  <S**2>=0.000
       7 -> 15        -0.15125
      11 -> 15         0.65929
      13 -> 15        -0.11252

 The electronic state is 1-A.
 Alpha  occ. eigenvalues --   -1.74317  -1.11797  -0.93613  -0.80566  -0.74602
 Alpha  occ. eigenvalues --   -0.66518  -0.64894  -0.53754  -0.48739  -0.45216
 Alpha  occ. eigenvalues --   -0.43930  -0.38875  -0.26965
 Alpha virt. eigenvalues --    0.10623   0.15197   0.18680   0.26021   0.26350
 Alpha virt. eigenvalues --    0.29109   0.30229   0.30852   0.39195   0.48051
 Alpha virt. eigenvalues --    0.52169

 Mulliken charges:
               1
     1  C   -0.171857
     2  C   -1.914169
     3  O    3.202184
     4  C   -1.933652
     5  C   -0.149389
     6  H    0.177085
     7  H    0.299451
     8  H    0.311405
     9  H    0.178942
 Sum of Mulliken charges =   0.00000

 Dipole moment (field-independent basis, Debye):
    X=             -2.1749    Y=            -10.2236    Z=             -0.2918  Tot=             10.4565
 N-N= 1.045922082947D+02 E-N=-1.701238704433D+02  KE=-1.481968063984D+01
 Orbital energies and kinetic energies (alpha):
                                 1                 2
   1         O                -1.743173         -1.249941
   2         O                -1.117966         -0.984996
   3         O                -0.936132         -0.848859
   4         O                -0.805657         -0.602668
   5         O                -0.746023         -0.679871
   6         O                -0.665181         -0.566436
   7         O                -0.648940         -0.525679

 Normal termination of Gaussian 09 at Tue Dec 15 17:05:51 2015.
