 Gaussian 09, Revision D.01,
 Gaussian 09:  ES64L-G09RevD.01 24-Apr-2013

 ------------------------------------------------------------
 #P AM1(Input,print) CIS(Singlets,NStates=15) pop(full) force
 ------------------------------------------------------------

 -----------------
 AM1-Reparam Input
 -----------------
 Symbolic Z-matrix:
 Charge =  0 Multiplicity = 1

                         Standard orientation:
 ---------------------------------------------------------------------
 Center     Atomic      Atomic             Coordinates (Angstroms)
 Number     Number       Type             X           Y           Z
 ---------------------------------------------------------------------
      1          6           0       -0.589631    1.054575   -0.016792
      2          6           0       -1.111765   -0.243624    0.022295
      3          8           0       -0.166484   -1.104616   -0.019738
      4          6           0        1.022811   -0.500155    0.018573
      5          6           0        0.862725    0.830863    0.001271
      6          1           0        1.536019    1.614345    0.031805
      7          1           0        1.917824   -1.073725   -0.032990
      8          1           0       -2.131600   -0.546810    0.034210
      9          1           0       -1.095214    1.993169   -0.027213
 ---------------------------------------------------------------------

 SCF Done:  E(RAM1) =   2.51709763598     A.U. after   13 cycles

 Excitation energies and oscillator strengths:

 Excited State   1:      Singlet-A      5.2708 eV  235.23 nm  f=0.3675  <S**2>=0.000
      13 -> 14         0.69762
 This state for optimization and/or second-order correction.
 Total Energy, E(CIS) =   2.71079682820
 Copying the excited state density for this state as the 1-particle RhoCI density.

 Excited State   2:      Singlet-A      6.3935 eV  193.92 nm  f=0.0045  <S**2>=0.000
      13 -> 15         0.65842
      13 -> 17         0.21660

 Excited State   3:      Singlet-A      6.5616 eV  188.96 nm  f=0.0002  <S**2>=0.000
       9 -> 14         0.14659
      12 -> 14         0.68870

 Excited State   4:      Singlet-A      6.6990 eV  185.08 nm  f=0.0025  <S**2>=0.000
      11 -> 16         0.10080
      13 -> 16         0.65314
      13 -> 18        -0.20376

 Excited State   5:      Singlet-A      7.7651 eV  159.67 nm  f=0.0001  <S**2>=0.000
      13 -> 15        -0.10546
      13 -> 16         0.14686
      13 -> 17         0.22260
      13 -> 18         0.53874
      13 -> 19         0.18146
      13 -> 20         0.11974
      13 -> 21        -0.25476

 Excited State   6:      Singlet-A      8.0041 eV  154.90 nm  f=0.0052  <S**2>=0.000
      10 -> 14         0.69165

 Excited State   7:      Singlet-A      8.4930 eV  145.98 nm  f=0.0072  <S**2>=0.000
      10 -> 14        -0.10868
      11 -> 15         0.10970
      13 -> 15        -0.15977
      13 -> 17         0.60569
      13 -> 18        -0.24183

 Excited State   8:      Singlet-A      8.6751 eV  142.92 nm  f=0.1098  <S**2>=0.000
      11 -> 14         0.68469

 Excited State   9:      Singlet-A      9.0153 eV  137.53 nm  f=0.0007  <S**2>=0.000
       9 -> 14         0.14598
      13 -> 16        -0.12362
      13 -> 18        -0.12498
      13 -> 19         0.64395

 Excited State  10:      Singlet-A      9.3268 eV  132.93 nm  f=0.0745  <S**2>=0.000
       8 -> 15         0.10223
       9 -> 14         0.11432
      10 -> 17        -0.12742
      12 -> 15         0.45311
      12 -> 16        -0.29546
      12 -> 17         0.16435
      12 -> 18         0.26164

 Excited State  11:      Singlet-A      9.3681 eV  132.35 nm  f=0.0026  <S**2>=0.000
       9 -> 14         0.57801
      12 -> 14        -0.13729
      13 -> 18        -0.11512
      13 -> 19        -0.12882
      13 -> 20         0.20922
      13 -> 21        -0.22863

 Excited State  12:      Singlet-A      9.4778 eV  130.82 nm  f=0.0126  <S**2>=0.000
       9 -> 14        -0.31043
      13 -> 17        -0.10235
      13 -> 18        -0.22902
      13 -> 20         0.43872
      13 -> 21        -0.35387

 Excited State  13:      Singlet-A      9.6145 eV  128.96 nm  f=0.0283  <S**2>=0.000
       9 -> 15        -0.13285
      10 -> 15         0.23437
      10 -> 17         0.12540
      11 -> 14        -0.11328
      12 -> 15         0.42883
      12 -> 16         0.38320
      12 -> 18        -0.17876

 Excited State  14:      Singlet-A      9.8370 eV  126.04 nm  f=0.0799  <S**2>=0.000
       9 -> 15         0.13863
       9 -> 16        -0.16645
      10 -> 15        -0.27469
      10 -> 16        -0.19344
      10 -> 17        -0.16210
      12 -> 16         0.43034
      12 -> 18         0.18465
      12 -> 19         0.17439

 Excited State  15:      Singlet-A      9.8464 eV  125.92 nm  f=0.0812  <S**2>=0.000
      11 -> 15        -0.21629
      13 -> 18         0.10506
      13 -> 20         0.44498
      13 -> 21         0.45814

 The electronic state is 1-A.
 Alpha  occ. eigenvalues --   -1.77223  -1.15540  -0.96975  -0.82274  -0.76647
 Alpha  occ. eigenvalues --   -0.68199  -0.66196  -0.56793  -0.49020  -0.46338
 Alpha  occ. eigenvalues --   -0.45136  -0.41308  -0.30006
 Alpha virt. eigenvalues --    0.09569   0.16760   0.17990   0.24978   0.25945
 Alpha virt. eigenvalues --    0.28036   0.29620   0.30704   0.43218   0.51638
 Alpha virt. eigenvalues --    0.57438

 Mulliken charges:
               1
     1  C   -0.106945
     2  C   -1.977008
     3  O    3.228771
     4  C   -1.938185
     5  C   -0.017317
     6  H    0.119080
     7  H    0.276670
     8  H    0.287732
     9  H    0.127202
 Sum of Mulliken charges =   0.00000

 Dipole moment (field-independent basis, Debye):
    X=             -1.3516    Y=             -9.2261    Z=             -0.5945  Tot=              9.3435
 N-N= 1.044063226198D+02 E-N=-1.696495313841D+02  KE=-1.509582180227D+01
 Orbital energies and kinetic energies (alpha):
                                 1                 2
   1         O                -1.772228         -1.287333
   2         O                -1.155398         -1.007611
   3         O                -0.969749         -0.859629
   4         O                -0.822738         -0.622573
   5         O                -0.766467         -0.699987
   6         O                -0.681995         -0.578172
   7         O                -0.661963         -0.524251

 Normal termination of Gaussian 09 at Tue Dec 15 17:06:24 2015.
