 Gaussian 09, Revision D.01,
 Gaussian 09:  ES64L-G09RevD.01 24-Apr-2013

 ------------------------------------------------------------
 #P AM1(Input,print) CIS(Singlets,NStates=15) pop(full) force
 ------------------------------------------------------------

 -----------------
 AM1-Reparam Input
 -----------------
 Symbolic Z-matrix:
 Charge =  0 Multiplicity = 1

                         Standard orientation:
 ---------------------------------------------------------------------
 Center     Atomic      Atomic             Coordinates (Angstroms)
 Number     Number       Type             X           Y           Z
 ---------------------------------------------------------------------
      1          6           0       -0.716696    0.974194   -0.001533
      2          6           0       -1.107298   -0.366008   -0.010851
      3          8           0       -0.014993   -1.126145    0.021393
      4          6           0        1.125713   -0.343801   -0.025532
      5          6           0        0.713331    0.902906    0.003358
      6          1           0        1.455381    1.817331    0.048706
      7          1           0        2.036707   -0.850826   -0.004192
      8          1           0       -2.092884   -0.817018   -0.011359
      9          1           0       -1.369558    1.855927    0.003043
 ---------------------------------------------------------------------

 SCF Done:  E(RAM1) =   2.58178141558     A.U. after   13 cycles

 Excitation energies and oscillator strengths:

 Excited State   1:      Singlet-A      5.0571 eV  245.17 nm  f=0.3619  <S**2>=0.000
      13 -> 14         0.69888
 This state for optimization and/or second-order correction.
 Total Energy, E(CIS) =   2.76762765921
 Copying the excited state density for this state as the 1-particle RhoCI density.

 Excited State   2:      Singlet-A      6.2545 eV  198.23 nm  f=0.0015  <S**2>=0.000
      13 -> 15         0.66098
      13 -> 16        -0.11262
      13 -> 17        -0.12176
      13 -> 19         0.14579

 Excited State   3:      Singlet-A      6.4401 eV  192.52 nm  f=0.0015  <S**2>=0.000
      12 -> 14         0.67233
      13 -> 16        -0.17393

 Excited State   4:      Singlet-A      6.6313 eV  186.97 nm  f=0.0029  <S**2>=0.000
      12 -> 14         0.17635
      13 -> 15         0.12291
      13 -> 16         0.64589

 Excited State   5:      Singlet-A      7.3661 eV  168.32 nm  f=0.0042  <S**2>=0.000
      10 -> 14         0.14978
      11 -> 14         0.67325

 Excited State   6:      Singlet-A      7.7291 eV  160.41 nm  f=0.0001  <S**2>=0.000
      13 -> 15         0.10123
      13 -> 17         0.65544
      13 -> 18        -0.14390
      13 -> 21         0.12047

 Excited State   7:      Singlet-A      8.4683 eV  146.41 nm  f=0.1094  <S**2>=0.000
      10 -> 14         0.67664
      11 -> 14        -0.14679

 Excited State   8:      Singlet-A      9.2010 eV  134.75 nm  f=0.0042  <S**2>=0.000
      10 -> 15        -0.24489
      10 -> 16         0.13840
      13 -> 17         0.12814
      13 -> 18         0.61257

 Excited State   9:      Singlet-A      9.2736 eV  133.70 nm  f=0.0797  <S**2>=0.000
       9 -> 15        -0.11240
      11 -> 16         0.25884
      11 -> 18        -0.19095
      12 -> 15        -0.39116
      12 -> 17         0.39680

 Excited State  10:      Singlet-A      9.4757 eV  130.84 nm  f=0.0138  <S**2>=0.000
      10 -> 15         0.20970
      10 -> 16         0.18679
      12 -> 16         0.16027
      13 -> 17         0.10594
      13 -> 19         0.58484

 Excited State  11:      Singlet-A      9.5590 eV  129.70 nm  f=0.2369  <S**2>=0.000
      12 -> 15        -0.25354
      12 -> 16         0.58540
      12 -> 19        -0.13910
      13 -> 19        -0.15675

 Excited State  12:      Singlet-A      9.9630 eV  124.44 nm  f=0.1199  <S**2>=0.000
      10 -> 15         0.10529
      11 -> 15         0.55840
      11 -> 19         0.11987
      12 -> 15         0.26485
      12 -> 16         0.18494
      12 -> 17         0.14647

 Excited State  13:      Singlet-A     10.2050 eV  121.49 nm  f=0.0015  <S**2>=0.000
       7 -> 15         0.10327
       9 -> 14         0.26172
      10 -> 15         0.52282
      11 -> 15        -0.10010
      13 -> 15         0.14440
      13 -> 18         0.19386
      13 -> 19        -0.21283

 Excited State  14:      Singlet-A     10.2811 eV  120.59 nm  f=0.0404  <S**2>=0.000
       8 -> 15         0.13463
       9 -> 15         0.23308
      11 -> 15        -0.25220
      11 -> 17        -0.15260
      11 -> 18         0.10738
      11 -> 19        -0.12433
      12 -> 15         0.23884
      12 -> 16         0.19065
      12 -> 17         0.38901
      12 -> 20        -0.11038

 Excited State  15:      Singlet-A     10.3462 eV  119.84 nm  f=0.0006  <S**2>=0.000
       9 -> 14         0.62674
      10 -> 15        -0.21868
      13 -> 18        -0.11496

 The electronic state is 1-A.
 Alpha  occ. eigenvalues --   -1.85146  -1.11840  -0.88704  -0.79350  -0.74500
 Alpha  occ. eigenvalues --   -0.66363  -0.63672  -0.57663  -0.54740  -0.45604
 Alpha  occ. eigenvalues --   -0.45225  -0.42337  -0.30457
 Alpha virt. eigenvalues --    0.08101   0.16355   0.17697   0.23693   0.27039
 Alpha virt. eigenvalues --    0.28923   0.34800   0.38795   0.48842   0.55869
 Alpha virt. eigenvalues --    0.60991

 Mulliken charges:
               1
     1  C   -0.220233
     2  C   -2.041061
     3  O    3.442774
     4  C   -1.969303
     5  C   -0.181592
     6  H    0.216959
     7  H    0.263862
     8  H    0.291423
     9  H    0.197173
 Sum of Mulliken charges =   0.00000

 Dipole moment (field-independent basis, Debye):
    X=             -0.0717    Y=            -10.5365    Z=              0.6534  Tot=             10.5570
 N-N= 1.039284651210D+02 E-N=-1.694554384716D+02  KE=-1.432590578167D+01
 Orbital energies and kinetic energies (alpha):
                                 1                 2
   1         O                -1.851460         -1.257859
   2         O                -1.118398         -0.944375
   3         O                -0.887044         -0.785981
   4         O                -0.793501         -0.532329
   5         O                -0.744995         -0.636904
   6         O                -0.663626         -0.531488
   7         O                -0.636716         -0.495704

 Normal termination of Gaussian 09 at Tue Dec 15 17:07:36 2015.
