 Gaussian 09, Revision D.01,
 Gaussian 09:  ES64L-G09RevD.01 24-Apr-2013

 ------------------------------------------------------------
 #P AM1(Input,print) CIS(Singlets,NStates=15) pop(full) force
 ------------------------------------------------------------

 -----------------
 AM1-Reparam Input
 -----------------
 Symbolic Z-matrix:
 Charge =  0 Multiplicity = 1

                         Standard orientation:
 ---------------------------------------------------------------------
 Center     Atomic      Atomic             Coordinates (Angstroms)
 Number     Number       Type             X           Y           Z
 ---------------------------------------------------------------------
      1          6           0       -0.695082    0.999306   -0.007815
      2          6           0       -1.097835   -0.365665    0.016671
      3          8           0       -0.007775   -1.141947    0.000639
      4          6           0        1.078678   -0.372664   -0.009648
      5          6           0        0.747365    0.946265   -0.004641
      6          1           0        1.357938    1.753186    0.037363
      7          1           0        1.990748   -0.858447    0.020310
      8          1           0       -2.098460   -0.798087   -0.038623
      9          1           0       -1.386778    1.795466    0.008438
 ---------------------------------------------------------------------

 SCF Done:  E(RAM1) =  0.242831533494E-01 A.U. after   13 cycles

 Excitation energies and oscillator strengths:

 Excited State   1:      Singlet-A      4.3722 eV  283.57 nm  f=0.0867  <S**2>=0.000
      12 -> 15         0.22223
      13 -> 14         0.66393
 This state for optimization and/or second-order correction.
 Total Energy, E(CIS) =  0.184958638759
 Copying the excited state density for this state as the 1-particle RhoCI density.

 Excited State   2:      Singlet-A      4.7163 eV  262.88 nm  f=0.0014  <S**2>=0.000
      12 -> 14         0.10303
      13 -> 15        -0.19857
      13 -> 16         0.65326

 Excited State   3:      Singlet-A      4.8872 eV  253.69 nm  f=0.0116  <S**2>=0.000
      12 -> 14        -0.37927
      13 -> 15         0.54978
      13 -> 16         0.21941

 Excited State   4:      Singlet-A      5.6789 eV  218.32 nm  f=0.0010  <S**2>=0.000
      12 -> 17        -0.10863
      12 -> 18         0.18443
      12 -> 21        -0.10343
      13 -> 17        -0.32090
      13 -> 18         0.47251
      13 -> 20        -0.14896
      13 -> 21        -0.21250
      13 -> 23        -0.16084

 Excited State   5:      Singlet-A      5.9737 eV  207.55 nm  f=0.0072  <S**2>=0.000
       7 -> 16        -0.16466
      12 -> 15        -0.16173
      12 -> 16         0.63409
      12 -> 21         0.11319

 Excited State   6:      Singlet-A      6.0402 eV  205.27 nm  f=0.0200  <S**2>=0.000
      12 -> 14        -0.13267
      12 -> 19        -0.25768
      12 -> 20        -0.12903
      12 -> 23         0.12768
      13 -> 17        -0.14195
      13 -> 19         0.47409
      13 -> 20         0.16821
      13 -> 21         0.16195
      13 -> 23        -0.18833

 Excited State   7:      Singlet-A      6.0903 eV  203.58 nm  f=0.3249  <S**2>=0.000
      11 -> 18        -0.10802
      12 -> 14         0.52426
      12 -> 15         0.13789
      13 -> 15         0.34877
      13 -> 19         0.11571

 Excited State   8:      Singlet-A      6.2610 eV  198.03 nm  f=0.1854  <S**2>=0.000
      12 -> 14        -0.12097
      12 -> 15         0.62190
      12 -> 16         0.14576
      13 -> 14        -0.19922

 Excited State   9:      Singlet-A      6.4979 eV  190.81 nm  f=0.0023  <S**2>=0.000
      11 -> 14        -0.11504
      12 -> 21        -0.10944
      13 -> 17         0.49526
      13 -> 18         0.35519
      13 -> 19         0.25430

 Excited State  10:      Singlet-A      6.8076 eV  182.13 nm  f=0.0017  <S**2>=0.000
       9 -> 14        -0.15544
      10 -> 14        -0.14658
      10 -> 15        -0.12222
      11 -> 14         0.57833
      11 -> 15         0.25151
      13 -> 17         0.11125

 Excited State  11:      Singlet-A      6.9721 eV  177.83 nm  f=0.0002  <S**2>=0.000
      12 -> 17         0.39278
      12 -> 18         0.41441
      12 -> 20         0.22934
      12 -> 22         0.10058
      12 -> 23         0.16724
      13 -> 18        -0.14500
      13 -> 21        -0.16943

 Excited State  12:      Singlet-A      7.2478 eV  171.06 nm  f=0.0067  <S**2>=0.000
      10 -> 15         0.11426
      11 -> 15         0.10493
      12 -> 19        -0.29389
      12 -> 20         0.11145
      13 -> 18         0.21927
      13 -> 19        -0.31121
      13 -> 20         0.35672
      13 -> 21         0.18488
      13 -> 22         0.11116

 Excited State  13:      Singlet-A      7.3867 eV  167.85 nm  f=0.0004  <S**2>=0.000
       9 -> 14         0.36498
       9 -> 15        -0.10600
      10 -> 14        -0.34211
      10 -> 15         0.28494
      11 -> 15         0.32159
      13 -> 19         0.11577
      13 -> 20        -0.10752

 Excited State  14:      Singlet-A      7.4524 eV  166.37 nm  f=0.0047  <S**2>=0.000
      12 -> 19         0.33426
      12 -> 20         0.15081
      12 -> 22         0.18226
      13 -> 17        -0.21844
      13 -> 18         0.12522
      13 -> 19         0.14611
      13 -> 21         0.26170
      13 -> 22         0.28800
      13 -> 23         0.16988
      13 -> 24         0.16633

 Excited State  15:      Singlet-A      7.6191 eV  162.73 nm  f=0.0006  <S**2>=0.000
       9 -> 15        -0.12308
      10 -> 14        -0.11806
      12 -> 17        -0.30021
      12 -> 18         0.37744
      12 -> 20        -0.16992
      12 -> 22        -0.11236
      12 -> 24         0.10876
      13 -> 18        -0.11863
      13 -> 20         0.22782
      13 -> 22         0.22733
      13 -> 24        -0.16733

 The electronic state is 1-A.
 Alpha  occ. eigenvalues --   -1.58360  -1.23561  -1.10221  -0.83714  -0.81550
 Alpha  occ. eigenvalues --   -0.69351  -0.61472  -0.57979  -0.51354  -0.50781
 Alpha  occ. eigenvalues --   -0.48914  -0.38949  -0.34154
 Alpha virt. eigenvalues --    0.03035   0.05899   0.09338   0.14308   0.15111
 Alpha virt. eigenvalues --    0.15637   0.17955   0.18895   0.19352   0.20902
 Alpha virt. eigenvalues --    0.22849

 Mulliken charges:
               1
     1  C   -0.213354
     2  C   -0.130411
     3  O   -0.047931
     4  C   -0.104200
     5  C   -0.194741
     6  H    0.152635
     7  H    0.181563
     8  H    0.196685
     9  H    0.159754
 Sum of Mulliken charges =   0.00000

 Dipole moment (field-independent basis, Debye):
    X=             -0.1672    Y=              0.1364    Z=              0.0217  Tot=              0.2169
 N-N= 1.036877610932D+02 E-N=-1.713096663917D+02  KE=-1.661012393975D+01
 Orbital energies and kinetic energies (alpha):
                                 1                 2
   1         O                -1.583599         -1.317657
   2         O                -1.235606         -1.057321
   3         O                -1.102211         -0.961268
   4         O                -0.837143         -0.714377
   5         O                -0.815499         -0.727260
   6         O                -0.693508         -0.605880
   7         O                -0.614715         -0.492365

 Normal termination of Gaussian 09 at Tue Dec 15 16:28:57 2015.
