 Gaussian 09, Revision D.01,
 Gaussian 09:  ES64L-G09RevD.01 24-Apr-2013

 ------------------------------------------------------------
 #P AM1(Input,print) CIS(Singlets,NStates=15) pop(full) force
 ------------------------------------------------------------

 -----------------
 AM1-Reparam Input
 -----------------
 Symbolic Z-matrix:
 Charge =  0 Multiplicity = 1

                         Standard orientation:
 ---------------------------------------------------------------------
 Center     Atomic      Atomic             Coordinates (Angstroms)
 Number     Number       Type             X           Y           Z
 ---------------------------------------------------------------------
      1          6           0       -0.873396    0.885094    0.037995
      2          6           0       -1.056651   -0.514862   -0.031016
      3          8           0        0.187870   -1.157394    0.029963
      4          6           0        1.139993   -0.180627   -0.018536
      5          6           0        0.583327    1.030721   -0.014062
      6          1           0        1.102784    1.990162    0.006108
      7          1           0        2.125937   -0.480355   -0.009790
      8          1           0       -1.858154   -1.182478   -0.058149
      9          1           0       -1.633164    1.609865   -0.024166
 ---------------------------------------------------------------------

 SCF Done:  E(RAM1) =   2.61170687720     A.U. after   13 cycles

 Excitation energies and oscillator strengths:

 Excited State   1:      Singlet-A      4.9718 eV  249.38 nm  f=0.3686  <S**2>=0.000
      13 -> 14         0.69914
 This state for optimization and/or second-order correction.
 Total Energy, E(CIS) =   2.79441684221
 Copying the excited state density for this state as the 1-particle RhoCI density.

 Excited State   2:      Singlet-A      6.2055 eV  199.80 nm  f=0.0002  <S**2>=0.000
      13 -> 15         0.64752
      13 -> 16        -0.15832
      13 -> 17         0.14454
      13 -> 19        -0.12810

 Excited State   3:      Singlet-A      6.4489 eV  192.26 nm  f=0.0023  <S**2>=0.000
      12 -> 14         0.68732
      13 -> 16         0.12023

 Excited State   4:      Singlet-A      6.5592 eV  189.02 nm  f=0.0041  <S**2>=0.000
      12 -> 14        -0.11102
      13 -> 15         0.17851
      13 -> 16         0.64664

 Excited State   5:      Singlet-A      7.4518 eV  166.38 nm  f=0.0044  <S**2>=0.000
      10 -> 14         0.69715

 Excited State   6:      Singlet-A      7.8037 eV  158.88 nm  f=0.0001  <S**2>=0.000
      11 -> 16        -0.10314
      13 -> 15        -0.12240
      13 -> 17         0.66362
      13 -> 21         0.12089

 Excited State   7:      Singlet-A      8.3149 eV  149.11 nm  f=0.1292  <S**2>=0.000
      11 -> 14         0.69707

 Excited State   8:      Singlet-A      9.2648 eV  133.82 nm  f=0.0108  <S**2>=0.000
       7 -> 16        -0.10238
      11 -> 15         0.27870
      11 -> 16        -0.12155
      12 -> 15        -0.17789
      13 -> 18         0.57559

 Excited State   9:      Singlet-A      9.3694 eV  132.33 nm  f=0.0556  <S**2>=0.000
       8 -> 16        -0.10443
       9 -> 15         0.10252
      10 -> 15         0.11981
      10 -> 16         0.14872
      10 -> 18        -0.15311
      11 -> 15         0.11132
      12 -> 15         0.41136
      12 -> 16        -0.23603
      12 -> 17         0.31499
      13 -> 18         0.18997
      13 -> 19         0.11460

 Excited State  10:      Singlet-A      9.4832 eV  130.74 nm  f=0.0077  <S**2>=0.000
      11 -> 16         0.32295
      12 -> 15        -0.12337
      13 -> 19         0.58527

 Excited State  11:      Singlet-A      9.7109 eV  127.67 nm  f=0.1736  <S**2>=0.000
      10 -> 15        -0.23539
      10 -> 16        -0.16117
      10 -> 18         0.13099
      12 -> 15         0.47016
      12 -> 16         0.27733
      12 -> 17        -0.20904
      12 -> 18        -0.11924

 Excited State  12:      Singlet-A     10.1911 eV  121.66 nm  f=0.1520  <S**2>=0.000
      10 -> 15        -0.17448
      10 -> 16         0.42714
      10 -> 19         0.10133
      12 -> 16         0.41693
      12 -> 17         0.20886

 Excited State  13:      Singlet-A     10.2877 eV  120.52 nm  f=0.0017  <S**2>=0.000
       7 -> 15        -0.13264
       9 -> 14        -0.13261
      11 -> 15         0.54346
      11 -> 16         0.23520
      13 -> 15        -0.13262
      13 -> 18        -0.22665
      13 -> 19        -0.11870

 Excited State  14:      Singlet-A     10.3179 eV  120.16 nm  f=0.0070  <S**2>=0.000
       9 -> 14        -0.16892
      10 -> 15        -0.10893
      10 -> 16         0.12553
      11 -> 15        -0.23269
      11 -> 16         0.44269
      13 -> 16         0.13382
      13 -> 18         0.21843
      13 -> 19        -0.26501

 Excited State  15:      Singlet-A     10.5080 eV  117.99 nm  f=0.0050  <S**2>=0.000
       8 -> 14         0.13311
       8 -> 16        -0.10480
       9 -> 14         0.56787
      10 -> 15        -0.14949
      10 -> 16         0.13700
      10 -> 19         0.10566
      12 -> 16        -0.13342
      12 -> 17        -0.11661

 The electronic state is 1-A.
 Alpha  occ. eigenvalues --   -1.83959  -1.10764  -0.87977  -0.79261  -0.74989
 Alpha  occ. eigenvalues --   -0.67104  -0.62317  -0.55861  -0.55139  -0.45346
 Alpha  occ. eigenvalues --   -0.44597  -0.42431  -0.29643
 Alpha virt. eigenvalues --    0.08270   0.17114   0.18119   0.25289   0.28351
 Alpha virt. eigenvalues --    0.29762   0.35670   0.39524   0.46800   0.54457
 Alpha virt. eigenvalues --    0.58419

 Mulliken charges:
               1
     1  C   -0.158842
     2  C   -1.984411
     3  O    3.439689
     4  C   -1.991937
     5  C   -0.196069
     6  H    0.194140
     7  H    0.271970
     8  H    0.245446
     9  H    0.180014
 Sum of Mulliken charges =   0.00000

 Dipole moment (field-independent basis, Debye):
    X=              2.3383    Y=            -11.3672    Z=              0.7355  Tot=             11.6285
 N-N= 1.034650118155D+02 E-N=-1.685940677147D+02  KE=-1.432477840960D+01
 Orbital energies and kinetic energies (alpha):
                                 1                 2
   1         O                -1.839588         -1.223716
   2         O                -1.107639         -0.954282
   3         O                -0.879771         -0.786932
   4         O                -0.792612         -0.546125
   5         O                -0.749891         -0.625912
   6         O                -0.671042         -0.547246
   7         O                -0.623171         -0.486449

 Normal termination of Gaussian 09 at Tue Dec 15 17:07:46 2015.
