 Gaussian 09, Revision D.01,
 Gaussian 09:  ES64L-G09RevD.01 24-Apr-2013

 ------------------------------------------------------------
 #P AM1(Input,print) CIS(Singlets,NStates=15) pop(full) force
 ------------------------------------------------------------

 -----------------
 AM1-Reparam Input
 -----------------
 Symbolic Z-matrix:
 Charge =  0 Multiplicity = 1

                         Standard orientation:
 ---------------------------------------------------------------------
 Center     Atomic      Atomic             Coordinates (Angstroms)
 Number     Number       Type             X           Y           Z
 ---------------------------------------------------------------------
      1          6           0       -1.113238    0.442806   -0.004783
      2          6           0       -0.750595   -0.836111    0.021280
      3          8           0        0.627596   -1.017490   -0.014962
      4          6           0        1.104850    0.268298    0.003039
      5          6           0        0.107970    1.210609   -0.013149
      6          1           0        0.178041    2.208215    0.024157
      7          1           0        2.205136    0.340432    0.057520
      8          1           0       -1.369346   -1.803414   -0.005826
      9          1           0       -2.128520    0.881079    0.005513
 ---------------------------------------------------------------------

 SCF Done:  E(RAM1) =   2.12845023798     A.U. after   13 cycles

 Excitation energies and oscillator strengths:

 Excited State   1:      Singlet-A      5.4550 eV  227.28 nm  f=0.3581  <S**2>=0.000
      13 -> 14         0.69641
 This state for optimization and/or second-order correction.
 Total Energy, E(CIS) =   2.32891884465
 Copying the excited state density for this state as the 1-particle RhoCI density.

 Excited State   2:      Singlet-A      6.2022 eV  199.90 nm  f=0.0001  <S**2>=0.000
      11 -> 15         0.12057
      13 -> 15         0.67268
      13 -> 18        -0.10846

 Excited State   3:      Singlet-A      6.3252 eV  196.02 nm  f=0.0012  <S**2>=0.000
      11 -> 16        -0.12017
      13 -> 16         0.66780
      13 -> 17        -0.12739

 Excited State   4:      Singlet-A      7.1767 eV  172.76 nm  f=0.0005  <S**2>=0.000
      12 -> 14         0.70054

 Excited State   5:      Singlet-A      8.0490 eV  154.04 nm  f=0.0007  <S**2>=0.000
      13 -> 17        -0.39395
      13 -> 18         0.44933
      13 -> 19        -0.15354
      13 -> 22         0.28955

 Excited State   6:      Singlet-A      8.2113 eV  150.99 nm  f=0.0139  <S**2>=0.000
      10 -> 14         0.52679
      13 -> 17        -0.31747
      13 -> 18        -0.30441

 Excited State   7:      Singlet-A      8.3890 eV  147.79 nm  f=0.0024  <S**2>=0.000
      10 -> 14         0.44905
      13 -> 17         0.44760
      13 -> 18         0.26528

 Excited State   8:      Singlet-A      8.8961 eV  139.37 nm  f=0.0461  <S**2>=0.000
      11 -> 14         0.63251
      12 -> 15        -0.15220
      13 -> 20         0.20045

 Excited State   9:      Singlet-A      9.0696 eV  136.70 nm  f=0.0063  <S**2>=0.000
      13 -> 18         0.17354
      13 -> 19         0.64113
      13 -> 21         0.15088

 Excited State  10:      Singlet-A      9.4328 eV  131.44 nm  f=0.1634  <S**2>=0.000
       9 -> 15        -0.14651
       9 -> 16        -0.14245
      10 -> 17         0.12050
      11 -> 14         0.10994
      12 -> 15         0.50196
      12 -> 16        -0.30179
      12 -> 17         0.10202
      12 -> 18        -0.17454

 Excited State  11:      Singlet-A      9.6169 eV  128.92 nm  f=0.0100  <S**2>=0.000
      13 -> 17         0.11462
      13 -> 18        -0.28688
      13 -> 21         0.24325
      13 -> 22         0.57288

 Excited State  12:      Singlet-A      9.8698 eV  125.62 nm  f=0.0794  <S**2>=0.000
      11 -> 15        -0.25045
      11 -> 16         0.10123
      13 -> 19        -0.15091
      13 -> 20        -0.15339
      13 -> 21         0.55168
      13 -> 22        -0.23106

 Excited State  13:      Singlet-A      9.9417 eV  124.71 nm  f=0.0620  <S**2>=0.000
       9 -> 16         0.12028
      10 -> 15         0.13011
      11 -> 14         0.15536
      11 -> 15        -0.13676
      11 -> 16        -0.18588
      12 -> 15         0.36480
      12 -> 16         0.43759
      12 -> 17        -0.11247

 Excited State  14:      Singlet-A      9.9889 eV  124.12 nm  f=0.0698  <S**2>=0.000
      11 -> 14        -0.16197
      11 -> 15        -0.34771
      11 -> 16        -0.33122
      12 -> 16        -0.10263
      13 -> 20         0.42831

 Excited State  15:      Singlet-A     10.0321 eV  123.59 nm  f=0.0344  <S**2>=0.000
      10 -> 15         0.13371
      11 -> 14        -0.10924
      11 -> 15         0.18095
      11 -> 16         0.33948
      12 -> 16         0.16745
      13 -> 20         0.45744
      13 -> 21         0.15359

 The electronic state is 1-A.
 Alpha  occ. eigenvalues --   -1.92423  -1.18967  -0.91424  -0.79798  -0.77976
 Alpha  occ. eigenvalues --   -0.68688  -0.64935  -0.53691  -0.52784  -0.44275
 Alpha  occ. eigenvalues --   -0.43360  -0.40601  -0.27767
 Alpha virt. eigenvalues --    0.12779   0.17289   0.18001   0.26962   0.28939
 Alpha virt. eigenvalues --    0.30723   0.31175   0.32603   0.33898   0.40090
 Alpha virt. eigenvalues --    0.43213

 Mulliken charges:
               1
     1  C   -0.120312
     2  C   -1.855459
     3  O    3.192700
     4  C   -1.869157
     5  C   -0.167478
     6  H    0.150532
     7  H    0.257722
     8  H    0.262694
     9  H    0.148757
 Sum of Mulliken charges =   0.00000

 Dipole moment (field-independent basis, Debye):
    X=              5.7884    Y=            -10.0725    Z=             -0.2808  Tot=             11.6207
 N-N= 1.037249516478D+02 E-N=-1.687664642723D+02  KE=-1.529273025798D+01
 Orbital energies and kinetic energies (alpha):
                                 1                 2
   1         O                -1.924230         -1.339957
   2         O                -1.189670         -1.065181
   3         O                -0.914245         -0.882880
   4         O                -0.797977         -0.572877
   5         O                -0.779763         -0.659427
   6         O                -0.686882         -0.600133
   7         O                -0.649349         -0.527639

 Normal termination of Gaussian 09 at Tue Dec 15 17:08:41 2015.
