 Gaussian 09, Revision D.01,
 Gaussian 09:  ES64L-G09RevD.01 24-Apr-2013

 -------------------------------------------------------
 #P B3LYP/3-21G CIS(Singlets,NStates=15) pop(full) force
 -------------------------------------------------------

 --------
 FuranDFT
 --------
 Symbolic Z-matrix:
 Charge =  0 Multiplicity = 1

                         Standard orientation:
 ---------------------------------------------------------------------
 Center     Atomic      Atomic             Coordinates (Angstroms)
 Number     Number       Type             X           Y           Z
 ---------------------------------------------------------------------
      1          6           0       -0.281351    1.148219   -0.011564
      2          6           0       -1.110725    0.093769    0.001486
      3          8           0       -0.445888   -1.085625   -0.008252
      4          6           0        0.885337   -0.704822   -0.005958
      5          6           0        1.004143    0.621537    0.018903
      6          1           0        1.947620    1.175873   -0.023501
      7          1           0        1.577096   -1.497072    0.026344
      8          1           0       -2.272191   -0.085348    0.053848
      9          1           0       -0.669843    2.139323   -0.007879
 ---------------------------------------------------------------------

 SCF Done:  E(RB3LYP) =  -228.737139544     A.U. after   14 cycles

 Excitation energies and oscillator strengths:

 Excited State   1:      Singlet-A      7.2701 eV  170.54 nm  f=0.2138  <S**2>=0.000
      18 -> 19         0.67381
 This state for optimization and/or second-order correction.
 Total Energy, E(CIS) =  -228.469967561
 Copying the excited state density for this state as the 1-particle RhoCI density.

 Excited State   2:      Singlet-A      7.5334 eV  164.58 nm  f=0.0083  <S**2>=0.000
      17 -> 19         0.50553
      18 -> 19        -0.11840
      18 -> 20         0.46840

 Excited State   3:      Singlet-A      8.2838 eV  149.67 nm  f=0.0013  <S**2>=0.000
      18 -> 21         0.69567

 Excited State   4:      Singlet-A      8.9661 eV  138.28 nm  f=0.0027  <S**2>=0.000
      16 -> 19        -0.16847
      18 -> 22         0.67093

 Excited State   5:      Singlet-A      9.0510 eV  136.98 nm  f=0.0047  <S**2>=0.000
      16 -> 19         0.67970
      18 -> 22         0.15982

 Excited State   6:      Singlet-A      9.7196 eV  127.56 nm  f=0.0358  <S**2>=0.000
      17 -> 19         0.12454
      17 -> 21         0.61946
      18 -> 20        -0.13929
      18 -> 23        -0.21686

 Excited State   7:      Singlet-A      9.9128 eV  125.07 nm  f=0.0273  <S**2>=0.000
      17 -> 21         0.28398
      18 -> 20         0.10767
      18 -> 23         0.60065

 Excited State   8:      Singlet-A     10.0150 eV  123.80 nm  f=0.3464  <S**2>=0.000
      17 -> 19        -0.29712
      17 -> 20         0.44136
      18 -> 20         0.34111
      18 -> 23        -0.18553

 Excited State   9:      Singlet-A     10.0539 eV  123.32 nm  f=0.2783  <S**2>=0.000
      15 -> 19        -0.20847
      17 -> 19         0.25566
      17 -> 20         0.50381
      17 -> 21        -0.11025
      18 -> 20        -0.27031

 Excited State  10:      Singlet-A     10.1764 eV  121.83 nm  f=0.0477  <S**2>=0.000
      15 -> 19         0.63717
      17 -> 19         0.10974
      17 -> 20         0.10354
      18 -> 20        -0.11110
      18 -> 23         0.10115
      18 -> 24        -0.11042

 Excited State  11:      Singlet-A     10.3880 eV  119.35 nm  f=0.0011  <S**2>=0.000
      14 -> 19        -0.16156
      17 -> 22        -0.23483
      18 -> 23         0.10235
      18 -> 24         0.62159

 Excited State  12:      Singlet-A     10.4608 eV  118.52 nm  f=0.0065  <S**2>=0.000
      14 -> 19        -0.17277
      17 -> 22         0.63989
      18 -> 24         0.20548

 Excited State  13:      Singlet-A     10.4899 eV  118.19 nm  f=0.0046  <S**2>=0.000
      13 -> 19         0.11469
      14 -> 19         0.61614
      15 -> 19         0.13399
      16 -> 20        -0.14552
      17 -> 22         0.11237
      18 -> 24         0.19598

 Excited State  14:      Singlet-A     10.8159 eV  114.63 nm  f=0.0002  <S**2>=0.000
      13 -> 19         0.65267
      16 -> 20         0.21166

 Excited State  15:      Singlet-A     11.0793 eV  111.91 nm  f=0.0084  <S**2>=0.000
      18 -> 25         0.67499
      18 -> 26         0.15243

 The electronic state is 1-A.
 Alpha  occ. eigenvalues --  -19.11326 -10.17963 -10.16880 -10.12479 -10.12012
 Alpha  occ. eigenvalues --   -1.12883  -0.82209  -0.74609  -0.60475  -0.56661
 Alpha  occ. eigenvalues --   -0.54437  -0.45021  -0.42919  -0.41911  -0.40720
 Alpha  occ. eigenvalues --   -0.36886  -0.28661  -0.23272
 Alpha virt. eigenvalues --    0.02179   0.09041   0.11664   0.14402   0.17515
 Alpha virt. eigenvalues --    0.18968   0.22246   0.23277   0.35049   0.43851
 Alpha virt. eigenvalues --    0.48276   0.68112   0.69852   0.71894   0.76293

 Mulliken charges:
               1
     1  C   -0.261428
     2  C    0.105641
     3  O   -0.475229
     4  C    0.069842
     5  C   -0.241375
     6  H    0.190561
     7  H    0.216765
     8  H    0.202005
     9  H    0.193218
 Sum of Mulliken charges =   0.00000

 Dipole moment (field-independent basis, Debye):
    X=              0.2972    Y=              0.7000    Z=              0.0503  Tot=              0.7621
 Quadrupole moment (field-independent basis, Debye-Ang):
   XX=            -24.2507   YY=            -27.7262   ZZ=            -31.7099
   XY=             -1.4512   XZ=             -0.1488   YZ=             -0.1096

 Normal termination of Gaussian 09 at Tue Dec 15 16:21:19 2015.
