 Gaussian 09, Revision D.01,
 Gaussian 09:  ES64L-G09RevD.01 24-Apr-2013

 ------------------------------------------------------------
 #P AM1(Input,print) CIS(Singlets,NStates=15) pop(full) force
 ------------------------------------------------------------

 -----------------
 AM1-Reparam Input
 -----------------
 Symbolic Z-matrix:
 Charge =  0 Multiplicity = 1

                         Standard orientation:
 ---------------------------------------------------------------------
 Center     Atomic      Atomic             Coordinates (Angstroms)
 Number     Number       Type             X           Y           Z
 ---------------------------------------------------------------------
      1          6           0       -1.019760    0.708164   -0.025687
      2          6           0       -0.988633   -0.636175    0.046698
      3          8           0        0.370198   -1.136602   -0.036632
      4          6           0        1.185691    0.017817    0.028300
      5          6           0        0.420975    1.089536   -0.014464
      6          1           0        0.751393    2.181483    0.045415
      7          1           0        2.241335   -0.147917    0.023371
      8          1           0       -1.664749   -1.364004    0.025908
      9          1           0       -1.879206    1.347208   -0.010723
 ---------------------------------------------------------------------

 SCF Done:  E(RAM1) =   1.46223871386     A.U. after   13 cycles

 Excitation energies and oscillator strengths:

 Excited State   1:      Singlet-A      5.4968 eV  225.56 nm  f=0.2999  <S**2>=0.000
      13 -> 14         0.69090
 This state for optimization and/or second-order correction.
 Total Energy, E(CIS) =   1.66424262643
 Copying the excited state density for this state as the 1-particle RhoCI density.

 Excited State   2:      Singlet-A      5.9284 eV  209.14 nm  f=0.0020  <S**2>=0.000
      13 -> 15         0.67272
      13 -> 21        -0.10275

 Excited State   3:      Singlet-A      6.2617 eV  198.00 nm  f=0.0008  <S**2>=0.000
      13 -> 16         0.64535
      13 -> 18        -0.14882
      13 -> 20         0.10746
      13 -> 21         0.16656

 Excited State   4:      Singlet-A      7.0663 eV  175.46 nm  f=0.0022  <S**2>=0.000
      12 -> 14         0.68639

 Excited State   5:      Singlet-A      7.2301 eV  171.48 nm  f=0.0072  <S**2>=0.000
      13 -> 16         0.16851
      13 -> 17        -0.20599
      13 -> 18         0.60727
      13 -> 22        -0.17321

 Excited State   6:      Singlet-A      7.3641 eV  168.36 nm  f=0.0434  <S**2>=0.000
      11 -> 14        -0.22228
      13 -> 17         0.62226
      13 -> 18         0.19415

 Excited State   7:      Singlet-A      7.6536 eV  161.99 nm  f=0.0021  <S**2>=0.000
      13 -> 15         0.11284
      13 -> 18         0.17727
      13 -> 19         0.38138
      13 -> 20         0.12969
      13 -> 21         0.29886
      13 -> 22         0.41217

 Excited State   8:      Singlet-A      8.1641 eV  151.87 nm  f=0.0051  <S**2>=0.000
      13 -> 18        -0.10736
      13 -> 19         0.56275
      13 -> 20        -0.17094
      13 -> 21        -0.30355
      13 -> 22        -0.16299

 Excited State   9:      Singlet-A      8.4528 eV  146.68 nm  f=0.0040  <S**2>=0.000
      10 -> 14        -0.25770
      13 -> 20        -0.27939
      13 -> 21         0.45840
      13 -> 22        -0.32095
      13 -> 23        -0.10233

 Excited State  10:      Singlet-A      8.5061 eV  145.76 nm  f=0.0007  <S**2>=0.000
      10 -> 14         0.56853
      13 -> 20         0.17257
      13 -> 21         0.21494
      13 -> 22        -0.28011

 Excited State  11:      Singlet-A      8.5926 eV  144.29 nm  f=0.0270  <S**2>=0.000
      10 -> 14        -0.29296
      11 -> 14        -0.14278
      13 -> 19         0.12481
      13 -> 20         0.48766
      13 -> 22        -0.26339
      13 -> 23         0.19346

 Excited State  12:      Singlet-A      8.8643 eV  139.87 nm  f=0.2031  <S**2>=0.000
      11 -> 14         0.61508
      12 -> 15         0.10743
      12 -> 18         0.10587
      13 -> 17         0.22412
      13 -> 20         0.10838

 Excited State  13:      Singlet-A      9.3509 eV  132.59 nm  f=0.0092  <S**2>=0.000
      11 -> 15         0.55524
      12 -> 15        -0.11629
      13 -> 15        -0.10324
      13 -> 20         0.14036
      13 -> 21        -0.10786
      13 -> 23        -0.26217

 Excited State  14:      Singlet-A      9.4305 eV  131.47 nm  f=0.0597  <S**2>=0.000
      11 -> 15         0.23648
      11 -> 16         0.16055
      13 -> 20        -0.20687
      13 -> 23         0.58066

 Excited State  15:      Singlet-A      9.4767 eV  130.83 nm  f=0.1138  <S**2>=0.000
       8 -> 15         0.17241
      10 -> 18         0.12871
      11 -> 14        -0.11937
      11 -> 17        -0.15460
      12 -> 15         0.48238
      12 -> 16        -0.28942
      12 -> 18         0.13709
      12 -> 19        -0.16064
      12 -> 21        -0.12250
      12 -> 22        -0.10473

 The electronic state is 1-A.
 Alpha  occ. eigenvalues --   -1.86013  -1.16826  -0.95770  -0.77831  -0.76786
 Alpha  occ. eigenvalues --   -0.67306  -0.59584  -0.49317  -0.47836  -0.40428
 Alpha  occ. eigenvalues --   -0.36770  -0.35797  -0.22218
 Alpha virt. eigenvalues --    0.17683   0.22253   0.24531   0.26577   0.29312
 Alpha virt. eigenvalues --    0.31360   0.33927   0.34427   0.35533   0.38232
 Alpha virt. eigenvalues --    0.42360

 Mulliken charges:
               1
     1  C   -0.067980
     2  C   -1.483607
     3  O    2.735446
     4  C   -1.481557
     5  C   -0.100660
     6  H    0.055910
     7  H    0.150028
     8  H    0.130307
     9  H    0.062113
 Sum of Mulliken charges =   0.00000

 Dipole moment (field-independent basis, Debye):
    X=              3.3782    Y=             -9.9064    Z=             -0.8438  Tot=             10.5006
 N-N= 1.026096514290D+02 E-N=-1.683053800801D+02  KE=-1.573982515454D+01
 Orbital energies and kinetic energies (alpha):
                                 1                 2
   1         O                -1.860129         -1.324149
   2         O                -1.168255         -1.061417
   3         O                -0.957702         -0.897279
   4         O                -0.778313         -0.709036
   5         O                -0.767860         -0.631573
   6         O                -0.673065         -0.612922
   7         O                -0.595836         -0.532056

 Normal termination of Gaussian 09 at Tue Dec 15 17:08:02 2015.
