 Gaussian 09, Revision D.01,
 Gaussian 09:  ES64L-G09RevD.01 24-Apr-2013

 ------------------------------------------------------------
 #P AM1(Input,print) CIS(Singlets,NStates=15) pop(full) force
 ------------------------------------------------------------

 -----------------
 AM1-Reparam Input
 -----------------
 Symbolic Z-matrix:
 Charge =  0 Multiplicity = 1

                         Standard orientation:
 ---------------------------------------------------------------------
 Center     Atomic      Atomic             Coordinates (Angstroms)
 Number     Number       Type             X           Y           Z
 ---------------------------------------------------------------------
      1          6           0       -0.684561    0.942479   -0.004022
      2          6           0       -1.128426   -0.256752    0.028697
      3          8           0       -0.062078   -1.183638   -0.026626
      4          6           0        1.134487   -0.371953    0.024121
      5          6           0        0.738963    0.954621   -0.025195
      6          1           0        1.430802    1.758637    0.020651
      7          1           0        2.086086   -0.898317    0.043721
      8          1           0       -2.030648   -0.814098   -0.001215
      9          1           0       -1.352394    1.812515    0.008243
 ---------------------------------------------------------------------

 SCF Done:  E(RAM1) =   1.45783118402     A.U. after   13 cycles

 Excitation energies and oscillator strengths:

 Excited State   1:      Singlet-A      5.8162 eV  213.17 nm  f=0.2764  <S**2>=0.000
      13 -> 14         0.67828
      13 -> 15         0.12737
 This state for optimization and/or second-order correction.
 Total Energy, E(CIS) =   1.67157307052
 Copying the excited state density for this state as the 1-particle RhoCI density.

 Excited State   2:      Singlet-A      5.9233 eV  209.32 nm  f=0.0125  <S**2>=0.000
      12 -> 15         0.11104
      13 -> 14        -0.13204
      13 -> 15         0.66517

 Excited State   3:      Singlet-A      6.4056 eV  193.56 nm  f=0.0012  <S**2>=0.000
      12 -> 16        -0.12578
      13 -> 16         0.64995
      13 -> 18        -0.15993
      13 -> 20         0.11121

 Excited State   4:      Singlet-A      7.3795 eV  168.01 nm  f=0.0097  <S**2>=0.000
      11 -> 14        -0.10273
      13 -> 16         0.14642
      13 -> 18         0.65580

 Excited State   5:      Singlet-A      7.5295 eV  164.66 nm  f=0.0065  <S**2>=0.000
      11 -> 14         0.58681
      12 -> 14        -0.22305
      13 -> 17        -0.26672
      13 -> 22         0.13394

 Excited State   6:      Singlet-A      7.5788 eV  163.59 nm  f=0.0359  <S**2>=0.000
      11 -> 14         0.30630
      12 -> 14         0.16879
      13 -> 17         0.58641
      13 -> 18         0.11333

 Excited State   7:      Singlet-A      7.9095 eV  156.75 nm  f=0.0010  <S**2>=0.000
      11 -> 14        -0.12436
      12 -> 15        -0.10250
      13 -> 19        -0.43280
      13 -> 22         0.51399

 Excited State   8:      Singlet-A      8.3297 eV  148.85 nm  f=0.0013  <S**2>=0.000
      10 -> 14         0.68112

 Excited State   9:      Singlet-A      8.4914 eV  146.01 nm  f=0.0015  <S**2>=0.000
      12 -> 16        -0.12579
      13 -> 19         0.34806
      13 -> 20        -0.28541
      13 -> 21         0.46798
      13 -> 22         0.17291

 Excited State  10:      Singlet-A      8.6778 eV  142.88 nm  f=0.0188  <S**2>=0.000
      12 -> 16         0.15722
      13 -> 19        -0.13925
      13 -> 20         0.38833
      13 -> 21         0.44380
      13 -> 22        -0.19606
      13 -> 23         0.19272

 Excited State  11:      Singlet-A      8.7035 eV  142.45 nm  f=0.0063  <S**2>=0.000
      10 -> 14         0.10178
      13 -> 19         0.39239
      13 -> 20         0.39868
      13 -> 21        -0.18080
      13 -> 22         0.32135
      13 -> 23         0.10017

 Excited State  12:      Singlet-A      8.9051 eV  139.23 nm  f=0.1461  <S**2>=0.000
      11 -> 14         0.10837
      11 -> 15        -0.20052
      11 -> 18        -0.10046
      12 -> 14         0.58505
      13 -> 17        -0.23161

 Excited State  13:      Singlet-A      9.2285 eV  134.35 nm  f=0.0006  <S**2>=0.000
      11 -> 15         0.16310
      12 -> 15         0.57635
      12 -> 16         0.19384
      12 -> 18        -0.10920
      13 -> 15        -0.11973
      13 -> 16         0.10957
      13 -> 22         0.14096

 Excited State  14:      Singlet-A      9.4221 eV  131.59 nm  f=0.1866  <S**2>=0.000
       8 -> 15        -0.18346
      11 -> 15         0.53472
      11 -> 16        -0.15269
      12 -> 14         0.22555
      12 -> 15        -0.18050
      12 -> 17        -0.10750

 Excited State  15:      Singlet-A      9.5994 eV  129.16 nm  f=0.0068  <S**2>=0.000
      12 -> 15        -0.16005
      12 -> 16         0.54205
      13 -> 16         0.13762
      13 -> 20        -0.24066
      13 -> 23         0.20172

 The electronic state is 1-A.
 Alpha  occ. eigenvalues --   -1.86501  -1.19147  -0.95517  -0.78463  -0.76719
 Alpha  occ. eigenvalues --   -0.67144  -0.60458  -0.49149  -0.47949  -0.39236
 Alpha  occ. eigenvalues --   -0.36802  -0.36362  -0.23180
 Alpha virt. eigenvalues --    0.18533   0.21358   0.23625   0.26668   0.28973
 Alpha virt. eigenvalues --    0.31894   0.33966   0.34677   0.36146   0.38523
 Alpha virt. eigenvalues --    0.42382

 Mulliken charges:
               1
     1  C   -0.065053
     2  C   -1.453440
     3  O    2.741086
     4  C   -1.520076
     5  C   -0.087812
     6  H    0.064801
     7  H    0.146135
     8  H    0.117022
     9  H    0.057339
 Sum of Mulliken charges =   0.00000

 Dipole moment (field-independent basis, Debye):
    X=             -0.9032    Y=            -10.4157    Z=             -0.5911  Tot=             10.4715
 N-N= 1.029963854740D+02 E-N=-1.689601836253D+02  KE=-1.578437475537D+01
 Orbital energies and kinetic energies (alpha):
                                 1                 2
   1         O                -1.865008         -1.332154
   2         O                -1.191474         -1.079691
   3         O                -0.955170         -0.896866
   4         O                -0.784632         -0.668617
   5         O                -0.767186         -0.659955
   6         O                -0.671437         -0.626627
   7         O                -0.604577         -0.541612

 Normal termination of Gaussian 09 at Tue Dec 15 17:07:56 2015.
