 Gaussian 09, Revision D.01,
 Gaussian 09:  ES64L-G09RevD.01 24-Apr-2013

 ------------------------------------------------------------
 #P AM1(Input,print) CIS(Singlets,NStates=15) pop(full) force
 ------------------------------------------------------------

 -----------------
 AM1-Reparam Input
 -----------------
 Symbolic Z-matrix:
 Charge =  0 Multiplicity = 1

                         Standard orientation:
 ---------------------------------------------------------------------
 Center     Atomic      Atomic             Coordinates (Angstroms)
 Number     Number       Type             X           Y           Z
 ---------------------------------------------------------------------
      1          6           0        0.840675    0.877418   -0.029393
      2          6           0        1.038816   -0.456998    0.034124
      3          8           0       -0.116515   -1.147392   -0.019207
      4          6           0       -1.156456   -0.208652   -0.009037
      5          6           0       -0.596202    1.016042    0.020733
      6          1           0       -1.148709    1.900270    0.001793
      7          1           0       -2.129475   -0.596731    0.043148
      8          1           0        1.885026   -1.071493    0.022402
      9          1           0        1.564279    1.580225   -0.012250
 ---------------------------------------------------------------------

 SCF Done:  E(RAM1) =   1.76039085684     A.U. after   13 cycles

 Excitation energies and oscillator strengths:

 Excited State   1:      Singlet-A      5.3505 eV  231.72 nm  f=0.3634  <S**2>=0.000
      13 -> 14         0.69398
 This state for optimization and/or second-order correction.
 Total Energy, E(CIS) =   1.95701959476
 Copying the excited state density for this state as the 1-particle RhoCI density.

 Excited State   2:      Singlet-A      6.9607 eV  178.12 nm  f=0.0025  <S**2>=0.000
      10 -> 15         0.10030
      12 -> 14         0.20653
      13 -> 15         0.64351
      13 -> 17        -0.14617

 Excited State   3:      Singlet-A      7.0028 eV  177.05 nm  f=0.0006  <S**2>=0.000
      12 -> 14         0.67064
      13 -> 15        -0.19838

 Excited State   4:      Singlet-A      7.4568 eV  166.27 nm  f=0.0029  <S**2>=0.000
      10 -> 16        -0.10441
      13 -> 16         0.66574
      13 -> 18         0.17268

 Excited State   5:      Singlet-A      8.0237 eV  154.52 nm  f=0.0074  <S**2>=0.000
      11 -> 14         0.69995

 Excited State   6:      Singlet-A      8.7594 eV  141.54 nm  f=0.0016  <S**2>=0.000
      13 -> 15         0.12024
      13 -> 17         0.40861
      13 -> 18         0.48818
      13 -> 22        -0.22722

 Excited State   7:      Singlet-A      9.3060 eV  133.23 nm  f=0.0175  <S**2>=0.000
      13 -> 16         0.11791
      13 -> 17         0.53264
      13 -> 18        -0.38026
      13 -> 19         0.13481

 Excited State   8:      Singlet-A      9.3908 eV  132.03 nm  f=0.0910  <S**2>=0.000
      10 -> 14         0.67142
      13 -> 20        -0.11784

 Excited State   9:      Singlet-A      9.8087 eV  126.40 nm  f=0.0009  <S**2>=0.000
      13 -> 18         0.13727
      13 -> 19         0.66884

 Excited State  10:      Singlet-A      9.9299 eV  124.86 nm  f=0.0198  <S**2>=0.000
       9 -> 15        -0.12320
      11 -> 16         0.16055
      11 -> 17        -0.15128
      11 -> 18         0.13983
      12 -> 15         0.47636
      12 -> 16        -0.16103
      12 -> 17        -0.20121
      12 -> 18        -0.24497

 Excited State  11:      Singlet-A     10.5600 eV  117.41 nm  f=0.0470  <S**2>=0.000
      10 -> 14        -0.11503
      11 -> 15        -0.34134
      11 -> 17         0.14395
      12 -> 15         0.35231
      12 -> 16         0.38813
      12 -> 18         0.19694

 Excited State  12:      Singlet-A     10.5828 eV  117.16 nm  f=0.2635  <S**2>=0.000
       9 -> 16         0.10260
      11 -> 15         0.21459
      11 -> 16         0.24388
      11 -> 17        -0.13124
      11 -> 18         0.10230
      12 -> 15        -0.15930
      12 -> 16         0.48564
      12 -> 17        -0.17091
      12 -> 19         0.18344

 Excited State  13:      Singlet-A     10.8107 eV  114.69 nm  f=0.0004  <S**2>=0.000
      13 -> 18         0.22787
      13 -> 20         0.11037
      13 -> 22         0.63869

 Excited State  14:      Singlet-A     10.8316 eV  114.47 nm  f=0.0837  <S**2>=0.000
      11 -> 15         0.13655
      13 -> 20        -0.39656
      13 -> 21         0.53240

 Excited State  15:      Singlet-A     10.9101 eV  113.64 nm  f=0.0721  <S**2>=0.000
      10 -> 14         0.11962
      11 -> 15        -0.17100
      11 -> 16         0.12439
      13 -> 20         0.44332
      13 -> 21         0.42041

 The electronic state is 1-A.
 Alpha  occ. eigenvalues --   -1.91143  -1.17975  -0.93798  -0.82931  -0.78897
 Alpha  occ. eigenvalues --   -0.70895  -0.67774  -0.57248  -0.55505  -0.47352
 Alpha  occ. eigenvalues --   -0.45328  -0.41954  -0.30063
 Alpha virt. eigenvalues --    0.10456   0.18432   0.20490   0.27693   0.29298
 Alpha virt. eigenvalues --    0.30684   0.32799   0.33703   0.35557   0.41583
 Alpha virt. eigenvalues --    0.45129

 Mulliken charges:
               1
     1  C   -0.208316
     2  C   -2.011212
     3  O    3.298617
     4  C   -2.003271
     5  C   -0.142424
     6  H    0.206937
     7  H    0.323078
     8  H    0.325942
     9  H    0.210649
 Sum of Mulliken charges =   0.00000

 Dipole moment (field-independent basis, Debye):
    X=             -0.8978    Y=            -11.0688    Z=             -0.3476  Tot=             11.1106
 N-N= 1.040674762699D+02 E-N=-1.694533344495D+02  KE=-1.554357054727D+01
 Orbital energies and kinetic energies (alpha):
                                 1                 2
   1         O                -1.911430         -1.363005
   2         O                -1.179750         -1.056610
   3         O                -0.937975         -0.901142
   4         O                -0.829311         -0.583193
   5         O                -0.788972         -0.693751
   6         O                -0.708955         -0.591397
   7         O                -0.677736         -0.536052

 Normal termination of Gaussian 09 at Tue Dec 15 17:09:46 2015.
