 Gaussian 09, Revision D.01,
 Gaussian 09:  ES64L-G09RevD.01 24-Apr-2013

 ------------------------------------------------------------
 #P AM1(Input,print) CIS(Singlets,NStates=15) pop(full) force
 ------------------------------------------------------------

 -----------------
 AM1-Reparam Input
 -----------------
 Symbolic Z-matrix:
 Charge =  0 Multiplicity = 1

                         Standard orientation:
 ---------------------------------------------------------------------
 Center     Atomic      Atomic             Coordinates (Angstroms)
 Number     Number       Type             X           Y           Z
 ---------------------------------------------------------------------
      1          6           0       -0.997617    0.663434    0.002578
      2          6           0       -0.876975   -0.703491   -0.019168
      3          8           0        0.403608   -1.045229    0.013682
      4          6           0        1.141382    0.032805   -0.004873
      5          6           0        0.313001    1.104345   -0.014920
      6          1           0        0.565638    2.173084    0.016866
      7          1           0        2.267236   -0.017053    0.024764
      8          1           0       -1.574377   -1.494734   -0.004473
      9          1           0       -1.966114    1.117970    0.071685
 ---------------------------------------------------------------------

 SCF Done:  E(RAM1) =   1.07317451284     A.U. after   14 cycles

 Excitation energies and oscillator strengths:

 Excited State   1:      Singlet-A      5.7914 eV  214.08 nm  f=0.1947  <S**2>=0.000
      12 -> 17         0.13404
      13 -> 14         0.67680
 This state for optimization and/or second-order correction.
 Total Energy, E(CIS) =   1.28600610938
 Copying the excited state density for this state as the 1-particle RhoCI density.

 Excited State   2:      Singlet-A      6.6944 eV  185.21 nm  f=0.0053  <S**2>=0.000
      13 -> 15         0.66509
      13 -> 16         0.15774
      13 -> 19        -0.11707

 Excited State   3:      Singlet-A      7.2293 eV  171.50 nm  f=0.0001  <S**2>=0.000
      12 -> 15        -0.13324
      13 -> 15        -0.14774
      13 -> 16         0.63460
      13 -> 18        -0.12841
      13 -> 21         0.16962

 Excited State   4:      Singlet-A      7.3329 eV  169.08 nm  f=0.0011  <S**2>=0.000
       9 -> 14         0.14554
      10 -> 14        -0.20503
      11 -> 14         0.64448
      12 -> 14        -0.10261

 Excited State   5:      Singlet-A      7.3800 eV  168.00 nm  f=0.0115  <S**2>=0.000
      11 -> 14         0.10297
      12 -> 14         0.56935
      13 -> 17        -0.38529

 Excited State   6:      Singlet-A      7.9265 eV  156.42 nm  f=0.0040  <S**2>=0.000
       9 -> 14         0.19695
      10 -> 14         0.62966
      11 -> 14         0.16942
      13 -> 17        -0.12909

 Excited State   7:      Singlet-A      8.2991 eV  149.39 nm  f=0.0075  <S**2>=0.000
      12 -> 15         0.50275
      12 -> 16         0.10405
      13 -> 17        -0.10076
      13 -> 18        -0.42094
      13 -> 23         0.12362

 Excited State   8:      Singlet-A      8.3971 eV  147.65 nm  f=0.2093  <S**2>=0.000
      10 -> 14         0.13374
      11 -> 15         0.10846
      12 -> 14         0.37273
      13 -> 17         0.52058
      13 -> 18        -0.11613

 Excited State   9:      Singlet-A      8.5582 eV  144.87 nm  f=0.0027  <S**2>=0.000
      12 -> 15         0.42894
      13 -> 16         0.17069
      13 -> 18         0.48100
      13 -> 23        -0.11475

 Excited State  10:      Singlet-A      8.8482 eV  140.12 nm  f=0.0190  <S**2>=0.000
       9 -> 17        -0.20040
      10 -> 17         0.24231
      11 -> 15         0.21703
      11 -> 17         0.53555

 Excited State  11:      Singlet-A      8.9621 eV  138.34 nm  f=0.0324  <S**2>=0.000
       9 -> 15        -0.19450
      10 -> 15         0.12934
      10 -> 16         0.13255
      10 -> 17        -0.10912
      11 -> 15         0.43215
      11 -> 17        -0.22151
      11 -> 20         0.12166
      12 -> 16        -0.30317
      13 -> 17        -0.10265
      13 -> 20        -0.10958

 Excited State  12:      Singlet-A      8.9890 eV  137.93 nm  f=0.0074  <S**2>=0.000
       9 -> 15        -0.11039
      11 -> 15         0.24985
      12 -> 16         0.54185
      13 -> 19        -0.27819

 Excited State  13:      Singlet-A      9.1207 eV  135.94 nm  f=0.0013  <S**2>=0.000
      11 -> 15         0.10285
      13 -> 19         0.25247
      13 -> 20         0.59054
      13 -> 21         0.11636
      13 -> 22         0.11574

 Excited State  14:      Singlet-A      9.1910 eV  134.90 nm  f=0.1930  <S**2>=0.000
       8 -> 15        -0.14145
       9 -> 16        -0.21532
      10 -> 15         0.27674
      10 -> 16         0.20956
      11 -> 18         0.18481
      12 -> 17         0.43480
      13 -> 14        -0.15145

 Excited State  15:      Singlet-A      9.3269 eV  132.93 nm  f=0.0085  <S**2>=0.000
       9 -> 14         0.59535
      10 -> 14        -0.13544
      10 -> 15        -0.11991
      11 -> 14        -0.18021
      12 -> 17         0.22360

 The electronic state is 1-A.
 Alpha  occ. eigenvalues --   -1.86826  -1.20985  -1.00188  -0.88459  -0.80952
 Alpha  occ. eigenvalues --   -0.74323  -0.73247  -0.61541  -0.55774  -0.51736
 Alpha  occ. eigenvalues --   -0.49959  -0.47552  -0.39908
 Alpha virt. eigenvalues --    0.03476   0.09208   0.10894   0.11560   0.17691
 Alpha virt. eigenvalues --    0.18653   0.20357   0.21028   0.27009   0.27136
 Alpha virt. eigenvalues --    0.29588

 Mulliken charges:
               1
     1  C   -0.103631
     2  C   -1.297090
     3  O    2.180248
     4  C   -1.304797
     5  C   -0.148491
     6  H    0.122765
     7  H    0.233687
     8  H    0.203132
     9  H    0.114178
 Sum of Mulliken charges =   0.00000

 Dipole moment (field-independent basis, Debye):
    X=              2.5325    Y=             -6.1078    Z=              0.3432  Tot=              6.6209
 N-N= 1.052208967746D+02 E-N=-1.725842617814D+02  KE=-1.508218019217D+01
 Orbital energies and kinetic energies (alpha):
                                 1                 2
   1         O                -1.868255         -1.290430
   2         O                -1.209850         -0.977421
   3         O                -1.001882         -0.802779
   4         O                -0.884593         -0.643954
   5         O                -0.809521         -0.665211
   6         O                -0.743227         -0.578647
   7         O                -0.732466         -0.548354

 Normal termination of Gaussian 09 at Tue Dec 15 17:05:34 2015.
