 Gaussian 09, Revision D.01,
 Gaussian 09:  ES64L-G09RevD.01 24-Apr-2013

 ------------------------------------------------------------
 #P AM1(Input,print) CIS(Singlets,NStates=15) pop(full) force
 ------------------------------------------------------------

 -----------------
 AM1-Reparam Input
 -----------------
 Symbolic Z-matrix:
 Charge =  0 Multiplicity = 1

                         Standard orientation:
 ---------------------------------------------------------------------
 Center     Atomic      Atomic             Coordinates (Angstroms)
 Number     Number       Type             X           Y           Z
 ---------------------------------------------------------------------
      1          6           0       -1.157311    0.290330   -0.028214
      2          6           0       -0.572330   -0.964085    0.039219
      3          8           0        0.763191   -0.880420   -0.007601
      4          6           0        1.032317    0.418708   -0.009386
      5          6           0       -0.081540    1.193798    0.014300
      6          1           0       -0.168388    2.210029    0.033333
      7          1           0        2.082468    0.696339   -0.010745
      8          1           0       -1.054420   -1.966954   -0.042835
      9          1           0       -2.292005    0.471443   -0.014456
 ---------------------------------------------------------------------

 SCF Done:  E(RAM1) =   1.79306395971     A.U. after   14 cycles

 Excitation energies and oscillator strengths:

 Excited State   1:      Singlet-A      5.6785 eV  218.34 nm  f=0.3366  <S**2>=0.000
      13 -> 14         0.68962
 This state for optimization and/or second-order correction.
 Total Energy, E(CIS) =   2.00174398819
 Copying the excited state density for this state as the 1-particle RhoCI density.

 Excited State   2:      Singlet-A      6.8420 eV  181.21 nm  f=0.0078  <S**2>=0.000
      13 -> 15         0.66521
      13 -> 16         0.12171
      13 -> 17        -0.14985

 Excited State   3:      Singlet-A      7.0052 eV  176.99 nm  f=0.0003  <S**2>=0.000
      11 -> 15        -0.10133
      13 -> 15        -0.12149
      13 -> 16         0.65476
      13 -> 18         0.14631
      13 -> 19         0.13056

 Excited State   4:      Singlet-A      7.7005 eV  161.01 nm  f=0.0002  <S**2>=0.000
      10 -> 14        -0.11760
      12 -> 14         0.68864

 Excited State   5:      Singlet-A      8.2961 eV  149.45 nm  f=0.0086  <S**2>=0.000
      10 -> 14         0.64568
      11 -> 14         0.24903

 Excited State   6:      Singlet-A      8.4903 eV  146.03 nm  f=0.0000  <S**2>=0.000
      13 -> 16        -0.10313
      13 -> 17         0.22620
      13 -> 18         0.58923
      13 -> 20         0.14571
      13 -> 21        -0.22549

 Excited State   7:      Singlet-A      9.0709 eV  136.68 nm  f=0.1067  <S**2>=0.000
      10 -> 14        -0.23126
      11 -> 14         0.64229

 Excited State   8:      Singlet-A      9.0892 eV  136.41 nm  f=0.0112  <S**2>=0.000
      11 -> 16        -0.18573
      13 -> 15         0.10533
      13 -> 17         0.62050
      13 -> 18        -0.21282

 Excited State   9:      Singlet-A      9.6651 eV  128.28 nm  f=0.0030  <S**2>=0.000
      11 -> 15         0.18541
      13 -> 19         0.66169

 Excited State  10:      Singlet-A      9.7812 eV  126.76 nm  f=0.0111  <S**2>=0.000
       8 -> 15        -0.14101
       9 -> 16        -0.13444
      10 -> 15        -0.26305
      10 -> 16        -0.19285
      10 -> 17         0.20930
      10 -> 18        -0.13467
      11 -> 15        -0.12311
      12 -> 15        -0.17388
      12 -> 16         0.25225
      12 -> 17         0.18005
      12 -> 18         0.27983
      13 -> 14         0.10807

 Excited State  11:      Singlet-A     10.2410 eV  121.07 nm  f=0.0055  <S**2>=0.000
      10 -> 16        -0.14683
      11 -> 15         0.49202
      12 -> 15        -0.35899
      13 -> 16         0.13962
      13 -> 19        -0.15598

 Excited State  12:      Singlet-A     10.3020 eV  120.35 nm  f=0.1972  <S**2>=0.000
      10 -> 15         0.14145
      10 -> 16         0.18114
      11 -> 15         0.19904
      11 -> 16         0.11366
      12 -> 15         0.11389
      12 -> 16         0.56257
      12 -> 17        -0.11164
      12 -> 19         0.10251

 Excited State  13:      Singlet-A     10.3877 eV  119.36 nm  f=0.0405  <S**2>=0.000
      10 -> 15         0.23115
      11 -> 16        -0.37291
      12 -> 15        -0.19851
      13 -> 17        -0.11442
      13 -> 18        -0.10538
      13 -> 20         0.39105
      13 -> 21        -0.21775

 Excited State  14:      Singlet-A     10.4277 eV  118.90 nm  f=0.0883  <S**2>=0.000
      10 -> 15        -0.32879
      10 -> 16         0.11520
      11 -> 15         0.18456
      12 -> 15         0.33355
      12 -> 16        -0.10576
      13 -> 18        -0.16595
      13 -> 20         0.31045
      13 -> 21        -0.22001

 Excited State  15:      Singlet-A     10.6045 eV  116.92 nm  f=0.0174  <S**2>=0.000
      10 -> 15         0.15569
      10 -> 16        -0.15926
      11 -> 15        -0.21149
      11 -> 16         0.46562
      13 -> 15         0.12170
      13 -> 18        -0.16937
      13 -> 20         0.11947
      13 -> 21        -0.30111

 The electronic state is 1-A.
 Alpha  occ. eigenvalues --   -2.00383  -1.27966  -0.99484  -0.89838  -0.84557
 Alpha  occ. eigenvalues --   -0.76462  -0.75014  -0.62348  -0.61306  -0.52079
 Alpha  occ. eigenvalues --   -0.51577  -0.50131  -0.37581
 Alpha virt. eigenvalues --    0.04824   0.10941   0.11365   0.19302   0.20596
 Alpha virt. eigenvalues --    0.22722   0.25223   0.27588   0.31293   0.39474
 Alpha virt. eigenvalues --    0.44367

 Mulliken charges:
               1
     1  C   -0.114297
     2  C   -1.922483
     3  O    3.159281
     4  C   -1.907492
     5  C   -0.102057
     6  H    0.138983
     7  H    0.291725
     8  H    0.298733
     9  H    0.157608
 Sum of Mulliken charges =   0.00000

 Dipole moment (field-independent basis, Debye):
    X=              6.6823    Y=             -7.8906    Z=             -0.4337  Tot=             10.3491
 N-N= 1.059080170244D+02 E-N=-1.711813322804D+02  KE=-1.567408809507D+01
 Orbital energies and kinetic energies (alpha):
                                 1                 2
   1         O                -2.003832         -1.400342
   2         O                -1.279658         -1.062718
   3         O                -0.994839         -0.874934
   4         O                -0.898376         -0.590559
   5         O                -0.845569         -0.687054
   6         O                -0.764620         -0.606304
   7         O                -0.750136         -0.554785

 Normal termination of Gaussian 09 at Tue Dec 15 17:08:52 2015.
