 Gaussian 09, Revision D.01,
 Gaussian 09:  ES64L-G09RevD.01 24-Apr-2013

 -------------------------------------------------------
 #P B3LYP/3-21G CIS(Singlets,NStates=15) pop(full) force
 -------------------------------------------------------

 --------
 FuranDFT
 --------
 Symbolic Z-matrix:
 Charge =  0 Multiplicity = 1

                         Standard orientation:
 ---------------------------------------------------------------------
 Center     Atomic      Atomic             Coordinates (Angstroms)
 Number     Number       Type             X           Y           Z
 ---------------------------------------------------------------------
      1          6           0        0.285540    1.128025   -0.022795
      2          6           0        1.182488    0.050844   -0.009044
      3          8           0        0.402109   -1.082291    0.000520
      4          6           0       -0.907967   -0.694371    0.000924
      5          6           0       -0.980951    0.676219    0.016464
      6          1           0       -1.943050    1.161635   -0.007027
      7          1           0       -1.636924   -1.524341   -0.014432
      8          1           0        2.254782   -0.096142    0.061871
      9          1           0        0.633659    2.152871    0.042130
 ---------------------------------------------------------------------

 SCF Done:  E(RB3LYP) =  -228.740813044     A.U. after   14 cycles

 Excitation energies and oscillator strengths:

 Excited State   1:      Singlet-A      6.9967 eV  177.20 nm  f=0.2496  <S**2>=0.000
      18 -> 19         0.67726
 This state for optimization and/or second-order correction.
 Total Energy, E(CIS) =  -228.483689436
 Copying the excited state density for this state as the 1-particle RhoCI density.

 Excited State   2:      Singlet-A      7.2376 eV  171.31 nm  f=0.0039  <S**2>=0.000
      17 -> 19         0.51266
      18 -> 20         0.47180

 Excited State   3:      Singlet-A      8.2814 eV  149.71 nm  f=0.0005  <S**2>=0.000
      18 -> 21         0.67813
      18 -> 22        -0.17807

 Excited State   4:      Singlet-A      8.4122 eV  147.39 nm  f=0.0044  <S**2>=0.000
      16 -> 19         0.70259

 Excited State   5:      Singlet-A      8.9481 eV  138.56 nm  f=0.0015  <S**2>=0.000
      18 -> 21         0.17837
      18 -> 22         0.67141

 Excited State   6:      Singlet-A      9.3650 eV  132.39 nm  f=0.0285  <S**2>=0.000
      17 -> 19        -0.11032
      18 -> 20         0.12708
      18 -> 23         0.66127

 Excited State   7:      Singlet-A      9.5581 eV  129.72 nm  f=0.4655  <S**2>=0.000
      15 -> 19        -0.14350
      17 -> 19        -0.41021
      18 -> 20         0.45491
      18 -> 23        -0.17700

 Excited State   8:      Singlet-A      9.6902 eV  127.95 nm  f=0.0340  <S**2>=0.000
      15 -> 19         0.66685
      16 -> 20         0.12339
      17 -> 19        -0.10808
      18 -> 20         0.11246

 Excited State   9:      Singlet-A      9.9116 eV  125.09 nm  f=0.0092  <S**2>=0.000
      17 -> 20        -0.17043
      17 -> 21         0.65056
      17 -> 22        -0.11524
      18 -> 23         0.11588
      18 -> 24        -0.11709

 Excited State  10:      Singlet-A     10.1576 eV  122.06 nm  f=0.1575  <S**2>=0.000
      17 -> 20         0.57211
      18 -> 24        -0.35998

 Excited State  11:      Singlet-A     10.2604 eV  120.84 nm  f=0.0673  <S**2>=0.000
      14 -> 19        -0.12689
      17 -> 20         0.30048
      17 -> 21         0.20753
      18 -> 24         0.57820

 Excited State  12:      Singlet-A     10.4510 eV  118.63 nm  f=0.0075  <S**2>=0.000
      14 -> 19         0.67031
      16 -> 20         0.16051

 Excited State  13:      Singlet-A     10.5955 eV  117.02 nm  f=0.0047  <S**2>=0.000
      17 -> 22         0.23251
      18 -> 25         0.65323

 Excited State  14:      Singlet-A     10.6202 eV  116.74 nm  f=0.0066  <S**2>=0.000
      17 -> 22         0.64993
      18 -> 25        -0.23126

 Excited State  15:      Singlet-A     10.7492 eV  115.34 nm  f=0.0028  <S**2>=0.000
      13 -> 19         0.10410
      14 -> 19        -0.15554
      15 -> 19        -0.11664
      16 -> 20         0.66020

 The electronic state is 1-A.
 Alpha  occ. eigenvalues --  -19.11348 -10.17773 -10.17671 -10.12414 -10.12116
 Alpha  occ. eigenvalues --   -1.12218  -0.81375  -0.74307  -0.59697  -0.57228
 Alpha  occ. eigenvalues --   -0.54055  -0.44856  -0.44330  -0.42554  -0.39810
 Alpha  occ. eigenvalues --   -0.35694  -0.28609  -0.22394
 Alpha virt. eigenvalues --    0.01213   0.08853   0.12539   0.14913   0.16624
 Alpha virt. eigenvalues --    0.19196   0.21384   0.23716   0.33601   0.42072
 Alpha virt. eigenvalues --    0.49425   0.67490   0.69966   0.72885   0.74554

 Mulliken charges:
               1
     1  C   -0.257491
     2  C    0.077403
     3  O   -0.479537
     4  C    0.084686
     5  C   -0.240966
     6  H    0.192597
     7  H    0.216602
     8  H    0.221054
     9  H    0.185651
 Sum of Mulliken charges =   0.00000

 Dipole moment (field-independent basis, Debye):
    X=             -0.2573    Y=              0.5607    Z=              0.0847  Tot=              0.6227
 Quadrupole moment (field-independent basis, Debye-Ang):
   XX=            -23.6772   YY=            -27.9219   ZZ=            -31.8436
   XY=              1.4266   XZ=              0.2882   YZ=              0.1291

 Normal termination of Gaussian 09 at Tue Dec 15 16:19:42 2015.
