 Gaussian 09, Revision D.01,
 Gaussian 09:  ES64L-G09RevD.01 24-Apr-2013

 ------------------------------------------------------------
 #P AM1(Input,print) CIS(Singlets,NStates=15) pop(full) force
 ------------------------------------------------------------

 -----------------
 AM1-Reparam Input
 -----------------
 Symbolic Z-matrix:
 Charge =  0 Multiplicity = 1

                         Standard orientation:
 ---------------------------------------------------------------------
 Center     Atomic      Atomic             Coordinates (Angstroms)
 Number     Number       Type             X           Y           Z
 ---------------------------------------------------------------------
      1          6           0       -1.157311    0.290330   -0.028214
      2          6           0       -0.572330   -0.964085    0.039219
      3          8           0        0.763191   -0.880420   -0.007601
      4          6           0        1.032317    0.418708   -0.009386
      5          6           0       -0.081540    1.193798    0.014300
      6          1           0       -0.168388    2.210029    0.033333
      7          1           0        2.082468    0.696339   -0.010745
      8          1           0       -1.054420   -1.966954   -0.042835
      9          1           0       -2.292005    0.471443   -0.014456
 ---------------------------------------------------------------------

 SCF Done:  E(RAM1) =   1.37335557793     A.U. after   13 cycles

 Excitation energies and oscillator strengths:

 Excited State   1:      Singlet-A      6.2058 eV  199.79 nm  f=0.2998  <S**2>=0.000
      13 -> 14         0.68831
 This state for optimization and/or second-order correction.
 Total Energy, E(CIS) =   1.60141313270
 Copying the excited state density for this state as the 1-particle RhoCI density.

 Excited State   2:      Singlet-A      6.4243 eV  192.99 nm  f=0.0073  <S**2>=0.000
      12 -> 16        -0.13546
      13 -> 15         0.65667
      13 -> 17        -0.16439

 Excited State   3:      Singlet-A      6.6913 eV  185.29 nm  f=0.0005  <S**2>=0.000
      12 -> 15        -0.18242
      13 -> 16         0.65382
      13 -> 21         0.11325

 Excited State   4:      Singlet-A      7.5919 eV  163.31 nm  f=0.0007  <S**2>=0.000
      11 -> 14         0.66918
      12 -> 14        -0.14568

 Excited State   5:      Singlet-A      7.8117 eV  158.72 nm  f=0.0102  <S**2>=0.000
      10 -> 14         0.13343
      12 -> 16        -0.12173
      13 -> 15         0.15707
      13 -> 17         0.64915
      13 -> 18         0.11533

 Excited State   6:      Singlet-A      8.2491 eV  150.30 nm  f=0.0008  <S**2>=0.000
      12 -> 15        -0.22756
      13 -> 18         0.41651
      13 -> 20        -0.16583
      13 -> 22         0.46465

 Excited State   7:      Singlet-A      8.3516 eV  148.46 nm  f=0.0037  <S**2>=0.000
      10 -> 14         0.68058
      13 -> 17        -0.11112

 Excited State   8:      Singlet-A      8.4823 eV  146.17 nm  f=0.0628  <S**2>=0.000
      11 -> 14         0.14295
      12 -> 14         0.64291
      13 -> 19         0.22397

 Excited State   9:      Singlet-A      8.7656 eV  141.44 nm  f=0.0094  <S**2>=0.000
      12 -> 15         0.39638
      13 -> 18         0.42550
      13 -> 20         0.21797
      13 -> 21         0.23471
      13 -> 22        -0.13182

 Excited State  10:      Singlet-A      9.0083 eV  137.63 nm  f=0.0098  <S**2>=0.000
      12 -> 15         0.26525
      12 -> 16         0.17655
      13 -> 18        -0.28102
      13 -> 21         0.37101
      13 -> 22         0.39795

 Excited State  11:      Singlet-A      9.0321 eV  137.27 nm  f=0.0042  <S**2>=0.000
      12 -> 15        -0.35343
      12 -> 16        -0.11230
      13 -> 16        -0.22904
      13 -> 20         0.34941
      13 -> 21         0.39624

 Excited State  12:      Singlet-A      9.2128 eV  134.58 nm  f=0.0218  <S**2>=0.000
      12 -> 15        -0.13974
      12 -> 16         0.55218
      13 -> 15         0.13947
      13 -> 18         0.16490
      13 -> 20        -0.16889
      13 -> 21         0.15423
      13 -> 22        -0.21541

 Excited State  13:      Singlet-A      9.5503 eV  129.82 nm  f=0.0420  <S**2>=0.000
      12 -> 16         0.26953
      13 -> 15         0.12521
      13 -> 19         0.16967
      13 -> 20         0.48181
      13 -> 21        -0.28668
      13 -> 22         0.19080

 Excited State  14:      Singlet-A      9.6453 eV  128.54 nm  f=0.0788  <S**2>=0.000
       8 -> 15        -0.25848
       9 -> 16         0.10329
      10 -> 15        -0.27388
      10 -> 16        -0.11648
      10 -> 17         0.25160
      11 -> 16         0.38705
      11 -> 18        -0.14831
      13 -> 19        -0.17447

 Excited State  15:      Singlet-A      9.7937 eV  126.60 nm  f=0.2456  <S**2>=0.000
       8 -> 16         0.10306
       9 -> 15        -0.12254
      10 -> 16         0.10011
      11 -> 15        -0.27493
      11 -> 16         0.13251
      12 -> 14        -0.21329
      13 -> 19         0.49480
      13 -> 20        -0.10893
      13 -> 21         0.13353

 The electronic state is 1-A.
 Alpha  occ. eigenvalues --   -1.90395  -1.19686  -0.94979  -0.79247  -0.76873
 Alpha  occ. eigenvalues --   -0.67356  -0.62666  -0.49037  -0.47962  -0.40238
 Alpha  occ. eigenvalues --   -0.38413  -0.36485  -0.25662
 Alpha virt. eigenvalues --    0.17804   0.20907   0.22004   0.28143   0.30726
 Alpha virt. eigenvalues --    0.32158   0.33298   0.33997   0.36031   0.42397
 Alpha virt. eigenvalues --    0.47546

 Mulliken charges:
               1
     1  C   -0.046598
     2  C   -1.583838
     3  O    2.787087
     4  C   -1.566946
     5  C   -0.042011
     6  H    0.061722
     7  H    0.163336
     8  H    0.169408
     9  H    0.057840
 Sum of Mulliken charges =   0.00000

 Dipole moment (field-independent basis, Debye):
    X=              6.1807    Y=             -7.0361    Z=             -0.3649  Tot=              9.3724
 N-N= 1.039020707483D+02 E-N=-1.705760133054D+02  KE=-1.590143039561D+01
 Orbital energies and kinetic energies (alpha):
                                 1                 2
   1         O                -1.903946         -1.407409
   2         O                -1.196865         -1.086266
   3         O                -0.949792         -0.869856
   4         O                -0.792467         -0.642923
   5         O                -0.768733         -0.679266
   6         O                -0.673556         -0.627596
   7         O                -0.626658         -0.549023

 Normal termination of Gaussian 09 at Tue Dec 15 17:07:52 2015.
