 Gaussian 09, Revision D.01,
 Gaussian 09:  ES64L-G09RevD.01 24-Apr-2013

 -------------------------------------------------------
 #P B3LYP/3-21G CIS(Singlets,NStates=15) pop(full) force
 -------------------------------------------------------

 --------
 FuranDFT
 --------
 Symbolic Z-matrix:
 Charge =  0 Multiplicity = 1

                         Standard orientation:
 ---------------------------------------------------------------------
 Center     Atomic      Atomic             Coordinates (Angstroms)
 Number     Number       Type             X           Y           Z
 ---------------------------------------------------------------------
      1          6           0        0.784739    0.890012    0.024979
      2          6           0        1.094651   -0.427110   -0.003319
      3          8           0       -0.098608   -1.146301   -0.008261
      4          6           0       -1.154740   -0.277523    0.017410
      5          6           0       -0.611548    1.025134   -0.026362
      6          1           0       -1.258019    1.925486   -0.014861
      7          1           0       -2.069470   -0.704131    0.026416
      8          1           0        1.965159   -1.006822   -0.021285
      9          1           0        1.472580    1.692791   -0.000433
 ---------------------------------------------------------------------

 SCF Done:  E(RB3LYP) =  -228.742843528     A.U. after   15 cycles

 Excitation energies and oscillator strengths:

 Excited State   1:      Singlet-A      7.0356 eV  176.23 nm  f=0.1306  <S**2>=0.000
      17 -> 19        -0.32272
      18 -> 19         0.52114
      18 -> 20        -0.31363
 This state for optimization and/or second-order correction.
 Total Energy, E(CIS) =  -228.484291599
 Copying the excited state density for this state as the 1-particle RhoCI density.

 Excited State   2:      Singlet-A      7.1350 eV  173.77 nm  f=0.1040  <S**2>=0.000
      17 -> 19         0.41248
      18 -> 19         0.43662
      18 -> 20         0.34285

 Excited State   3:      Singlet-A      8.3122 eV  149.16 nm  f=0.0035  <S**2>=0.000
      16 -> 19         0.70195

 Excited State   4:      Singlet-A      8.4567 eV  146.61 nm  f=0.0002  <S**2>=0.000
      18 -> 21         0.69527

 Excited State   5:      Singlet-A      9.3450 eV  132.67 nm  f=0.1627  <S**2>=0.000
      17 -> 19         0.23719
      17 -> 20         0.14452
      18 -> 20        -0.27848
      18 -> 22         0.54734

 Excited State   6:      Singlet-A      9.4352 eV  131.41 nm  f=0.2917  <S**2>=0.000
      17 -> 19        -0.29760
      17 -> 20        -0.27882
      18 -> 20         0.35306
      18 -> 22         0.41009

 Excited State   7:      Singlet-A      9.7562 eV  127.08 nm  f=0.2703  <S**2>=0.000
      17 -> 19        -0.19908
      17 -> 20         0.58895
      17 -> 21         0.10710
      18 -> 20         0.21194

 Excited State   8:      Singlet-A      9.7635 eV  126.99 nm  f=0.0053  <S**2>=0.000
      17 -> 21         0.57527
      18 -> 23        -0.30831
      18 -> 24        -0.22919

 Excited State   9:      Singlet-A      9.9093 eV  125.12 nm  f=0.0020  <S**2>=0.000
      14 -> 19         0.15176
      15 -> 19        -0.22285
      17 -> 21         0.34223
      18 -> 23         0.51644
      18 -> 24         0.14609

 Excited State  10:      Singlet-A      9.9741 eV  124.31 nm  f=0.0052  <S**2>=0.000
      14 -> 19         0.11774
      15 -> 19         0.56877
      16 -> 20        -0.30960
      17 -> 21         0.13160
      18 -> 23         0.14942

 Excited State  11:      Singlet-A     10.1827 eV  121.76 nm  f=0.0024  <S**2>=0.000
      14 -> 19         0.61622
      16 -> 20        -0.10944
      18 -> 24        -0.28705

 Excited State  12:      Singlet-A     10.2431 eV  121.04 nm  f=0.0024  <S**2>=0.000
      14 -> 19         0.22024
      18 -> 23        -0.31171
      18 -> 24         0.56582

 Excited State  13:      Singlet-A     10.4836 eV  118.26 nm  f=0.0026  <S**2>=0.000
      14 -> 19         0.16140
      15 -> 19         0.29303
      16 -> 20         0.61069

 Excited State  14:      Singlet-A     10.6791 eV  116.10 nm  f=0.0012  <S**2>=0.000
      17 -> 22         0.68855

 Excited State  15:      Singlet-A     10.7814 eV  115.00 nm  f=0.0025  <S**2>=0.000
      18 -> 25         0.68447

 The electronic state is 1-A.
 Alpha  occ. eigenvalues --  -19.10754 -10.17368 -10.17288 -10.12963 -10.12327
 Alpha  occ. eigenvalues --   -1.11154  -0.80152  -0.74795  -0.59685  -0.58317
 Alpha  occ. eigenvalues --   -0.53938  -0.45887  -0.43933  -0.41393  -0.40936
 Alpha  occ. eigenvalues --   -0.35223  -0.27781  -0.22783
 Alpha virt. eigenvalues --    0.01343   0.08069   0.13196   0.15795   0.18204
 Alpha virt. eigenvalues --    0.18964   0.21452   0.22649   0.34150   0.41285
 Alpha virt. eigenvalues --    0.47861   0.67248   0.70133   0.71270   0.74499

 Mulliken charges:
               1
     1  C   -0.259484
     2  C    0.082901
     3  O   -0.482029
     4  C    0.076771
     5  C   -0.238471
     6  H    0.183175
     7  H    0.223241
     8  H    0.222631
     9  H    0.191265
 Sum of Mulliken charges =   0.00000

 Dipole moment (field-independent basis, Debye):
    X=              0.0605    Y=              0.6263    Z=             -0.0015  Tot=              0.6292
 Quadrupole moment (field-independent basis, Debye-Ang):
   XX=            -23.3121   YY=            -28.0788   ZZ=            -31.8109
   XY=             -0.3179   XZ=             -0.1192   YZ=             -0.0308

 Normal termination of Gaussian 09 at Tue Dec 15 16:20:32 2015.
