 Gaussian 09, Revision D.01,
 Gaussian 09:  ES64L-G09RevD.01 24-Apr-2013

 ------------------------------------------------------------
 #P AM1(Input,print) CIS(Singlets,NStates=15) pop(full) force
 ------------------------------------------------------------

 -----------------
 AM1-Reparam Input
 -----------------
 Symbolic Z-matrix:
 Charge =  0 Multiplicity = 1

                         Standard orientation:
 ---------------------------------------------------------------------
 Center     Atomic      Atomic             Coordinates (Angstroms)
 Number     Number       Type             X           Y           Z
 ---------------------------------------------------------------------
      1          6           0        0.956267    0.768817   -0.033050
      2          6           0       -0.446032    1.036165    0.027912
      3          8           0       -1.161625   -0.059223   -0.012288
      4          6           0       -0.315899   -1.090225   -0.000004
      5          6           0        1.029584   -0.673188   -0.002364
      6          1           0        1.929279   -1.218888    0.064128
      7          1           0       -0.770907   -2.058547    0.023451
      8          1           0       -0.921401    2.023070    0.013819
      9          1           0        1.712513    1.478739    0.041936
 ---------------------------------------------------------------------

 SCF Done:  E(RAM1) =   2.07771661779     A.U. after   13 cycles

 Excitation energies and oscillator strengths:

 Excited State   1:      Singlet-A      5.6811 eV  218.24 nm  f=0.3671  <S**2>=0.000
      13 -> 14         0.69555
 This state for optimization and/or second-order correction.
 Total Energy, E(CIS) =   2.28649435647
 Copying the excited state density for this state as the 1-particle RhoCI density.

 Excited State   2:      Singlet-A      6.7782 eV  182.92 nm  f=0.0039  <S**2>=0.000
      13 -> 15         0.66451
      13 -> 17         0.18148

 Excited State   3:      Singlet-A      7.0540 eV  175.77 nm  f=0.0005  <S**2>=0.000
      11 -> 16         0.10584
      13 -> 16         0.65730
      13 -> 18         0.15190
      13 -> 19         0.12006

 Excited State   4:      Singlet-A      7.3182 eV  169.42 nm  f=0.0028  <S**2>=0.000
      11 -> 14         0.12985
      12 -> 14         0.68542

 Excited State   5:      Singlet-A      8.1807 eV  151.56 nm  f=0.0080  <S**2>=0.000
      10 -> 14         0.66328
      11 -> 14        -0.21438

 Excited State   6:      Singlet-A      8.4674 eV  146.42 nm  f=0.0001  <S**2>=0.000
      11 -> 15        -0.13004
      13 -> 16        -0.10548
      13 -> 17        -0.15773
      13 -> 18         0.51893
      13 -> 21         0.39972

 Excited State   7:      Singlet-A      8.7532 eV  141.64 nm  f=0.1097  <S**2>=0.000
      10 -> 14         0.18897
      11 -> 14         0.62949
      12 -> 14        -0.12588
      13 -> 17         0.16388

 Excited State   8:      Singlet-A      8.8292 eV  140.42 nm  f=0.0219  <S**2>=0.000
      10 -> 14        -0.13147
      11 -> 14        -0.14739
      11 -> 15         0.10340
      11 -> 16        -0.15177
      13 -> 15        -0.11410
      13 -> 17         0.61029
      13 -> 18         0.15211

 Excited State   9:      Singlet-A      9.4595 eV  131.07 nm  f=0.0010  <S**2>=0.000
      11 -> 15        -0.16857
      13 -> 19         0.65614

 Excited State  10:      Singlet-A      9.7629 eV  127.00 nm  f=0.0011  <S**2>=0.000
      13 -> 18        -0.39196
      13 -> 21         0.55292

 Excited State  11:      Singlet-A      9.8756 eV  125.55 nm  f=0.0196  <S**2>=0.000
       8 -> 15        -0.10762
      10 -> 15        -0.18674
      10 -> 17        -0.16699
      11 -> 15         0.35396
      12 -> 15        -0.25937
      12 -> 16         0.21742
      12 -> 18         0.17370
      13 -> 18         0.11037
      13 -> 20         0.16446
      13 -> 21        -0.10120

 Excited State  12:      Singlet-A      9.9804 eV  124.23 nm  f=0.0267  <S**2>=0.000
       8 -> 15         0.10261
      10 -> 15         0.19164
      10 -> 17         0.13766
      11 -> 15         0.46748
      12 -> 16        -0.29310
      12 -> 18        -0.16738
      13 -> 16        -0.11422
      13 -> 19         0.12069

 Excited State  13:      Singlet-A     10.0742 eV  123.07 nm  f=0.0817  <S**2>=0.000
      11 -> 16        -0.29511
      12 -> 15         0.10337
      13 -> 19        -0.13893
      13 -> 20         0.58816

 Excited State  14:      Singlet-A     10.2928 eV  120.46 nm  f=0.0265  <S**2>=0.000
      10 -> 15        -0.18182
      11 -> 15         0.20017
      11 -> 16        -0.18218
      12 -> 15         0.47494
      12 -> 16         0.23529
      12 -> 17         0.12183
      13 -> 20        -0.18496

 Excited State  15:      Singlet-A     10.3919 eV  119.31 nm  f=0.0587  <S**2>=0.000
      10 -> 15        -0.28397
      10 -> 17        -0.10798
      11 -> 16         0.38235
      12 -> 15         0.26896
      12 -> 16        -0.25094
      13 -> 15        -0.10873
      13 -> 17         0.11162
      13 -> 20         0.21900

 The electronic state is 1-A.
 Alpha  occ. eigenvalues --   -1.94512  -1.17629  -0.91728  -0.81406  -0.78071
 Alpha  occ. eigenvalues --   -0.69626  -0.65829  -0.55141  -0.53789  -0.46241
 Alpha  occ. eigenvalues --   -0.44110  -0.43286  -0.30908
 Alpha virt. eigenvalues --    0.10569   0.17166   0.18088   0.25555   0.27063
 Alpha virt. eigenvalues --    0.28999   0.29981   0.31210   0.34799   0.42808
 Alpha virt. eigenvalues --    0.47414

 Mulliken charges:
               1
     1  C   -0.138203
     2  C   -1.936724
     3  O    3.206203
     4  C   -1.901574
     5  C   -0.096308
     6  H    0.155512
     7  H    0.265915
     8  H    0.288032
     9  H    0.157146
 Sum of Mulliken charges =   0.00000

 Dipole moment (field-independent basis, Debye):
    X=            -10.0009    Y=             -0.3337    Z=             -0.2324  Tot=             10.0091
 N-N= 1.039898987913D+02 E-N=-1.690614051129D+02  KE=-1.531744481580D+01
 Orbital energies and kinetic energies (alpha):
                                 1                 2
   1         O                -1.945116         -1.386233
   2         O                -1.176292         -1.044419
   3         O                -0.917278         -0.857865
   4         O                -0.814059         -0.581426
   5         O                -0.780709         -0.678661
   6         O                -0.696255         -0.604386
   7         O                -0.658287         -0.518082

 Normal termination of Gaussian 09 at Tue Dec 15 17:09:12 2015.
