 Gaussian 09, Revision D.01,
 Gaussian 09:  ES64L-G09RevD.01 24-Apr-2013

 ------------------------------------------------------------
 #P AM1(Input,print) CIS(Singlets,NStates=15) pop(full) force
 ------------------------------------------------------------

 -----------------
 AM1-Reparam Input
 -----------------
 Symbolic Z-matrix:
 Charge =  0 Multiplicity = 1

                         Standard orientation:
 ---------------------------------------------------------------------
 Center     Atomic      Atomic             Coordinates (Angstroms)
 Number     Number       Type             X           Y           Z
 ---------------------------------------------------------------------
      1          6           0       -0.019172    1.188053   -0.031530
      2          6           0        1.098895    0.359700    0.031743
      3          8           0        0.727362   -0.947149    0.002160
      4          6           0       -0.659023   -0.891027   -0.032035
      5          6           0       -1.176731    0.335006    0.033046
      6          1           0       -2.218232    0.574251    0.032953
      7          1           0       -1.151457   -1.871327   -0.002203
      8          1           0        2.139430    0.634543   -0.023351
      9          1           0       -0.052447    2.289335   -0.032020
 ---------------------------------------------------------------------

 SCF Done:  E(RAM1) =   1.39519059874     A.U. after   13 cycles

 Excitation energies and oscillator strengths:

 Excited State   1:      Singlet-A      5.9201 eV  209.43 nm  f=0.2956  <S**2>=0.000
      13 -> 14         0.69053
 This state for optimization and/or second-order correction.
 Total Energy, E(CIS) =   1.61275134306
 Copying the excited state density for this state as the 1-particle RhoCI density.

 Excited State   2:      Singlet-A      6.1768 eV  200.72 nm  f=0.0021  <S**2>=0.000
      13 -> 15         0.66347
      13 -> 17        -0.14044

 Excited State   3:      Singlet-A      6.5186 eV  190.20 nm  f=0.0018  <S**2>=0.000
      12 -> 15        -0.11281
      13 -> 16         0.65170
      13 -> 20        -0.10617
      13 -> 21        -0.11451

 Excited State   4:      Singlet-A      7.3552 eV  168.57 nm  f=0.0021  <S**2>=0.000
      11 -> 14         0.61609
      12 -> 14         0.31678

 Excited State   5:      Singlet-A      7.6635 eV  161.78 nm  f=0.0095  <S**2>=0.000
      13 -> 15         0.13879
      13 -> 17         0.63576
      13 -> 19         0.13776
      13 -> 22        -0.15418

 Excited State   6:      Singlet-A      8.0732 eV  153.57 nm  f=0.0019  <S**2>=0.000
      12 -> 15        -0.14156
      13 -> 16         0.10947
      13 -> 17         0.20938
      13 -> 18         0.12352
      13 -> 19        -0.38252
      13 -> 21         0.20015
      13 -> 22         0.44124

 Excited State   7:      Singlet-A      8.2729 eV  149.87 nm  f=0.0063  <S**2>=0.000
      11 -> 14        -0.26201
      12 -> 14         0.46619
      13 -> 18         0.41310
      13 -> 19         0.12588

 Excited State   8:      Singlet-A      8.4872 eV  146.08 nm  f=0.0047  <S**2>=0.000
      10 -> 14         0.67234
      13 -> 20         0.10459

 Excited State   9:      Singlet-A      8.5692 eV  144.69 nm  f=0.0023  <S**2>=0.000
      10 -> 14        -0.13028
      12 -> 15        -0.17030
      13 -> 19         0.49511
      13 -> 20         0.12974
      13 -> 21         0.34550
      13 -> 22         0.21959

 Excited State  10:      Singlet-A      8.8018 eV  140.86 nm  f=0.0066  <S**2>=0.000
      13 -> 19        -0.19137
      13 -> 20         0.44241
      13 -> 21         0.29970
      13 -> 22        -0.37270

 Excited State  11:      Singlet-A      9.0148 eV  137.53 nm  f=0.0481  <S**2>=0.000
      11 -> 15        -0.11169
      12 -> 14        -0.15958
      12 -> 15         0.43132
      12 -> 16         0.29090
      12 -> 17        -0.10476
      13 -> 16         0.17929
      13 -> 18         0.18697
      13 -> 21         0.25717

 Excited State  12:      Singlet-A      9.1518 eV  135.48 nm  f=0.0498  <S**2>=0.000
      12 -> 15         0.35741
      12 -> 16        -0.27856
      13 -> 20         0.36477
      13 -> 21        -0.22995
      13 -> 22         0.24295

 Excited State  13:      Singlet-A      9.2039 eV  134.71 nm  f=0.2306  <S**2>=0.000
      11 -> 14         0.17299
      12 -> 14        -0.35425
      12 -> 15        -0.14028
      12 -> 16        -0.11961
      13 -> 18         0.47900
      13 -> 19         0.10844
      13 -> 21        -0.17543

 Excited State  14:      Singlet-A      9.4508 eV  131.19 nm  f=0.0610  <S**2>=0.000
       8 -> 15        -0.10824
      11 -> 15        -0.13152
      12 -> 15        -0.16802
      12 -> 16         0.45769
      13 -> 15         0.13650
      13 -> 20         0.33592
      13 -> 21        -0.24178
      13 -> 22         0.11502

 Excited State  15:      Singlet-A      9.5169 eV  130.28 nm  f=0.1179  <S**2>=0.000
       8 -> 15         0.25120
      10 -> 17        -0.13550
      11 -> 15         0.43475
      11 -> 16        -0.35725
      12 -> 16         0.12369

 The electronic state is 1-A.
 Alpha  occ. eigenvalues --   -1.88044  -1.18440  -0.94368  -0.78061  -0.76986
 Alpha  occ. eigenvalues --   -0.67246  -0.61034  -0.48561  -0.47672  -0.40503
 Alpha  occ. eigenvalues --   -0.37289  -0.36122  -0.24104
 Alpha virt. eigenvalues --    0.17970   0.21571   0.22817   0.29390   0.29911
 Alpha virt. eigenvalues --    0.31055   0.33821   0.34489   0.36235   0.40774
 Alpha virt. eigenvalues --    0.45295

 Mulliken charges:
               1
     1  C   -0.084175
     2  C   -1.559794
     3  O    2.763379
     4  C   -1.522593
     5  C   -0.023340
     6  H    0.057488
     7  H    0.141926
     8  H    0.170016
     9  H    0.057094
 Sum of Mulliken charges =   0.00000

 Dipole moment (field-independent basis, Debye):
    X=              5.8269    Y=             -8.0545    Z=              0.0065  Tot=              9.9412
 N-N= 1.032208226630D+02 E-N=-1.694606435086D+02  KE=-1.582201853671D+01
 Orbital energies and kinetic energies (alpha):
                                 1                 2
   1         O                -1.880437         -1.367715
   2         O                -1.184400         -1.081400
   3         O                -0.943681         -0.881004
   4         O                -0.780609         -0.622069
   5         O                -0.769862         -0.694814
   6         O                -0.672460         -0.622768
   7         O                -0.610339         -0.540493

 Normal termination of Gaussian 09 at Tue Dec 15 17:07:57 2015.
