 Gaussian 09, Revision D.01,
 Gaussian 09:  ES64L-G09RevD.01 24-Apr-2013

 ------------------------------------------------------------
 #P AM1(Input,print) CIS(Singlets,NStates=15) pop(full) force
 ------------------------------------------------------------

 -----------------
 AM1-Reparam Input
 -----------------
 Symbolic Z-matrix:
 Charge =  0 Multiplicity = 1

                         Standard orientation:
 ---------------------------------------------------------------------
 Center     Atomic      Atomic             Coordinates (Angstroms)
 Number     Number       Type             X           Y           Z
 ---------------------------------------------------------------------
      1          6           0       -0.873396    0.885094    0.037995
      2          6           0       -1.056651   -0.514862   -0.031016
      3          8           0        0.187870   -1.157394    0.029963
      4          6           0        1.139993   -0.180627   -0.018536
      5          6           0        0.583327    1.030721   -0.014062
      6          1           0        1.102784    1.990162    0.006108
      7          1           0        2.125937   -0.480355   -0.009790
      8          1           0       -1.858154   -1.182478   -0.058149
      9          1           0       -1.633164    1.609865   -0.024166
 ---------------------------------------------------------------------

 SCF Done:  E(RAM1) =   2.69061316321     A.U. after   14 cycles

 Excitation energies and oscillator strengths:

 Excited State   1:      Singlet-A      5.1972 eV  238.56 nm  f=0.3630  <S**2>=0.000
      13 -> 14         0.69600
 This state for optimization and/or second-order correction.
 Total Energy, E(CIS) =   2.88160606068
 Copying the excited state density for this state as the 1-particle RhoCI density.

 Excited State   2:      Singlet-A      6.1732 eV  200.84 nm  f=0.0018  <S**2>=0.000
      11 -> 15         0.11370
      13 -> 15         0.66406
      13 -> 17        -0.13165
      13 -> 18        -0.10675

 Excited State   3:      Singlet-A      6.3738 eV  194.52 nm  f=0.0018  <S**2>=0.000
      11 -> 16        -0.12200
      13 -> 16         0.64213
      13 -> 17        -0.19469
      13 -> 19         0.13448

 Excited State   4:      Singlet-A      6.7503 eV  183.67 nm  f=0.0017  <S**2>=0.000
       9 -> 14         0.11080
      12 -> 14         0.69320

 Excited State   5:      Singlet-A      7.5734 eV  163.71 nm  f=0.0031  <S**2>=0.000
      11 -> 16        -0.12246
      13 -> 16         0.18830
      13 -> 17         0.43754
      13 -> 18        -0.36156
      13 -> 21         0.33673

 Excited State   6:      Singlet-A      7.8177 eV  158.59 nm  f=0.0126  <S**2>=0.000
      10 -> 14        -0.24464
      13 -> 15         0.14810
      13 -> 17         0.43184
      13 -> 18         0.37217
      13 -> 21        -0.26404

 Excited State   7:      Singlet-A      8.0022 eV  154.94 nm  f=0.0002  <S**2>=0.000
      10 -> 14         0.64804
      13 -> 17         0.22842

 Excited State   8:      Singlet-A      8.4505 eV  146.72 nm  f=0.0024  <S**2>=0.000
      13 -> 16        -0.10218
      13 -> 18        -0.12460
      13 -> 19         0.66915

 Excited State   9:      Singlet-A      8.6808 eV  142.83 nm  f=0.0867  <S**2>=0.000
      11 -> 14         0.67352
      12 -> 15         0.11484

 Excited State  10:      Singlet-A      8.8630 eV  139.89 nm  f=0.0011  <S**2>=0.000
      13 -> 18         0.42962
      13 -> 21         0.54036

 Excited State  11:      Singlet-A      9.1682 eV  135.23 nm  f=0.0494  <S**2>=0.000
       8 -> 15        -0.11746
       8 -> 16        -0.10933
      10 -> 15         0.11260
      10 -> 17        -0.22580
      12 -> 15         0.33330
      12 -> 16        -0.29727
      12 -> 17         0.14613
      12 -> 18        -0.27720
      12 -> 21         0.11418
      13 -> 20         0.17550

 Excited State  12:      Singlet-A      9.3407 eV  132.74 nm  f=0.1092  <S**2>=0.000
      12 -> 15        -0.16134
      13 -> 20         0.66357

 Excited State  13:      Singlet-A      9.4903 eV  130.64 nm  f=0.1275  <S**2>=0.000
       9 -> 15        -0.12368
      10 -> 15        -0.20598
      10 -> 17         0.16625
      12 -> 15         0.52294
      12 -> 16         0.10128
      12 -> 17        -0.22837
      12 -> 18         0.12838
      12 -> 19        -0.10968

 Excited State  14:      Singlet-A      9.8300 eV  126.13 nm  f=0.1946  <S**2>=0.000
       8 -> 16         0.19730
      10 -> 16         0.12377
      10 -> 17        -0.12226
      11 -> 14        -0.13081
      11 -> 16        -0.18475
      12 -> 15         0.10637
      12 -> 16         0.47959
      12 -> 17         0.14243
      12 -> 18        -0.16699
      12 -> 19         0.13487

 Excited State  15:      Singlet-A      9.9457 eV  124.66 nm  f=0.0154  <S**2>=0.000
       7 -> 15        -0.12593
       9 -> 14         0.14886
      11 -> 15         0.50254
      11 -> 16         0.33154
      12 -> 16         0.16533
      13 -> 15        -0.11355

 The electronic state is 1-A.
 Alpha  occ. eigenvalues --   -1.74646  -1.11769  -0.93203  -0.79391  -0.74766
 Alpha  occ. eigenvalues --   -0.65992  -0.62148  -0.53907  -0.49688  -0.43652
 Alpha  occ. eigenvalues --   -0.42733  -0.39644  -0.27284
 Alpha virt. eigenvalues --    0.11920   0.18139   0.19240   0.25144   0.27637
 Alpha virt. eigenvalues --    0.28794   0.30575   0.31121   0.45958   0.54880
 Alpha virt. eigenvalues --    0.58925

 Mulliken charges:
               1
     1  C   -0.056614
     2  C   -1.990730
     3  O    3.345459
     4  C   -1.986762
     5  C   -0.069763
     6  H    0.120849
     7  H    0.270665
     8  H    0.245583
     9  H    0.121313
 Sum of Mulliken charges =   0.00000

 Dipole moment (field-independent basis, Debye):
    X=              2.2991    Y=            -11.0133    Z=              0.7238  Tot=             11.2740
 N-N= 1.031377174632D+02 E-N=-1.676867714159D+02  KE=-1.483099143591D+01
 Orbital energies and kinetic energies (alpha):
                                 1                 2
   1         O                -1.746457         -1.226978
   2         O                -1.117689         -0.989709
   3         O                -0.932029         -0.855431
   4         O                -0.793908         -0.601931
   5         O                -0.747664         -0.683395
   6         O                -0.659915         -0.560210
   7         O                -0.621481         -0.511824

 Normal termination of Gaussian 09 at Tue Dec 15 17:05:24 2015.
