 Gaussian 09, Revision D.01,
 Gaussian 09:  ES64L-G09RevD.01 24-Apr-2013

 ------------------------------------------------------------
 #P AM1(Input,print) CIS(Singlets,NStates=15) pop(full) force
 ------------------------------------------------------------

 -----------------
 AM1-Reparam Input
 -----------------
 Symbolic Z-matrix:
 Charge =  0 Multiplicity = 1

                         Standard orientation:
 ---------------------------------------------------------------------
 Center     Atomic      Atomic             Coordinates (Angstroms)
 Number     Number       Type             X           Y           Z
 ---------------------------------------------------------------------
      1          6           0        0.284427    1.155142   -0.014745
      2          6           0       -1.009958    0.597668   -0.004234
      3          8           0       -0.898506   -0.785851    0.003526
      4          6           0        0.448782   -1.041636    0.009463
      5          6           0        1.206793    0.132270   -0.010155
      6          1           0        2.319277    0.109767    0.026051
      7          1           0        0.757952   -2.073515   -0.015654
      8          1           0       -1.915603    0.955824    0.004693
      9          1           0        0.446161    2.234072    0.074725
 ---------------------------------------------------------------------

 SCF Done:  E(RAM1) =   2.59530678847     A.U. after   13 cycles

 Excitation energies and oscillator strengths:

 Excited State   1:      Singlet-A      5.4139 eV  229.01 nm  f=0.3314  <S**2>=0.000
      13 -> 14         0.69521
 This state for optimization and/or second-order correction.
 Total Energy, E(CIS) =   2.79426570694
 Copying the excited state density for this state as the 1-particle RhoCI density.

 Excited State   2:      Singlet-A      6.6132 eV  187.48 nm  f=0.0026  <S**2>=0.000
      11 -> 15        -0.10158
      13 -> 15         0.66564
      13 -> 18        -0.10457

 Excited State   3:      Singlet-A      6.8456 eV  181.11 nm  f=0.0045  <S**2>=0.000
      12 -> 14        -0.43154
      13 -> 16         0.52571

 Excited State   4:      Singlet-A      6.9548 eV  178.27 nm  f=0.0020  <S**2>=0.000
      10 -> 14         0.12028
      11 -> 14        -0.21137
      12 -> 14         0.49330
      13 -> 16         0.41540

 Excited State   5:      Singlet-A      7.3224 eV  169.32 nm  f=0.0029  <S**2>=0.000
      10 -> 14         0.54193
      11 -> 14        -0.37925
      12 -> 14        -0.19885
      13 -> 16        -0.10152

 Excited State   6:      Singlet-A      8.3404 eV  148.66 nm  f=0.0004  <S**2>=0.000
      13 -> 17         0.67081
      13 -> 21        -0.13337

 Excited State   7:      Singlet-A      8.4481 eV  146.76 nm  f=0.1159  <S**2>=0.000
      10 -> 14         0.42603
      11 -> 14         0.54168
      12 -> 14         0.13083

 Excited State   8:      Singlet-A      9.3332 eV  132.84 nm  f=0.0822  <S**2>=0.000
       8 -> 16        -0.10870
       9 -> 15         0.14394
      10 -> 15        -0.21041
      10 -> 16        -0.20258
      10 -> 17         0.12626
      10 -> 18         0.13291
      11 -> 16         0.20634
      11 -> 17        -0.13719
      12 -> 15         0.36689
      12 -> 16         0.17992
      12 -> 17         0.20235
      12 -> 18        -0.14115
      13 -> 18         0.13518

 Excited State   9:      Singlet-A      9.3681 eV  132.35 nm  f=0.0108  <S**2>=0.000
       7 -> 15        -0.13512
      10 -> 15        -0.14450
      10 -> 16         0.14356
      11 -> 15        -0.34084
      12 -> 15        -0.17905
      13 -> 18         0.50695

 Excited State  10:      Singlet-A      9.6792 eV  128.09 nm  f=0.0235  <S**2>=0.000
       7 -> 16         0.12801
      10 -> 15        -0.14170
      10 -> 16        -0.24224
      11 -> 15        -0.15828
      11 -> 16        -0.27661
      12 -> 16        -0.35293
      13 -> 17         0.10966
      13 -> 19         0.36455

 Excited State  11:      Singlet-A      9.8833 eV  125.45 nm  f=0.0726  <S**2>=0.000
      10 -> 15         0.12337
      10 -> 16        -0.20024
      11 -> 15        -0.15362
      11 -> 16        -0.23027
      12 -> 15        -0.14003
      12 -> 16         0.48253
      12 -> 19         0.16794
      13 -> 19         0.18405

 Excited State  12:      Singlet-A      9.9568 eV  124.52 nm  f=0.2280  <S**2>=0.000
      10 -> 15         0.46555
      11 -> 15        -0.39462
      11 -> 16         0.12826
      12 -> 15         0.18773
      12 -> 16        -0.12452

 Excited State  13:      Singlet-A     10.2295 eV  121.20 nm  f=0.0015  <S**2>=0.000
      10 -> 15         0.33456
      11 -> 15         0.34057
      12 -> 15         0.10147
      13 -> 15         0.18009
      13 -> 18         0.35585
      13 -> 19         0.26338

 Excited State  14:      Singlet-A     10.4038 eV  119.17 nm  f=0.0109  <S**2>=0.000
       8 -> 16        -0.12495
       9 -> 15        -0.23671
      10 -> 16        -0.18268
      11 -> 16         0.16988
      12 -> 15        -0.28117
      12 -> 16        -0.21616
      12 -> 17         0.40121
      12 -> 20         0.12479

 Excited State  15:      Singlet-A     10.6017 eV  116.95 nm  f=0.0032  <S**2>=0.000
       9 -> 14         0.16572
      10 -> 16         0.20933
      11 -> 16         0.35763
      13 -> 16        -0.14195
      13 -> 18        -0.23958
      13 -> 19         0.42325
      13 -> 20         0.10450

 The electronic state is 1-A.
 Alpha  occ. eigenvalues --   -1.83486  -1.11870  -0.86909  -0.78652  -0.75267
 Alpha  occ. eigenvalues --   -0.66697  -0.62156  -0.55551  -0.54703  -0.44087
 Alpha  occ. eigenvalues --   -0.43776  -0.42874  -0.31105
 Alpha virt. eigenvalues --    0.09564   0.17054   0.18681   0.25734   0.27810
 Alpha virt. eigenvalues --    0.30265   0.35323   0.40337   0.47421   0.55264
 Alpha virt. eigenvalues --    0.58921

 Mulliken charges:
               1
     1  C   -0.154834
     2  C   -1.997854
     3  O    3.436835
     4  C   -2.021795
     5  C   -0.161351
     6  H    0.189583
     7  H    0.275467
     8  H    0.242622
     9  H    0.191327
 Sum of Mulliken charges =   0.00000

 Dipole moment (field-independent basis, Debye):
    X=             -8.1902    Y=             -7.9721    Z=              0.0837  Tot=             11.4298
 N-N= 1.035488498050D+02 E-N=-1.688294883427D+02  KE=-1.433492107642D+01
 Orbital energies and kinetic energies (alpha):
                                 1                 2
   1         O                -1.834862         -1.224932
   2         O                -1.118700         -0.970292
   3         O                -0.869090         -0.787162
   4         O                -0.786520         -0.544833
   5         O                -0.752669         -0.621066
   6         O                -0.666970         -0.551576
   7         O                -0.621561         -0.490965

 Normal termination of Gaussian 09 at Tue Dec 15 17:07:43 2015.
