 Gaussian 09, Revision D.01,
 Gaussian 09:  ES64L-G09RevD.01 24-Apr-2013

 ------------------------------------------------------------
 #P AM1(Input,print) CIS(Singlets,NStates=15) pop(full) force
 ------------------------------------------------------------

 -----------------
 AM1-Reparam Input
 -----------------
 Symbolic Z-matrix:
 Charge =  0 Multiplicity = 1

                         Standard orientation:
 ---------------------------------------------------------------------
 Center     Atomic      Atomic             Coordinates (Angstroms)
 Number     Number       Type             X           Y           Z
 ---------------------------------------------------------------------
      1          6           0       -1.115220    0.506248    0.010032
      2          6           0       -0.781567   -0.769679   -0.008981
      3          8           0        0.554626   -1.039254   -0.005218
      4          6           0        1.133608    0.197050    0.015542
      5          6           0        0.174769    1.171781   -0.010840
      6          1           0        0.351075    2.265793    0.005408
      7          1           0        2.262143    0.197772   -0.014644
      8          1           0       -1.455427   -1.702582    0.031262
      9          1           0       -2.064344    0.920648   -0.014796
 ---------------------------------------------------------------------

 SCF Done:  E(RAM1) =   1.74836957079     A.U. after   14 cycles

 Excitation energies and oscillator strengths:

 Excited State   1:      Singlet-A      5.3440 eV  232.01 nm  f=0.3657  <S**2>=0.000
      13 -> 14         0.69540
 This state for optimization and/or second-order correction.
 Total Energy, E(CIS) =   1.94475828350
 Copying the excited state density for this state as the 1-particle RhoCI density.

 Excited State   2:      Singlet-A      6.5200 eV  190.16 nm  f=0.0003  <S**2>=0.000
      10 -> 15         0.10497
      13 -> 15         0.68286

 Excited State   3:      Singlet-A      6.9220 eV  179.12 nm  f=0.0005  <S**2>=0.000
      12 -> 14         0.66757
      13 -> 16         0.20848

 Excited State   4:      Singlet-A      6.9556 eV  178.25 nm  f=0.0006  <S**2>=0.000
      10 -> 16        -0.10164
      12 -> 14        -0.21815
      13 -> 16         0.64186
      13 -> 18        -0.12314

 Excited State   5:      Singlet-A      8.1105 eV  152.87 nm  f=0.0076  <S**2>=0.000
      11 -> 14         0.69803

 Excited State   6:      Singlet-A      8.5806 eV  144.49 nm  f=0.0017  <S**2>=0.000
      13 -> 17        -0.40978
      13 -> 18         0.50266
      13 -> 22         0.20671

 Excited State   7:      Singlet-A      8.9857 eV  137.98 nm  f=0.0112  <S**2>=0.000
      13 -> 16         0.13181
      13 -> 17         0.54443
      13 -> 18         0.39865

 Excited State   8:      Singlet-A      9.2960 eV  133.37 nm  f=0.0821  <S**2>=0.000
       9 -> 15         0.12646
      10 -> 14         0.59264
      12 -> 15         0.29752
      13 -> 21         0.11055

 Excited State   9:      Singlet-A      9.5427 eV  129.93 nm  f=0.1076  <S**2>=0.000
       9 -> 15         0.12472
      10 -> 14        -0.28909
      11 -> 17        -0.10760
      12 -> 15         0.49580
      12 -> 16        -0.21450
      12 -> 17        -0.12141
      12 -> 18         0.17897

 Excited State  10:      Singlet-A      9.5738 eV  129.50 nm  f=0.0033  <S**2>=0.000
      13 -> 19         0.68653

 Excited State  11:      Singlet-A     10.1642 eV  121.98 nm  f=0.0783  <S**2>=0.000
      10 -> 14        -0.17266
      11 -> 15        -0.15286
      12 -> 15         0.21600
      12 -> 16         0.58059
      12 -> 18        -0.17639

 Excited State  12:      Singlet-A     10.3462 eV  119.84 nm  f=0.1765  <S**2>=0.000
      11 -> 15        -0.22543
      11 -> 16        -0.28157
      11 -> 17         0.22308
      11 -> 18         0.12612
      12 -> 15         0.16059
      12 -> 16        -0.22008
      12 -> 17         0.28439
      12 -> 18        -0.22822
      12 -> 19         0.11220
      13 -> 20        -0.12888

 Excited State  13:      Singlet-A     10.4567 eV  118.57 nm  f=0.0598  <S**2>=0.000
      13 -> 18         0.16703
      13 -> 20         0.55227
      13 -> 22        -0.32608

 Excited State  14:      Singlet-A     10.7068 eV  115.80 nm  f=0.0335  <S**2>=0.000
       8 -> 16        -0.10905
       9 -> 15         0.23220
      10 -> 14        -0.10731
      11 -> 15         0.50447
      11 -> 19         0.18475
      12 -> 17         0.21696
      13 -> 21         0.16259

 Excited State  15:      Singlet-A     10.7387 eV  115.46 nm  f=0.0375  <S**2>=0.000
       9 -> 14        -0.10883
      10 -> 16        -0.18434
      13 -> 18        -0.16250
      13 -> 20         0.33542
      13 -> 22         0.52625

 The electronic state is 1-A.
 Alpha  occ. eigenvalues --   -1.90218  -1.17186  -0.90862  -0.81321  -0.77022
 Alpha  occ. eigenvalues --   -0.69191  -0.67148  -0.54865  -0.53938  -0.46057
 Alpha  occ. eigenvalues --   -0.44448  -0.40468  -0.28776
 Alpha virt. eigenvalues --    0.11675   0.17277   0.18768   0.28267   0.29545
 Alpha virt. eigenvalues --    0.31289   0.33859   0.34107   0.36884   0.43324
 Alpha virt. eigenvalues --    0.46122

 Mulliken charges:
               1
     1  C   -0.164940
     2  C   -1.995977
     3  O    3.279813
     4  C   -2.004109
     5  C   -0.178358
     6  H    0.201229
     7  H    0.327661
     8  H    0.335379
     9  H    0.199301
 Sum of Mulliken charges =   0.00000

 Dipole moment (field-independent basis, Debye):
    X=              4.9677    Y=            -10.3460    Z=             -0.1054  Tot=             11.4773
 N-N= 1.036100939064D+02 E-N=-1.690365540154D+02  KE=-1.545691737932D+01
 Orbital energies and kinetic energies (alpha):
                                 1                 2
   1         O                -1.902179         -1.363725
   2         O                -1.171862         -1.061635
   3         O                -0.908618         -0.888337
   4         O                -0.813209         -0.558910
   5         O                -0.770222         -0.675455
   6         O                -0.691908         -0.589522
   7         O                -0.671477         -0.539262

 Normal termination of Gaussian 09 at Tue Dec 15 17:09:33 2015.
