 Gaussian 09, Revision D.01,
 Gaussian 09:  ES64L-G09RevD.01 24-Apr-2013

 ------------------------------------------------------------
 #P AM1(Input,print) CIS(Singlets,NStates=15) pop(full) force
 ------------------------------------------------------------

 -----------------
 AM1-Reparam Input
 -----------------
 Symbolic Z-matrix:
 Charge =  0 Multiplicity = 1

                         Standard orientation:
 ---------------------------------------------------------------------
 Center     Atomic      Atomic             Coordinates (Angstroms)
 Number     Number       Type             X           Y           Z
 ---------------------------------------------------------------------
      1          6           0        0.136899    1.145612    0.021080
      2          6           0       -1.020423    0.469537   -0.029252
      3          8           0       -0.771031   -0.829433    0.032619
      4          6           0        0.514860   -0.998840   -0.016891
      5          6           0        1.165948    0.247622   -0.024180
      6          1           0        2.287033    0.389486    0.061056
      7          1           0        0.891306   -1.977307   -0.014250
      8          1           0       -2.083258    0.774374   -0.043303
      9          1           0        0.289466    2.265327    0.031001
 ---------------------------------------------------------------------

 SCF Done:  E(RAM1) =   2.11115980675     A.U. after   13 cycles

 Excitation energies and oscillator strengths:

 Excited State   1:      Singlet-A      5.9213 eV  209.39 nm  f=0.3292  <S**2>=0.000
      13 -> 14         0.69129
 This state for optimization and/or second-order correction.
 Total Energy, E(CIS) =   2.32876404011
 Copying the excited state density for this state as the 1-particle RhoCI density.

 Excited State   2:      Singlet-A      6.8517 eV  180.95 nm  f=0.0042  <S**2>=0.000
      13 -> 15         0.59951
      13 -> 16         0.28984
      13 -> 17        -0.17140

 Excited State   3:      Singlet-A      7.0679 eV  175.42 nm  f=0.0005  <S**2>=0.000
      10 -> 15        -0.13245
      13 -> 15        -0.29503
      13 -> 16         0.59522
      13 -> 19         0.13247

 Excited State   4:      Singlet-A      7.4040 eV  167.46 nm  f=0.0012  <S**2>=0.000
      12 -> 14         0.69558

 Excited State   5:      Singlet-A      8.0937 eV  153.19 nm  f=0.0051  <S**2>=0.000
      10 -> 14         0.30362
      11 -> 14         0.62143
      13 -> 17        -0.10147

 Excited State   6:      Singlet-A      8.5666 eV  144.73 nm  f=0.0004  <S**2>=0.000
      10 -> 16         0.10090
      13 -> 17        -0.38886
      13 -> 18         0.46061
      13 -> 21        -0.30756

 Excited State   7:      Singlet-A      8.7043 eV  142.44 nm  f=0.0050  <S**2>=0.000
      10 -> 16        -0.10836
      13 -> 15         0.10673
      13 -> 17         0.52885
      13 -> 18         0.36677
      13 -> 21        -0.17866

 Excited State   8:      Singlet-A      9.0684 eV  136.72 nm  f=0.0702  <S**2>=0.000
      10 -> 14         0.60141
      11 -> 14        -0.29353
      12 -> 17         0.10117

 Excited State   9:      Singlet-A      9.4487 eV  131.22 nm  f=0.0003  <S**2>=0.000
      10 -> 15         0.14545
      13 -> 18        -0.25143
      13 -> 19         0.50216
      13 -> 20        -0.28751
      13 -> 21        -0.21601

 Excited State  10:      Singlet-A      9.6983 eV  127.84 nm  f=0.0697  <S**2>=0.000
       8 -> 15        -0.12813
       9 -> 16         0.12065
      10 -> 14         0.11306
      10 -> 15        -0.16155
      10 -> 17         0.12982
      11 -> 15        -0.23765
      11 -> 17         0.21122
      11 -> 18         0.12894
      12 -> 16         0.35317
      12 -> 17        -0.17877
      12 -> 18         0.23130

 Excited State  11:      Singlet-A      9.8629 eV  125.71 nm  f=0.0147  <S**2>=0.000
      13 -> 18         0.27574
      13 -> 19         0.36507
      13 -> 21         0.49261

 Excited State  12:      Singlet-A      9.9179 eV  125.01 nm  f=0.1230  <S**2>=0.000
      11 -> 15        -0.11317
      12 -> 15         0.61567
      12 -> 16        -0.16671
      12 -> 20         0.11698
      13 -> 21         0.10005

 Excited State  13:      Singlet-A     10.0719 eV  123.10 nm  f=0.0519  <S**2>=0.000
      10 -> 15         0.19342
      10 -> 16         0.31583
      11 -> 16        -0.22795
      13 -> 16         0.12608
      13 -> 20         0.47309
      13 -> 21        -0.15571

 Excited State  14:      Singlet-A     10.1781 eV  121.81 nm  f=0.0475  <S**2>=0.000
      10 -> 15         0.39427
      11 -> 15        -0.23867
      11 -> 16        -0.18083
      12 -> 15        -0.13276
      13 -> 16         0.13070
      13 -> 19        -0.23732
      13 -> 20        -0.30580
      13 -> 21         0.18685

 Excited State  15:      Singlet-A     10.2509 eV  120.95 nm  f=0.1185  <S**2>=0.000
      10 -> 15         0.20016
      10 -> 16         0.23053
      11 -> 15         0.14367
      11 -> 16         0.40775
      11 -> 17        -0.10129
      11 -> 19         0.10840
      12 -> 16         0.37304

 The electronic state is 1-A.
 Alpha  occ. eigenvalues --   -1.96459  -1.20969  -0.93339  -0.81381  -0.78763
 Alpha  occ. eigenvalues --   -0.69261  -0.67812  -0.55724  -0.53924  -0.44712
 Alpha  occ. eigenvalues --   -0.44367  -0.42358  -0.31371
 Alpha virt. eigenvalues --    0.11945   0.17245   0.17932   0.24360   0.25957
 Alpha virt. eigenvalues --    0.28968   0.29845   0.32242   0.35272   0.43114
 Alpha virt. eigenvalues --    0.47953

 Mulliken charges:
               1
     1  C   -0.107870
     2  C   -1.899279
     3  O    3.210808
     4  C   -1.934235
     5  C   -0.147101
     6  H    0.163739
     7  H    0.277118
     8  H    0.277118
     9  H    0.159701
 Sum of Mulliken charges =   0.00000

 Dipole moment (field-independent basis, Debye):
    X=             -6.7370    Y=             -7.0337    Z=              0.8049  Tot=              9.7728
 N-N= 1.049288398509D+02 E-N=-1.706360348315D+02  KE=-1.539053866772D+01
 Orbital energies and kinetic energies (alpha):
                                 1                 2
   1         O                -1.964590         -1.416724
   2         O                -1.209686         -1.055881
   3         O                -0.933395         -0.865235
   4         O                -0.813806         -0.571347
   5         O                -0.787626         -0.687111
   6         O                -0.692609         -0.590971
   7         O                -0.678118         -0.543156

 Normal termination of Gaussian 09 at Tue Dec 15 17:08:48 2015.
