 Gaussian 09, Revision D.01,
 Gaussian 09:  ES64L-G09RevD.01 24-Apr-2013

 ------------------------------------------------------------
 #P AM1(Input,print) CIS(Singlets,NStates=15) pop(full) force
 ------------------------------------------------------------

 -----------------
 AM1-Reparam Input
 -----------------
 Symbolic Z-matrix:
 Charge =  0 Multiplicity = 1

                         Standard orientation:
 ---------------------------------------------------------------------
 Center     Atomic      Atomic             Coordinates (Angstroms)
 Number     Number       Type             X           Y           Z
 ---------------------------------------------------------------------
      1          6           0       -0.743755    0.928976   -0.008493
      2          6           0       -1.092569   -0.362042   -0.008402
      3          8           0       -0.006767   -1.137432    0.000742
      4          6           0        1.131052   -0.315910   -0.016647
      5          6           0        0.702879    0.929417    0.010949
      6          1           0        1.371381    1.803845    0.032348
      7          1           0        2.052946   -0.811230    0.032611
      8          1           0       -1.994924   -0.820840    0.078009
      9          1           0       -1.360904    1.845042   -0.013350
 ---------------------------------------------------------------------

 SCF Done:  E(RAM1) =   1.41165058973     A.U. after   13 cycles

 Excitation energies and oscillator strengths:

 Excited State   1:      Singlet-A      5.7906 eV  214.11 nm  f=0.3159  <S**2>=0.000
      13 -> 14         0.69338
 This state for optimization and/or second-order correction.
 Total Energy, E(CIS) =   1.62445173613
 Copying the excited state density for this state as the 1-particle RhoCI density.

 Excited State   2:      Singlet-A      6.1555 eV  201.42 nm  f=0.0011  <S**2>=0.000
      13 -> 15         0.66517
      13 -> 17        -0.16064
      13 -> 20         0.11438

 Excited State   3:      Singlet-A      6.5713 eV  188.68 nm  f=0.0002  <S**2>=0.000
      13 -> 16         0.65030
      13 -> 21         0.15126
      13 -> 22         0.11937

 Excited State   4:      Singlet-A      7.2892 eV  170.09 nm  f=0.0004  <S**2>=0.000
      11 -> 14         0.16497
      12 -> 14         0.66745
      13 -> 22        -0.10489

 Excited State   5:      Singlet-A      7.5187 eV  164.90 nm  f=0.0057  <S**2>=0.000
      13 -> 15         0.15798
      13 -> 17         0.66688

 Excited State   6:      Singlet-A      7.7121 eV  160.77 nm  f=0.0001  <S**2>=0.000
      13 -> 16        -0.13403
      13 -> 19        -0.45592
      13 -> 22         0.49641

 Excited State   7:      Singlet-A      8.2969 eV  149.43 nm  f=0.0008  <S**2>=0.000
      10 -> 14         0.22934
      11 -> 14        -0.39532
      12 -> 14         0.10710
      13 -> 18         0.50798

 Excited State   8:      Singlet-A      8.3561 eV  148.38 nm  f=0.0017  <S**2>=0.000
      10 -> 14         0.63440
      11 -> 14         0.13140
      13 -> 18        -0.20297
      13 -> 19         0.10437

 Excited State   9:      Singlet-A      8.4814 eV  146.18 nm  f=0.0008  <S**2>=0.000
      10 -> 14        -0.11749
      13 -> 19         0.45689
      13 -> 20        -0.21597
      13 -> 21         0.26157
      13 -> 22         0.36481

 Excited State  10:      Singlet-A      8.6566 eV  143.23 nm  f=0.0157  <S**2>=0.000
      10 -> 14        -0.11825
      13 -> 19         0.23001
      13 -> 20         0.50036
      13 -> 21        -0.31803
      13 -> 22         0.23529

 Excited State  11:      Singlet-A      9.0195 eV  137.46 nm  f=0.0549  <S**2>=0.000
      11 -> 16         0.13022
      13 -> 20         0.37462
      13 -> 21         0.52898
      13 -> 23         0.10393

 Excited State  12:      Singlet-A      9.1880 eV  134.94 nm  f=0.2162  <S**2>=0.000
      11 -> 14         0.50996
      12 -> 14        -0.12879
      13 -> 18         0.41840

 Excited State  13:      Singlet-A      9.4238 eV  131.56 nm  f=0.0054  <S**2>=0.000
      11 -> 15         0.54925
      12 -> 15        -0.30480
      13 -> 15        -0.10768
      13 -> 16         0.10564
      13 -> 20         0.12505
      13 -> 22        -0.10840

 Excited State  14:      Singlet-A      9.6919 eV  127.93 nm  f=0.0219  <S**2>=0.000
       8 -> 15        -0.15696
      10 -> 17         0.24915
      11 -> 15        -0.21380
      12 -> 15        -0.25529
      12 -> 16         0.37307
      12 -> 19        -0.24359
      12 -> 22         0.14535

 Excited State  15:      Singlet-A      9.9225 eV  124.95 nm  f=0.0920  <S**2>=0.000
       8 -> 16        -0.12366
      10 -> 15        -0.11080
      10 -> 17         0.10801
      10 -> 19        -0.11454
      11 -> 14         0.11934
      11 -> 15         0.23004
      12 -> 15         0.46477
      12 -> 16         0.29851
      12 -> 20         0.12971

 The electronic state is 1-A.
 Alpha  occ. eigenvalues --   -1.89914  -1.19073  -0.97912  -0.79127  -0.77699
 Alpha  occ. eigenvalues --   -0.68048  -0.62471  -0.51241  -0.47903  -0.40429
 Alpha  occ. eigenvalues --   -0.38046  -0.37205  -0.24088
 Alpha virt. eigenvalues --    0.17322   0.21839   0.23462   0.28506   0.29769
 Alpha virt. eigenvalues --    0.30437   0.32974   0.34313   0.34738   0.40094
 Alpha virt. eigenvalues --    0.45672

 Mulliken charges:
               1
     1  C   -0.114901
     2  C   -1.551710
     3  O    2.786761
     4  C   -1.524925
     5  C   -0.046873
     6  H    0.062518
     7  H    0.151417
     8  H    0.168982
     9  H    0.068731
 Sum of Mulliken charges =   0.00000

 Dipole moment (field-independent basis, Debye):
    X=             -0.1833    Y=             -9.5423    Z=              0.3515  Tot=              9.5505
 N-N= 1.039119212484D+02 E-N=-1.704386370681D+02  KE=-1.589884053842D+01
 Orbital energies and kinetic energies (alpha):
                                 1                 2
   1         O                -1.899142         -1.389974
   2         O                -1.190726         -1.065887
   3         O                -0.979122         -0.894357
   4         O                -0.791266         -0.648347
   5         O                -0.776985         -0.701018
   6         O                -0.680478         -0.612284
   7         O                -0.624705         -0.546077

 Normal termination of Gaussian 09 at Tue Dec 15 17:08:09 2015.
