 Gaussian 09, Revision D.01,
 Gaussian 09:  ES64L-G09RevD.01 24-Apr-2013

 ------------------------------------------------------------
 #P AM1(Input,print) CIS(Singlets,NStates=15) pop(full) force
 ------------------------------------------------------------

 -----------------
 AM1-Reparam Input
 -----------------
 Symbolic Z-matrix:
 Charge =  0 Multiplicity = 1

                         Standard orientation:
 ---------------------------------------------------------------------
 Center     Atomic      Atomic             Coordinates (Angstroms)
 Number     Number       Type             X           Y           Z
 ---------------------------------------------------------------------
      1          6           0       -0.970438    0.756641   -0.000216
      2          6           0       -0.964119   -0.659446    0.018662
      3          8           0        0.356775   -1.098251   -0.032885
      4          6           0        1.120594   -0.024233    0.048534
      5          6           0        0.427731    1.087000   -0.030332
      6          1           0        0.845592    2.120693   -0.014245
      7          1           0        2.155566   -0.269430    0.017029
      8          1           0       -1.711403   -1.383731    0.010699
      9          1           0       -1.826562    1.358707    0.029712
 ---------------------------------------------------------------------

 SCF Done:  E(RAM1) =   1.11162090390     A.U. after   14 cycles

 Excitation energies and oscillator strengths:

 Excited State   1:      Singlet-A      5.5277 eV  224.30 nm  f=0.2046  <S**2>=0.000
      12 -> 16         0.10204
      13 -> 14         0.67937
 This state for optimization and/or second-order correction.
 Total Energy, E(CIS) =   1.31476105372
 Copying the excited state density for this state as the 1-particle RhoCI density.

 Excited State   2:      Singlet-A      6.4788 eV  191.37 nm  f=0.0050  <S**2>=0.000
      13 -> 15         0.57295
      13 -> 16        -0.32157
      13 -> 17        -0.17758
      13 -> 19        -0.14289

 Excited State   3:      Singlet-A      6.9286 eV  178.94 nm  f=0.0025  <S**2>=0.000
      12 -> 14        -0.37061
      13 -> 15         0.16832
      13 -> 16         0.48772
      13 -> 17        -0.25800

 Excited State   4:      Singlet-A      6.9812 eV  177.60 nm  f=0.0013  <S**2>=0.000
      12 -> 14        -0.24171
      13 -> 15         0.20241
      13 -> 17         0.58916
      13 -> 18        -0.10063
      13 -> 21         0.11322

 Excited State   5:      Singlet-A      7.3189 eV  169.40 nm  f=0.0025  <S**2>=0.000
       9 -> 14         0.14224
      11 -> 14         0.67657

 Excited State   6:      Singlet-A      7.9507 eV  155.94 nm  f=0.0595  <S**2>=0.000
       9 -> 14         0.11666
      10 -> 14         0.59153
      12 -> 14        -0.24669
      13 -> 15        -0.13804
      13 -> 16        -0.15824

 Excited State   7:      Singlet-A      7.9880 eV  155.21 nm  f=0.2113  <S**2>=0.000
      10 -> 14         0.30776
      11 -> 14         0.10470
      12 -> 14         0.46743
      13 -> 15         0.21141
      13 -> 16         0.28458

 Excited State   8:      Singlet-A      8.1844 eV  151.49 nm  f=0.0049  <S**2>=0.000
      12 -> 15         0.23178
      12 -> 17        -0.14424
      13 -> 18         0.58682
      13 -> 19         0.12177
      13 -> 23         0.15653

 Excited State   9:      Singlet-A      8.5137 eV  145.63 nm  f=0.0343  <S**2>=0.000
      12 -> 15         0.56050
      12 -> 16        -0.11933
      12 -> 17        -0.20089
      13 -> 17        -0.10033
      13 -> 18        -0.26067

 Excited State  10:      Singlet-A      8.6749 eV  142.92 nm  f=0.0042  <S**2>=0.000
      12 -> 16        -0.14243
      13 -> 20         0.64242
      13 -> 22         0.14818

 Excited State  11:      Singlet-A      8.7015 eV  142.49 nm  f=0.0170  <S**2>=0.000
       9 -> 15        -0.19205
       9 -> 16        -0.14231
      10 -> 14        -0.14463
      10 -> 15         0.16477
      10 -> 16         0.15728
      11 -> 15         0.47006
      11 -> 16         0.33530

 Excited State  12:      Singlet-A      8.8191 eV  140.59 nm  f=0.1727  <S**2>=0.000
      12 -> 15         0.20711
      12 -> 16         0.54974
      12 -> 17         0.24973
      13 -> 14        -0.11647
      13 -> 20         0.10574

 Excited State  13:      Singlet-A      8.9178 eV  139.03 nm  f=0.0057  <S**2>=0.000
      12 -> 15         0.11651
      12 -> 16        -0.25298
      12 -> 17         0.49634
      13 -> 19         0.34559
      13 -> 20        -0.14969

 Excited State  14:      Singlet-A      9.3233 eV  132.98 nm  f=0.0114  <S**2>=0.000
       9 -> 14         0.17080
       9 -> 16        -0.12207
      11 -> 15        -0.24094
      11 -> 16         0.31523
      12 -> 15         0.10943
      12 -> 16        -0.10157
      12 -> 17         0.19421
      13 -> 19        -0.29209
      13 -> 21         0.28822

 Excited State  15:      Singlet-A      9.3577 eV  132.49 nm  f=0.0316  <S**2>=0.000
       9 -> 14        -0.15586
       9 -> 15         0.12120
       9 -> 16        -0.15106
      10 -> 15         0.10711
      11 -> 15        -0.24245
      11 -> 16         0.33706
      11 -> 17         0.11512
      11 -> 19         0.10545
      12 -> 16         0.12274
      13 -> 16        -0.11116
      13 -> 19         0.26392
      13 -> 21        -0.26183

 The electronic state is 1-A.
 Alpha  occ. eigenvalues --   -1.83453  -1.19108  -0.99739  -0.87584  -0.80587
 Alpha  occ. eigenvalues --   -0.74251  -0.71862  -0.60770  -0.56217  -0.52336
 Alpha  occ. eigenvalues --   -0.49920  -0.47015  -0.38431
 Alpha virt. eigenvalues --    0.03270   0.09304   0.09966   0.11818   0.18117
 Alpha virt. eigenvalues --    0.19161   0.20164   0.21683   0.26763   0.27035
 Alpha virt. eigenvalues --    0.27459

 Mulliken charges:
               1
     1  C   -0.078877
     2  C   -1.264234
     3  O    2.135972
     4  C   -1.223540
     5  C   -0.175933
     6  H    0.122949
     7  H    0.197255
     8  H    0.185782
     9  H    0.100626
 Sum of Mulliken charges =   0.00000

 Dipole moment (field-independent basis, Debye):
    X=              2.7046    Y=             -6.6251    Z=             -0.5819  Tot=              7.1795
 N-N= 1.044452496836D+02 E-N=-1.712434062267D+02  KE=-1.499841650021D+01
 Orbital energies and kinetic energies (alpha):
                                 1                 2
   1         O                -1.834526         -1.248477
   2         O                -1.191078         -0.967138
   3         O                -0.997387         -0.812347
   4         O                -0.875841         -0.639252
   5         O                -0.805870         -0.674862
   6         O                -0.742512         -0.591067
   7         O                -0.718619         -0.514217

 Normal termination of Gaussian 09 at Tue Dec 15 17:05:33 2015.
