 Gaussian 09, Revision D.01,
 Gaussian 09:  ES64L-G09RevD.01 24-Apr-2013

 -------------------------------------------------------
 #P B3LYP/3-21G CIS(Singlets,NStates=15) pop(full) force
 -------------------------------------------------------

 --------
 FuranDFT
 --------
 Symbolic Z-matrix:
 Charge =  0 Multiplicity = 1

                         Standard orientation:
 ---------------------------------------------------------------------
 Center     Atomic      Atomic             Coordinates (Angstroms)
 Number     Number       Type             X           Y           Z
 ---------------------------------------------------------------------
      1          6           0        1.010083    0.697276   -0.032860
      2          6           0        0.930391   -0.687172    0.030939
      3          8           0       -0.399434   -1.105088   -0.013396
      4          6           0       -1.135891   -0.028866    0.008723
      5          6           0       -0.380748    1.193153    0.008364
      6          1           0       -0.733018    2.149220   -0.013539
      7          1           0       -2.233786   -0.150229    0.002140
      8          1           0        1.729140   -1.456914   -0.030691
      9          1           0        1.890128    1.252281    0.058256
 ---------------------------------------------------------------------

 SCF Done:  E(RB3LYP) =  -228.734741359     A.U. after   14 cycles

 Excitation energies and oscillator strengths:

 Excited State   1:      Singlet-A      6.7130 eV  184.69 nm  f=0.0548  <S**2>=0.000
      17 -> 19         0.40022
      18 -> 19        -0.36282
      18 -> 20         0.44027
 This state for optimization and/or second-order correction.
 Total Energy, E(CIS) =  -228.488044615
 Copying the excited state density for this state as the 1-particle RhoCI density.

 Excited State   2:      Singlet-A      7.0206 eV  176.60 nm  f=0.1670  <S**2>=0.000
      17 -> 19         0.26862
      18 -> 19         0.57986
      18 -> 20         0.25625

 Excited State   3:      Singlet-A      8.5975 eV  144.21 nm  f=0.0113  <S**2>=0.000
      16 -> 19         0.65395
      18 -> 21        -0.21818

 Excited State   4:      Singlet-A      8.6451 eV  143.42 nm  f=0.0042  <S**2>=0.000
      16 -> 19         0.23549
      18 -> 21         0.64981

 Excited State   5:      Singlet-A      8.7907 eV  141.04 nm  f=0.0086  <S**2>=0.000
      18 -> 22         0.68736

 Excited State   6:      Singlet-A      9.0106 eV  137.60 nm  f=0.2112  <S**2>=0.000
      17 -> 19         0.20112
      17 -> 20         0.58467
      18 -> 20        -0.23759
      18 -> 21         0.10088

 Excited State   7:      Singlet-A      9.3510 eV  132.59 nm  f=0.3955  <S**2>=0.000
      17 -> 19         0.38692
      17 -> 20        -0.30712
      17 -> 21        -0.13977
      18 -> 20        -0.34277
      18 -> 23        -0.22902

 Excited State   8:      Singlet-A      9.4470 eV  131.24 nm  f=0.0588  <S**2>=0.000
      15 -> 19        -0.10157
      17 -> 19         0.14384
      17 -> 20        -0.11738
      18 -> 20        -0.12566
      18 -> 23         0.63655

 Excited State   9:      Singlet-A      9.7976 eV  126.54 nm  f=0.0027  <S**2>=0.000
      14 -> 19         0.31770
      15 -> 19        -0.14459
      16 -> 20         0.59369

 Excited State  10:      Singlet-A      9.9586 eV  124.50 nm  f=0.0132  <S**2>=0.000
      15 -> 19         0.61845
      16 -> 20         0.14492
      17 -> 21         0.22619
      18 -> 24        -0.11724

 Excited State  11:      Singlet-A     10.0145 eV  123.80 nm  f=0.0129  <S**2>=0.000
      15 -> 19        -0.25502
      17 -> 21         0.63357
      18 -> 23        -0.13019

 Excited State  12:      Singlet-A     10.1716 eV  121.89 nm  f=0.0035  <S**2>=0.000
      17 -> 22         0.67756
      18 -> 24        -0.13799

 Excited State  13:      Singlet-A     10.2640 eV  120.80 nm  f=0.0007  <S**2>=0.000
      14 -> 19         0.61932
      16 -> 20        -0.31416

 Excited State  14:      Singlet-A     10.3682 eV  119.58 nm  f=0.0045  <S**2>=0.000
      15 -> 19         0.10266
      17 -> 21         0.10272
      17 -> 22         0.12983
      18 -> 24         0.63951
      18 -> 25        -0.20913

 Excited State  15:      Singlet-A     10.5010 eV  118.07 nm  f=0.0044  <S**2>=0.000
      18 -> 24         0.20882
      18 -> 25         0.65556

 The electronic state is 1-A.
 Alpha  occ. eigenvalues --  -19.12613 -10.18622 -10.18110 -10.13237 -10.12813
 Alpha  occ. eigenvalues --   -1.14249  -0.79404  -0.74258  -0.60932  -0.56278
 Alpha  occ. eigenvalues --   -0.54444  -0.45733  -0.45280  -0.41471  -0.40492
 Alpha  occ. eigenvalues --   -0.35831  -0.27509  -0.22424
 Alpha virt. eigenvalues --    0.01594   0.06214   0.13280   0.14927   0.16755
 Alpha virt. eigenvalues --    0.19631   0.20654   0.23788   0.32883   0.39991
 Alpha virt. eigenvalues --    0.44060   0.68448   0.70035   0.71325   0.73029

 Mulliken charges:
               1
     1  C   -0.243094
     2  C    0.054818
     3  O   -0.481862
     4  C    0.127120
     5  C   -0.262057
     6  H    0.186400
     7  H    0.212680
     8  H    0.212459
     9  H    0.193535
 Sum of Mulliken charges =   0.00000

 Dipole moment (field-independent basis, Debye):
    X=              0.2400    Y=              0.5805    Z=              0.0088  Tot=              0.6282
 Quadrupole moment (field-independent basis, Debye-Ang):
   XX=            -24.0066   YY=            -27.7080   ZZ=            -32.0617
   XY=             -1.3009   XZ=              0.0475   YZ=              0.1116

 Normal termination of Gaussian 09 at Tue Dec 15 16:15:31 2015.
