 Gaussian 09, Revision D.01,
 Gaussian 09:  ES64L-G09RevD.01 24-Apr-2013

 ------------------------------------------------------------
 #P AM1(Input,print) CIS(Singlets,NStates=15) pop(full) force
 ------------------------------------------------------------

 -----------------
 AM1-Reparam Input
 -----------------
 Symbolic Z-matrix:
 Charge =  0 Multiplicity = 1

                         Standard orientation:
 ---------------------------------------------------------------------
 Center     Atomic      Atomic             Coordinates (Angstroms)
 Number     Number       Type             X           Y           Z
 ---------------------------------------------------------------------
      1          6           0        0.891225    0.800723    0.015921
      2          6           0        1.016608   -0.509661    0.031629
      3          8           0       -0.214954   -1.150807   -0.014098
      4          6           0       -1.141199   -0.136255   -0.007561
      5          6           0       -0.532356    1.050949   -0.024795
      6          1           0       -1.111574    2.035757    0.060398
      7          1           0       -2.156911   -0.506916    0.075583
      8          1           0        1.919511   -1.151118   -0.050373
      9          1           0        1.662937    1.594196   -0.063994
 ---------------------------------------------------------------------

 SCF Done:  E(RAM1) =   2.84492092355     A.U. after   14 cycles

 Excitation energies and oscillator strengths:

 Excited State   1:      Singlet-A      5.1393 eV  241.25 nm  f=0.3320  <S**2>=0.000
      13 -> 14         0.69464
 This state for optimization and/or second-order correction.
 Total Energy, E(CIS) =   3.03378829656
 Copying the excited state density for this state as the 1-particle RhoCI density.

 Excited State   2:      Singlet-A      6.1962 eV  200.10 nm  f=0.0002  <S**2>=0.000
      13 -> 15         0.48407
      13 -> 16        -0.44603
      13 -> 18         0.14130
      13 -> 19        -0.15955

 Excited State   3:      Singlet-A      6.2603 eV  198.05 nm  f=0.0054  <S**2>=0.000
      13 -> 15         0.44126
      13 -> 16         0.49112
      13 -> 17         0.19824

 Excited State   4:      Singlet-A      6.6892 eV  185.35 nm  f=0.0006  <S**2>=0.000
      12 -> 14         0.69490

 Excited State   5:      Singlet-A      7.5308 eV  164.64 nm  f=0.0176  <S**2>=0.000
      11 -> 14         0.27902
      13 -> 15        -0.15833
      13 -> 17         0.61350

 Excited State   6:      Singlet-A      7.5846 eV  163.47 nm  f=0.0005  <S**2>=0.000
      13 -> 15        -0.10330
      13 -> 16         0.11820
      13 -> 18         0.49153
      13 -> 19        -0.17360
      13 -> 21        -0.42403

 Excited State   7:      Singlet-A      7.7720 eV  159.53 nm  f=0.0039  <S**2>=0.000
      11 -> 14         0.64043
      13 -> 17        -0.26876

 Excited State   8:      Singlet-A      8.3410 eV  148.64 nm  f=0.0006  <S**2>=0.000
      13 -> 18         0.14112
      13 -> 19         0.65716
      13 -> 21        -0.14995

 Excited State   9:      Singlet-A      8.6685 eV  143.03 nm  f=0.0675  <S**2>=0.000
      10 -> 14         0.64950
      12 -> 16         0.12074
      13 -> 21         0.10641

 Excited State  10:      Singlet-A      8.7200 eV  142.18 nm  f=0.0028  <S**2>=0.000
      10 -> 14        -0.13225
      13 -> 18         0.44890
      13 -> 20        -0.18821
      13 -> 21         0.48063

 Excited State  11:      Singlet-A      9.0803 eV  136.54 nm  f=0.0903  <S**2>=0.000
      13 -> 20         0.64140
      13 -> 21         0.20288

 Excited State  12:      Singlet-A      9.1536 eV  135.45 nm  f=0.0743  <S**2>=0.000
       8 -> 15         0.12816
       8 -> 16         0.10945
      11 -> 17        -0.19616
      12 -> 15         0.38895
      12 -> 16        -0.37469
      12 -> 18         0.24846
      12 -> 21        -0.12120
      13 -> 20         0.15112

 Excited State  13:      Singlet-A      9.5586 eV  129.71 nm  f=0.0835  <S**2>=0.000
       9 -> 15        -0.11006
      10 -> 14        -0.15597
      11 -> 15         0.23861
      11 -> 17         0.11432
      12 -> 15         0.48274
      12 -> 16         0.30640
      12 -> 17         0.12840

 Excited State  14:      Singlet-A      9.6929 eV  127.91 nm  f=0.2242  <S**2>=0.000
       8 -> 16        -0.11255
      11 -> 15        -0.20377
      11 -> 16        -0.21062
      11 -> 17        -0.29500
      12 -> 16         0.38047
      12 -> 17        -0.12811
      12 -> 18         0.24520
      12 -> 21        -0.15320

 Excited State  15:      Singlet-A      9.9442 eV  124.68 nm  f=0.0154  <S**2>=0.000
       7 -> 15         0.11082
      10 -> 15         0.54778
      10 -> 16         0.27696
      10 -> 17         0.10389
      11 -> 16         0.12732
      13 -> 15         0.12147

 The electronic state is 1-A.
 Alpha  occ. eigenvalues --   -1.70840  -1.11279  -0.91706  -0.78435  -0.74516
 Alpha  occ. eigenvalues --   -0.65260  -0.63142  -0.52694  -0.49424  -0.42617
 Alpha  occ. eigenvalues --   -0.42159  -0.38788  -0.26759
 Alpha virt. eigenvalues --    0.12482   0.18524   0.18662   0.25435   0.27786
 Alpha virt. eigenvalues --    0.28931   0.30208   0.31533   0.35968   0.45348
 Alpha virt. eigenvalues --    0.48737

 Mulliken charges:
               1
     1  C   -0.127291
     2  C   -1.927406
     3  O    3.203301
     4  C   -1.917961
     5  C   -0.164651
     6  H    0.176579
     7  H    0.284380
     8  H    0.300549
     9  H    0.172501
 Sum of Mulliken charges =   0.00000

 Dipole moment (field-independent basis, Debye):
    X=             -1.8572    Y=            -10.8891    Z=             -0.3411  Tot=             11.0516
 N-N= 1.036667415385D+02 E-N=-1.687657255360D+02  KE=-1.472555162705D+01
 Orbital energies and kinetic energies (alpha):
                                 1                 2
   1         O                -1.708397         -1.196890
   2         O                -1.112786         -0.982051
   3         O                -0.917065         -0.849230
   4         O                -0.784348         -0.589523
   5         O                -0.745160         -0.676210
   6         O                -0.652601         -0.553420
   7         O                -0.631416         -0.524547

 Normal termination of Gaussian 09 at Tue Dec 15 17:06:07 2015.
