 Gaussian 09, Revision D.01,
 Gaussian 09:  ES64L-G09RevD.01 24-Apr-2013

 ------------------------------------------------------------
 #P AM1(Input,print) CIS(Singlets,NStates=15) pop(full) force
 ------------------------------------------------------------

 -----------------
 AM1-Reparam Input
 -----------------
 Symbolic Z-matrix:
 Charge =  0 Multiplicity = 1

                         Standard orientation:
 ---------------------------------------------------------------------
 Center     Atomic      Atomic             Coordinates (Angstroms)
 Number     Number       Type             X           Y           Z
 ---------------------------------------------------------------------
      1          6           0        0.867254    0.750367   -0.006659
      2          6           0        1.031277   -0.573175    0.003733
      3          8           0       -0.267478   -1.103384   -0.017968
      4          6           0       -1.161435   -0.142458    0.039961
      5          6           0       -0.452088    1.109645   -0.021723
      6          1           0       -0.915346    2.034524    0.000670
      7          1           0       -2.163544   -0.350638   -0.026643
      8          1           0        1.785176   -1.221629    0.023659
      9          1           0        1.723492    1.498536    0.054184
 ---------------------------------------------------------------------

 SCF Done:  E(RAM1) =   1.11038822842     A.U. after   13 cycles

 Excitation energies and oscillator strengths:

 Excited State   1:      Singlet-A      5.7541 eV  215.47 nm  f=0.1847  <S**2>=0.000
      12 -> 16        -0.13775
      13 -> 14         0.67395
 This state for optimization and/or second-order correction.
 Total Energy, E(CIS) =   1.32184570831
 Copying the excited state density for this state as the 1-particle RhoCI density.

 Excited State   2:      Singlet-A      6.4571 eV  192.01 nm  f=0.0053  <S**2>=0.000
      13 -> 15         0.67717
      13 -> 16         0.10929
      13 -> 20        -0.10933

 Excited State   3:      Singlet-A      7.1523 eV  173.35 nm  f=0.0045  <S**2>=0.000
      11 -> 14         0.15287
      12 -> 14         0.43243
      13 -> 16         0.50840

 Excited State   4:      Singlet-A      7.2698 eV  170.55 nm  f=0.0029  <S**2>=0.000
       9 -> 14        -0.12712
      10 -> 14        -0.12189
      11 -> 14         0.64729
      13 -> 16        -0.19089

 Excited State   5:      Singlet-A      7.4789 eV  165.78 nm  f=0.0004  <S**2>=0.000
      12 -> 15         0.14758
      13 -> 17         0.64417
      13 -> 18         0.12841
      13 -> 21        -0.14083

 Excited State   6:      Singlet-A      7.9577 eV  155.81 nm  f=0.0060  <S**2>=0.000
       9 -> 14        -0.18182
      10 -> 14         0.62206
      11 -> 14         0.12410
      11 -> 16        -0.13724

 Excited State   7:      Singlet-A      8.0179 eV  154.63 nm  f=0.1432  <S**2>=0.000
      10 -> 14         0.12794
      11 -> 15        -0.14429
      11 -> 16        -0.11331
      12 -> 14         0.50010
      12 -> 15        -0.12762
      13 -> 16        -0.36305

 Excited State   8:      Singlet-A      8.2393 eV  150.48 nm  f=0.0070  <S**2>=0.000
      11 -> 15        -0.11319
      12 -> 15         0.55470
      13 -> 18        -0.31425
      13 -> 19         0.12521
      13 -> 23        -0.11565

 Excited State   9:      Singlet-A      8.3626 eV  148.26 nm  f=0.0191  <S**2>=0.000
       9 -> 16         0.16544
      10 -> 14         0.19870
      10 -> 15        -0.12447
      10 -> 16         0.26126
      11 -> 15        -0.21861
      11 -> 16         0.51611

 Excited State  10:      Singlet-A      8.4740 eV  146.31 nm  f=0.0048  <S**2>=0.000
      12 -> 15         0.30931
      13 -> 17        -0.18357
      13 -> 18         0.53935
      13 -> 20        -0.16651
      13 -> 23         0.12364

 Excited State  11:      Singlet-A      8.7018 eV  142.48 nm  f=0.0033  <S**2>=0.000
      11 -> 15         0.10100
      13 -> 18         0.10827
      13 -> 19         0.64712

 Excited State  12:      Singlet-A      8.8892 eV  139.48 nm  f=0.0517  <S**2>=0.000
       9 -> 15         0.19061
      10 -> 15         0.40826
      10 -> 16         0.14663
      11 -> 15         0.26353
      11 -> 16         0.13006
      11 -> 17         0.12235
      12 -> 16         0.26795
      13 -> 16        -0.10688
      13 -> 19        -0.15193

 Excited State  13:      Singlet-A      8.9634 eV  138.32 nm  f=0.2514  <S**2>=0.000
       9 -> 17        -0.10262
      10 -> 15        -0.14765
      11 -> 15        -0.19402
      11 -> 16        -0.11896
      12 -> 15        -0.11157
      12 -> 16         0.57245
      13 -> 14         0.13045

 Excited State  14:      Singlet-A      9.2914 eV  133.44 nm  f=0.2102  <S**2>=0.000
       9 -> 17        -0.17030
      10 -> 15         0.34495
      10 -> 17         0.10616
      10 -> 19        -0.14785
      11 -> 15        -0.32417
      11 -> 17        -0.14132
      11 -> 18         0.23274
      12 -> 14        -0.15177
      12 -> 16        -0.15250
      12 -> 17        -0.10348
      13 -> 16         0.10738

 Excited State  15:      Singlet-A      9.4069 eV  131.80 nm  f=0.0065  <S**2>=0.000
       9 -> 14         0.17461
      12 -> 17         0.58309
      13 -> 18         0.12440
      13 -> 20         0.19781
      13 -> 21         0.17809

 The electronic state is 1-A.
 Alpha  occ. eigenvalues --   -1.84044  -1.20186  -1.00560  -0.87515  -0.82460
 Alpha  occ. eigenvalues --   -0.74761  -0.72163  -0.62969  -0.56744  -0.52229
 Alpha  occ. eigenvalues --   -0.49620  -0.47821  -0.39957
 Alpha virt. eigenvalues --    0.03283   0.08674   0.09409   0.12711   0.16870
 Alpha virt. eigenvalues --    0.18881   0.19502   0.21709   0.26441   0.26755
 Alpha virt. eigenvalues --    0.27649

 Mulliken charges:
               1
     1  C   -0.091995
     2  C   -1.266989
     3  O    2.178863
     4  C   -1.288092
     5  C   -0.158479
     6  H    0.111303
     7  H    0.203977
     8  H    0.180913
     9  H    0.130499
 Sum of Mulliken charges =   0.00000

 Dipole moment (field-independent basis, Debye):
    X=             -1.6693    Y=             -6.3585    Z=             -0.3515  Tot=              6.5834
 N-N= 1.047252252167D+02 E-N=-1.715636308180D+02  KE=-1.504547401486D+01
 Orbital energies and kinetic energies (alpha):
                                 1                 2
   1         O                -1.840440         -1.250778
   2         O                -1.201863         -0.970841
   3         O                -1.005602         -0.817488
   4         O                -0.875151         -0.635595
   5         O                -0.824598         -0.679655
   6         O                -0.747607         -0.604546
   7         O                -0.721626         -0.515680

 Normal termination of Gaussian 09 at Tue Dec 15 17:05:47 2015.
