 Gaussian 09, Revision D.01,
 Gaussian 09:  ES64L-G09RevD.01 24-Apr-2013

 ------------------------------------------------------------
 #P AM1(Input,print) CIS(Singlets,NStates=15) pop(full) force
 ------------------------------------------------------------

 -----------------
 AM1-Reparam Input
 -----------------
 Symbolic Z-matrix:
 Charge =  0 Multiplicity = 1

                         Standard orientation:
 ---------------------------------------------------------------------
 Center     Atomic      Atomic             Coordinates (Angstroms)
 Number     Number       Type             X           Y           Z
 ---------------------------------------------------------------------
      1          6           0        0.956267    0.768817   -0.033050
      2          6           0       -0.446032    1.036165    0.027912
      3          8           0       -1.161625   -0.059223   -0.012288
      4          6           0       -0.315899   -1.090225   -0.000004
      5          6           0        1.029584   -0.673188   -0.002364
      6          1           0        1.929279   -1.218888    0.064128
      7          1           0       -0.770907   -2.058547    0.023451
      8          1           0       -0.921401    2.023070    0.013819
      9          1           0        1.712513    1.478739    0.041936
 ---------------------------------------------------------------------

 SCF Done:  E(RAM1) =   1.99727264164     A.U. after   13 cycles

 Excitation energies and oscillator strengths:

 Excited State   1:      Singlet-A      5.5261 eV  224.36 nm  f=0.3604  <S**2>=0.000
      13 -> 14         0.69477
 This state for optimization and/or second-order correction.
 Total Energy, E(CIS) =   2.20035214827
 Copying the excited state density for this state as the 1-particle RhoCI density.

 Excited State   2:      Singlet-A      6.8759 eV  180.32 nm  f=0.0039  <S**2>=0.000
      12 -> 14         0.68637

 Excited State   3:      Singlet-A      6.9118 eV  179.38 nm  f=0.0142  <S**2>=0.000
      13 -> 15         0.65020
      13 -> 17         0.22529

 Excited State   4:      Singlet-A      7.2027 eV  172.14 nm  f=0.0033  <S**2>=0.000
      13 -> 16         0.60683
      13 -> 18         0.30870

 Excited State   5:      Singlet-A      7.7878 eV  159.20 nm  f=0.0069  <S**2>=0.000
      10 -> 14         0.67270
      11 -> 14        -0.20015

 Excited State   6:      Singlet-A      8.2260 eV  150.72 nm  f=0.0000  <S**2>=0.000
      11 -> 15         0.12549
      13 -> 16         0.22460
      13 -> 18        -0.28059
      13 -> 19         0.56017
      13 -> 20         0.13137

 Excited State   7:      Singlet-A      8.4876 eV  146.08 nm  f=0.1259  <S**2>=0.000
      10 -> 14         0.20088
      11 -> 14         0.66309

 Excited State   8:      Singlet-A      9.0273 eV  137.34 nm  f=0.0213  <S**2>=0.000
      11 -> 15         0.13013
      11 -> 16        -0.18921
      13 -> 15        -0.17000
      13 -> 17         0.61985

 Excited State   9:      Singlet-A      9.2490 eV  134.05 nm  f=0.0025  <S**2>=0.000
      11 -> 15        -0.18711
      11 -> 16        -0.11557
      13 -> 16        -0.16753
      13 -> 18         0.49872
      13 -> 19         0.39387

 Excited State  10:      Singlet-A      9.6146 eV  128.95 nm  f=0.0159  <S**2>=0.000
       9 -> 16         0.10931
      10 -> 15         0.35262
      10 -> 17         0.20670
      11 -> 15        -0.10083
      12 -> 15         0.17034
      12 -> 16        -0.26591
      12 -> 18        -0.22698
      12 -> 19         0.24501

 Excited State  11:      Singlet-A      9.9052 eV  125.17 nm  f=0.0032  <S**2>=0.000
      11 -> 15         0.20388
      13 -> 18         0.18197
      13 -> 20         0.60293
      13 -> 21        -0.18824

 Excited State  12:      Singlet-A      9.9973 eV  124.02 nm  f=0.0090  <S**2>=0.000
      11 -> 15         0.53451
      11 -> 17         0.13146
      12 -> 15        -0.11651
      12 -> 16        -0.15940
      13 -> 16        -0.16127
      13 -> 20        -0.23852
      13 -> 21         0.10408

 Excited State  13:      Singlet-A     10.1046 eV  122.70 nm  f=0.0280  <S**2>=0.000
      10 -> 15        -0.24084
      10 -> 16         0.15457
      10 -> 18         0.11454
      11 -> 15         0.15279
      12 -> 15         0.53893
      12 -> 17         0.22809

 Excited State  14:      Singlet-A     10.1579 eV  122.06 nm  f=0.0606  <S**2>=0.000
      11 -> 16        -0.10118
      13 -> 20         0.20238
      13 -> 21         0.64295

 Excited State  15:      Singlet-A     10.2929 eV  120.46 nm  f=0.1469  <S**2>=0.000
      10 -> 15         0.36780
      10 -> 17         0.12336
      11 -> 15         0.12653
      12 -> 15         0.11635
      12 -> 16         0.42347
      12 -> 18         0.25158

 The electronic state is 1-A.
 Alpha  occ. eigenvalues --   -1.94643  -1.18350  -0.94517  -0.82608  -0.78487
 Alpha  occ. eigenvalues --   -0.68877  -0.65042  -0.55071  -0.53838  -0.45548
 Alpha  occ. eigenvalues --   -0.43845  -0.42789  -0.31147
 Alpha virt. eigenvalues --    0.09778   0.18229   0.19489   0.24949   0.26021
 Alpha virt. eigenvalues --    0.28347   0.29834   0.30290   0.38579   0.47137
 Alpha virt. eigenvalues --    0.51892

 Mulliken charges:
               1
     1  C   -0.197084
     2  C   -2.059844
     3  O    3.177672
     4  C   -2.023862
     5  C   -0.154001
     6  H    0.250107
     7  H    0.366956
     8  H    0.389228
     9  H    0.250828
 Sum of Mulliken charges =   0.00000

 Dipole moment (field-independent basis, Debye):
    X=             -9.4274    Y=             -0.2548    Z=             -0.1833  Tot=              9.4326
 N-N= 1.042314598348D+02 E-N=-1.694840792534D+02  KE=-1.548907502453D+01
 Orbital energies and kinetic energies (alpha):
                                 1                 2
   1         O                -1.946426         -1.410759
   2         O                -1.183501         -1.060723
   3         O                -0.945168         -0.839213
   4         O                -0.826079         -0.622715
   5         O                -0.784874         -0.671795
   6         O                -0.688770         -0.581941
   7         O                -0.650420         -0.513318

 Normal termination of Gaussian 09 at Tue Dec 15 17:07:12 2015.
