 Gaussian 09, Revision D.01,
 Gaussian 09:  ES64L-G09RevD.01 24-Apr-2013

 ------------------------------------------------------------
 #P AM1(Input,print) CIS(Singlets,NStates=15) pop(full) force
 ------------------------------------------------------------

 -----------------
 AM1-Reparam Input
 -----------------
 Symbolic Z-matrix:
 Charge =  0 Multiplicity = 1

                         Standard orientation:
 ---------------------------------------------------------------------
 Center     Atomic      Atomic             Coordinates (Angstroms)
 Number     Number       Type             X           Y           Z
 ---------------------------------------------------------------------
      1          6           0        0.569653    1.043992    0.004934
      2          6           0        1.183941   -0.220889   -0.006324
      3          8           0        0.135734   -1.131821   -0.002770
      4          6           0       -1.038320   -0.454336    0.013365
      5          6           0       -0.867145    0.820923   -0.009065
      6          1           0       -1.586914    1.554453   -0.018553
      7          1           0       -1.864804   -1.070508   -0.002558
      8          1           0        2.119918   -0.536569    0.003201
      9          1           0        1.157157    1.969053    0.022617
 ---------------------------------------------------------------------

 SCF Done:  E(RAM1) =   1.42159185516     A.U. after   13 cycles

 Excitation energies and oscillator strengths:

 Excited State   1:      Singlet-A      5.7900 eV  214.14 nm  f=0.3111  <S**2>=0.000
      13 -> 14         0.69256
 This state for optimization and/or second-order correction.
 Total Energy, E(CIS) =   1.63437002161
 Copying the excited state density for this state as the 1-particle RhoCI density.

 Excited State   2:      Singlet-A      6.1260 eV  202.39 nm  f=0.0011  <S**2>=0.000
      12 -> 15         0.10074
      13 -> 15         0.67033
      13 -> 17         0.13262

 Excited State   3:      Singlet-A      6.7875 eV  182.67 nm  f=0.0018  <S**2>=0.000
      13 -> 16         0.62410
      13 -> 17         0.19779
      13 -> 21        -0.15157
      13 -> 22        -0.13613

 Excited State   4:      Singlet-A      7.3698 eV  168.23 nm  f=0.0003  <S**2>=0.000
      11 -> 14         0.63606
      12 -> 14         0.24481
      13 -> 22         0.10492

 Excited State   5:      Singlet-A      7.6844 eV  161.35 nm  f=0.0067  <S**2>=0.000
      13 -> 15        -0.12630
      13 -> 17         0.54136
      13 -> 19        -0.18661
      13 -> 20        -0.15890
      13 -> 22         0.30162

 Excited State   6:      Singlet-A      7.8862 eV  157.22 nm  f=0.0007  <S**2>=0.000
      12 -> 16        -0.12002
      13 -> 16         0.18965
      13 -> 17        -0.34553
      13 -> 19        -0.26722
      13 -> 20        -0.30213
      13 -> 22         0.36899

 Excited State   7:      Singlet-A      8.2789 eV  149.76 nm  f=0.0035  <S**2>=0.000
      11 -> 14        -0.18244
      12 -> 14         0.45618
      13 -> 18         0.49014

 Excited State   8:      Singlet-A      8.3265 eV  148.90 nm  f=0.0017  <S**2>=0.000
      10 -> 14         0.68883
      13 -> 17        -0.10802

 Excited State   9:      Singlet-A      8.5838 eV  144.44 nm  f=0.0044  <S**2>=0.000
      12 -> 15        -0.11004
      13 -> 19         0.50172
      13 -> 20        -0.11694
      13 -> 21         0.41247
      13 -> 22         0.17667

 Excited State  10:      Singlet-A      8.8105 eV  140.72 nm  f=0.0012  <S**2>=0.000
      13 -> 16         0.12452
      13 -> 19        -0.35462
      13 -> 20         0.18150
      13 -> 21         0.51858
      13 -> 22        -0.19337

 Excited State  11:      Singlet-A      9.1166 eV  136.00 nm  f=0.1779  <S**2>=0.000
      11 -> 14         0.13394
      12 -> 14        -0.37358
      12 -> 16        -0.13780
      13 -> 18         0.40837
      13 -> 20         0.29509
      13 -> 22         0.19948

 Excited State  12:      Singlet-A      9.1474 eV  135.54 nm  f=0.1180  <S**2>=0.000
      11 -> 14        -0.10400
      12 -> 14         0.24318
      12 -> 16        -0.15088
      13 -> 18        -0.26552
      13 -> 20         0.44377
      13 -> 22         0.31655

 Excited State  13:      Singlet-A      9.3958 eV  131.96 nm  f=0.0016  <S**2>=0.000
      11 -> 15        -0.12359
      12 -> 15         0.59860
      12 -> 16         0.16207
      12 -> 17         0.10412
      13 -> 15        -0.11756
      13 -> 16         0.12542

 Excited State  14:      Singlet-A      9.6511 eV  128.47 nm  f=0.1476  <S**2>=0.000
       8 -> 15        -0.20183
      11 -> 15         0.57157
      11 -> 16        -0.11447
      12 -> 14         0.12960
      12 -> 15         0.12307

 Excited State  15:      Singlet-A      9.9553 eV  124.54 nm  f=0.0048  <S**2>=0.000
      11 -> 16        -0.15526
      12 -> 15        -0.17069
      12 -> 16         0.52893
      13 -> 16         0.12576
      13 -> 20         0.18006
      13 -> 22         0.13456
      13 -> 23         0.22057

 The electronic state is 1-A.
 Alpha  occ. eigenvalues --   -1.89421  -1.18998  -0.97956  -0.79743  -0.77642
 Alpha  occ. eigenvalues --   -0.68310  -0.62122  -0.51309  -0.48056  -0.40786
 Alpha  occ. eigenvalues --   -0.38017  -0.37580  -0.24464
 Alpha virt. eigenvalues --    0.16891   0.21264   0.24771   0.28759   0.29538
 Alpha virt. eigenvalues --    0.31158   0.33157   0.33638   0.34597   0.39924
 Alpha virt. eigenvalues --    0.45502

 Mulliken charges:
               1
     1  C   -0.099211
     2  C   -1.569572
     3  O    2.789810
     4  C   -1.521239
     5  C   -0.053179
     6  H    0.066429
     7  H    0.152204
     8  H    0.164821
     9  H    0.069939
 Sum of Mulliken charges =   0.00000

 Dipole moment (field-independent basis, Debye):
    X=              0.4567    Y=             -9.4923    Z=             -0.0753  Tot=              9.5036
 N-N= 1.038408717257D+02 E-N=-1.702466660422D+02  KE=-1.590378003308D+01
 Orbital energies and kinetic energies (alpha):
                                 1                 2
   1         O                -1.894210         -1.382388
   2         O                -1.189984         -1.069237
   3         O                -0.979562         -0.896923
   4         O                -0.797434         -0.649532
   5         O                -0.776416         -0.704562
   6         O                -0.683101         -0.617422
   7         O                -0.621223         -0.541344

 Normal termination of Gaussian 09 at Tue Dec 15 17:07:59 2015.
