 Gaussian 09, Revision D.01,
 Gaussian 09:  ES64L-G09RevD.01 24-Apr-2013

 ------------------------------------------------------------
 #P AM1(Input,print) CIS(Singlets,NStates=15) pop(full) force
 ------------------------------------------------------------

 -----------------
 AM1-Reparam Input
 -----------------
 Symbolic Z-matrix:
 Charge =  0 Multiplicity = 1

                         Standard orientation:
 ---------------------------------------------------------------------
 Center     Atomic      Atomic             Coordinates (Angstroms)
 Number     Number       Type             X           Y           Z
 ---------------------------------------------------------------------
      1          6           0        0.956267    0.768817   -0.033050
      2          6           0       -0.446032    1.036165    0.027912
      3          8           0       -1.161625   -0.059223   -0.012288
      4          6           0       -0.315899   -1.090225   -0.000004
      5          6           0        1.029584   -0.673188   -0.002364
      6          1           0        1.929279   -1.218888    0.064128
      7          1           0       -0.770907   -2.058547    0.023451
      8          1           0       -0.921401    2.023070    0.013819
      9          1           0        1.712513    1.478739    0.041936
 ---------------------------------------------------------------------

 SCF Done:  E(RAM1) =   1.76162397548     A.U. after   13 cycles

 Excitation energies and oscillator strengths:

 Excited State   1:      Singlet-A      5.6546 eV  219.26 nm  f=0.3681  <S**2>=0.000
      13 -> 14         0.69237
 This state for optimization and/or second-order correction.
 Total Energy, E(CIS) =   1.96942767725
 Copying the excited state density for this state as the 1-particle RhoCI density.

 Excited State   2:      Singlet-A      6.9074 eV  179.50 nm  f=0.0086  <S**2>=0.000
      13 -> 15         0.67428
      13 -> 17         0.17229

 Excited State   3:      Singlet-A      7.2186 eV  171.76 nm  f=0.0012  <S**2>=0.000
      13 -> 16         0.65815
      13 -> 18         0.18798
      13 -> 19         0.10653

 Excited State   4:      Singlet-A      7.6315 eV  162.46 nm  f=0.0022  <S**2>=0.000
      11 -> 14         0.23981
      12 -> 14         0.65593

 Excited State   5:      Singlet-A      8.4052 eV  147.51 nm  f=0.0092  <S**2>=0.000
      10 -> 14         0.65702
      11 -> 14        -0.22498

 Excited State   6:      Singlet-A      8.5207 eV  145.51 nm  f=0.0004  <S**2>=0.000
      13 -> 16        -0.13316
      13 -> 17        -0.22389
      13 -> 18         0.55716
      13 -> 19        -0.17739
      13 -> 21        -0.24536

 Excited State   7:      Singlet-A      8.8698 eV  139.78 nm  f=0.1221  <S**2>=0.000
      10 -> 14         0.23595
      11 -> 14         0.61118
      12 -> 14        -0.23035

 Excited State   8:      Singlet-A      9.3603 eV  132.46 nm  f=0.0125  <S**2>=0.000
      11 -> 15         0.14451
      11 -> 16        -0.18061
      13 -> 15        -0.10796
      13 -> 17         0.59040
      13 -> 18         0.23828

 Excited State   9:      Singlet-A      9.7760 eV  126.82 nm  f=0.0029  <S**2>=0.000
      11 -> 15        -0.25966
      11 -> 16        -0.14113
      12 -> 15         0.14499
      13 -> 19         0.59458

 Excited State  10:      Singlet-A      9.9291 eV  124.87 nm  f=0.0095  <S**2>=0.000
       8 -> 15         0.11668
       9 -> 15        -0.10873
       9 -> 16         0.11588
      10 -> 15         0.32650
      10 -> 16         0.11364
      10 -> 17         0.19400
      11 -> 18        -0.13284
      12 -> 15         0.19141
      12 -> 16        -0.23943
      12 -> 17         0.13147
      12 -> 18        -0.25398
      13 -> 19        -0.15708

 Excited State  11:      Singlet-A     10.2037 eV  121.51 nm  f=0.0035  <S**2>=0.000
      11 -> 15         0.52006
      12 -> 15        -0.19164
      12 -> 16        -0.15119
      13 -> 15         0.10619
      13 -> 16        -0.15274
      13 -> 17        -0.13095
      13 -> 18         0.10652
      13 -> 19         0.24393

 Excited State  12:      Singlet-A     10.4513 eV  118.63 nm  f=0.0253  <S**2>=0.000
      10 -> 15        -0.25265
      10 -> 16         0.15716
      11 -> 15         0.26179
      11 -> 16        -0.17531
      12 -> 15         0.47030
      12 -> 16         0.13472
      12 -> 17         0.13900

 Excited State  13:      Singlet-A     10.5389 eV  117.64 nm  f=0.0281  <S**2>=0.000
      10 -> 15         0.11413
      11 -> 16        -0.14786
      12 -> 16         0.26190
      13 -> 17        -0.12900
      13 -> 18         0.16205
      13 -> 20         0.17314
      13 -> 21         0.54730

 Excited State  14:      Singlet-A     10.5633 eV  117.37 nm  f=0.0681  <S**2>=0.000
      10 -> 15        -0.24007
      11 -> 16         0.24776
      12 -> 15         0.16259
      12 -> 16        -0.33774
      13 -> 18         0.17869
      13 -> 20        -0.20431
      13 -> 21         0.35051

 Excited State  15:      Singlet-A     10.6792 eV  116.10 nm  f=0.1383  <S**2>=0.000
      10 -> 15         0.20956
      10 -> 16         0.13474
      11 -> 16         0.39951
      12 -> 15         0.13464
      12 -> 16         0.34030
      13 -> 20        -0.27582

 The electronic state is 1-A.
 Alpha  occ. eigenvalues --   -2.00292  -1.25516  -0.98998  -0.90135  -0.84581
 Alpha  occ. eigenvalues --   -0.76818  -0.74347  -0.63274  -0.61403  -0.53928
 Alpha  occ. eigenvalues --   -0.51799  -0.51257  -0.38465
 Alpha virt. eigenvalues --    0.03356   0.10461   0.11510   0.19292   0.19938
 Alpha virt. eigenvalues --    0.22152   0.24725   0.25900   0.31968   0.39744
 Alpha virt. eigenvalues --    0.45279

 Mulliken charges:
               1
     1  C   -0.105189
     2  C   -1.945381
     3  O    3.160715
     4  C   -1.909839
     5  C   -0.069676
     6  H    0.142461
     7  H    0.280258
     8  H    0.304591
     9  H    0.142059
 Sum of Mulliken charges =   0.00000

 Dipole moment (field-independent basis, Debye):
    X=             -9.8631    Y=             -0.3039    Z=             -0.2434  Tot=              9.8707
 N-N= 1.054401769961D+02 E-N=-1.702933934832D+02  KE=-1.564744857571D+01
 Orbital energies and kinetic energies (alpha):
                                 1                 2
   1         O                -2.002923         -1.398241
   2         O                -1.255158         -1.045027
   3         O                -0.989977         -0.848148
   4         O                -0.901350         -0.612941
   5         O                -0.845808         -0.692386
   6         O                -0.768176         -0.623069
   7         O                -0.743474         -0.534223

 Normal termination of Gaussian 09 at Tue Dec 15 17:08:52 2015.
