 Gaussian 09, Revision D.01,
 Gaussian 09:  ES64L-G09RevD.01 24-Apr-2013

 ------------------------------------------------------------
 #P AM1(Input,print) CIS(Singlets,NStates=15) pop(full) force
 ------------------------------------------------------------

 -----------------
 AM1-Reparam Input
 -----------------
 Symbolic Z-matrix:
 Charge =  0 Multiplicity = 1

                         Standard orientation:
 ---------------------------------------------------------------------
 Center     Atomic      Atomic             Coordinates (Angstroms)
 Number     Number       Type             X           Y           Z
 ---------------------------------------------------------------------
      1          6           0       -0.539353    1.061019   -0.012649
      2          6           0       -1.170045   -0.182549    0.028961
      3          8           0       -0.201308   -1.090727   -0.017120
      4          6           0        1.014732   -0.522020   -0.001889
      5          6           0        0.911592    0.780923   -0.009582
      6          1           0        1.622497    1.557458    0.076031
      7          1           0        1.845513   -1.197540    0.044122
      8          1           0       -2.155868   -0.461706    0.015911
      9          1           0       -1.003236    2.003364   -0.028147
 ---------------------------------------------------------------------

 SCF Done:  E(RAM1) =  -3.80030676484     A.U. after   14 cycles

 Excitation energies and oscillator strengths:

 Excited State   1:      Singlet-A      5.5157 eV  224.79 nm  f=0.0068  <S**2>=0.000
      13 -> 14         0.69346
      13 -> 17         0.10888
 This state for optimization and/or second-order correction.
 Total Energy, E(CIS) =  -3.59761013608
 Copying the excited state density for this state as the 1-particle RhoCI density.

 Excited State   2:      Singlet-A      6.3854 eV  194.17 nm  f=0.0014  <S**2>=0.000
      13 -> 15        -0.15603
      13 -> 16         0.64574
      13 -> 21        -0.14688

 Excited State   3:      Singlet-A      7.0711 eV  175.34 nm  f=0.2199  <S**2>=0.000
      12 -> 18        -0.10384
      13 -> 15         0.65925
      13 -> 16         0.15492

 Excited State   4:      Singlet-A      7.6725 eV  161.59 nm  f=0.0123  <S**2>=0.000
      12 -> 14        -0.15697
      13 -> 17         0.63349
      13 -> 19         0.18009

 Excited State   5:      Singlet-A      8.0652 eV  153.73 nm  f=0.0212  <S**2>=0.000
      12 -> 14        -0.24885
      13 -> 17        -0.22145
      13 -> 18         0.10595
      13 -> 19         0.57767
      13 -> 21         0.12478

 Excited State   6:      Singlet-A      8.3951 eV  147.69 nm  f=0.0912  <S**2>=0.000
      12 -> 15         0.23927
      13 -> 18         0.61977
      13 -> 19        -0.16543

 Excited State   7:      Singlet-A      8.4284 eV  147.10 nm  f=0.0074  <S**2>=0.000
      12 -> 14         0.61149
      12 -> 17         0.11702
      13 -> 18         0.15000
      13 -> 19         0.24080
      13 -> 21         0.12344

 Excited State   8:      Singlet-A      9.6199 eV  128.88 nm  f=0.0080  <S**2>=0.000
      11 -> 15         0.61743
      12 -> 15         0.11223
      13 -> 20         0.19969
      13 -> 21         0.11981
      13 -> 22        -0.13146

 Excited State   9:      Singlet-A      9.7056 eV  127.74 nm  f=0.0067  <S**2>=0.000
      11 -> 15        -0.26950
      12 -> 16         0.13245
      12 -> 17        -0.10100
      13 -> 20         0.52886
      13 -> 21         0.11506
      13 -> 22        -0.26157

 Excited State  10:      Singlet-A      9.9283 eV  124.88 nm  f=0.0900  <S**2>=0.000
      11 -> 14         0.41049
      11 -> 16         0.40391
      12 -> 15         0.13767
      12 -> 18         0.17624
      13 -> 18        -0.11568
      13 -> 21         0.15031

 Excited State  11:      Singlet-A      9.9939 eV  124.06 nm  f=0.0109  <S**2>=0.000
      11 -> 15        -0.12534
      11 -> 16        -0.17963
      12 -> 15         0.12794
      12 -> 16        -0.25509
      13 -> 16         0.12766
      13 -> 19        -0.10106
      13 -> 21         0.52936
      13 -> 22         0.10321

 Excited State  12:      Singlet-A     10.0812 eV  122.99 nm  f=0.0271  <S**2>=0.000
      11 -> 14         0.34680
      11 -> 16        -0.26823
      12 -> 15         0.24795
      12 -> 16        -0.24392
      12 -> 17        -0.10694
      12 -> 19        -0.13395
      13 -> 18        -0.12675
      13 -> 21        -0.25400

 Excited State  13:      Singlet-A     10.1721 eV  121.89 nm  f=0.0141  <S**2>=0.000
      10 -> 15        -0.10921
      11 -> 14         0.25591
      11 -> 16        -0.33081
      12 -> 16         0.44470
      12 -> 17         0.13959
      12 -> 19         0.15066
      13 -> 22         0.10613

 Excited State  14:      Singlet-A     10.2602 eV  120.84 nm  f=0.0568  <S**2>=0.000
      13 -> 20         0.32600
      13 -> 22         0.59562

 Excited State  15:      Singlet-A     10.3717 eV  119.54 nm  f=0.1260  <S**2>=0.000
      10 -> 15        -0.10238
      11 -> 14        -0.26475
      11 -> 15        -0.10230
      11 -> 17        -0.20549
      12 -> 15         0.49194
      12 -> 16         0.20682
      13 -> 18        -0.14998
      13 -> 22         0.11635

 The electronic state is 1-A.
 Alpha  occ. eigenvalues --   -3.70780  -1.24454  -0.93872  -0.91099  -0.88987
 Alpha  occ. eigenvalues --   -0.81689  -0.74054  -0.61377  -0.58788  -0.50394
 Alpha  occ. eigenvalues --   -0.46766  -0.43214  -0.30516
 Alpha virt. eigenvalues --    0.14578   0.17447   0.19995   0.22931   0.23118
 Alpha virt. eigenvalues --    0.24339   0.30450   0.31522   0.32263   0.34333
 Alpha virt. eigenvalues --    0.40968

 Mulliken charges:
               1
     1  C    0.056279
     2  C   -1.156069
     3  O    2.395586
     4  C   -1.125302
     5  C    0.127405
     6  H   -0.124157
     7  H   -0.034299
     8  H   -0.022361
     9  H   -0.117083
 Sum of Mulliken charges =   0.00000

 Dipole moment (field-independent basis, Debye):
    X=             -1.1809    Y=             -8.3348    Z=             -0.2995  Tot=              8.4233
 N-N= 1.049975003854D+02 E-N=-1.719613496357D+02  KE=-2.131440347555D+01
 Orbital energies and kinetic energies (alpha):
                                 1                 2
   1         O                -3.707805         -3.054817
   2         O                -1.244545         -1.090767
   3         O                -0.938722         -0.866377
   4         O                -0.910989         -0.872257
   5         O                -0.889870         -0.816551
   6         O                -0.816891         -0.701591
   7         O                -0.740545         -0.711350

 Normal termination of Gaussian 09 at Fri Dec 11 13:41:20 2015.
