 Gaussian 09, Revision D.01,
 Gaussian 09:  ES64L-G09RevD.01 24-Apr-2013

 ------------------------------------------------------------
 #P AM1(Input,print) CIS(Singlets,NStates=15) pop(full) force
 ------------------------------------------------------------

 -----------------
 AM1-Reparam Input
 -----------------
 Symbolic Z-matrix:
 Charge =  0 Multiplicity = 1

                         Standard orientation:
 ---------------------------------------------------------------------
 Center     Atomic      Atomic             Coordinates (Angstroms)
 Number     Number       Type             X           Y           Z
 ---------------------------------------------------------------------
      1          6           0        0.956267    0.768817   -0.033050
      2          6           0       -0.446032    1.036165    0.027912
      3          8           0       -1.161625   -0.059223   -0.012288
      4          6           0       -0.315899   -1.090225   -0.000004
      5          6           0        1.029584   -0.673188   -0.002364
      6          1           0        1.929279   -1.218888    0.064128
      7          1           0       -0.770907   -2.058547    0.023451
      8          1           0       -0.921401    2.023070    0.013819
      9          1           0        1.712513    1.478739    0.041936
 ---------------------------------------------------------------------

 SCF Done:  E(RAM1) =   1.78648489934     A.U. after   13 cycles

 Excitation energies and oscillator strengths:

 Excited State   1:      Singlet-A      5.8336 eV  212.53 nm  f=0.3423  <S**2>=0.000
      13 -> 14         0.68832
 This state for optimization and/or second-order correction.
 Total Energy, E(CIS) =   2.00086743103
 Copying the excited state density for this state as the 1-particle RhoCI density.

 Excited State   2:      Singlet-A      6.7928 eV  182.52 nm  f=0.0054  <S**2>=0.000
      12 -> 14         0.34653
      13 -> 15         0.56550
      13 -> 17         0.18065

 Excited State   3:      Singlet-A      6.8071 eV  182.14 nm  f=0.0079  <S**2>=0.000
      12 -> 14         0.60307
      13 -> 15        -0.32314
      13 -> 17        -0.10146

 Excited State   4:      Singlet-A      7.0240 eV  176.51 nm  f=0.0009  <S**2>=0.000
      11 -> 16         0.12118
      13 -> 16         0.64940
      13 -> 18         0.17172
      13 -> 19         0.10732

 Excited State   5:      Singlet-A      7.7753 eV  159.46 nm  f=0.0051  <S**2>=0.000
      10 -> 14         0.61372
      11 -> 14        -0.33886

 Excited State   6:      Singlet-A      8.4515 eV  146.70 nm  f=0.0004  <S**2>=0.000
      11 -> 15        -0.14555
      13 -> 15         0.11080
      13 -> 17        -0.26325
      13 -> 18         0.52886
      13 -> 21         0.30498

 Excited State   7:      Singlet-A      8.6059 eV  144.07 nm  f=0.0170  <S**2>=0.000
      11 -> 16        -0.16150
      13 -> 15        -0.11835
      13 -> 16        -0.10080
      13 -> 17         0.58607
      13 -> 18         0.25822
      13 -> 21         0.10072

 Excited State   8:      Singlet-A      8.7245 eV  142.11 nm  f=0.0970  <S**2>=0.000
      10 -> 14         0.33333
      11 -> 14         0.58560

 Excited State   9:      Singlet-A      9.1211 eV  135.93 nm  f=0.0278  <S**2>=0.000
       8 -> 15        -0.12780
      10 -> 15        -0.23572
      10 -> 16        -0.12726
      10 -> 17        -0.21523
      11 -> 15         0.13749
      12 -> 15        -0.27420
      12 -> 16         0.28328
      12 -> 18         0.28082
      12 -> 21         0.11554

 Excited State  10:      Singlet-A      9.2790 eV  133.62 nm  f=0.0025  <S**2>=0.000
      11 -> 15        -0.10332
      13 -> 19         0.66619

 Excited State  11:      Singlet-A      9.6547 eV  128.42 nm  f=0.0521  <S**2>=0.000
       9 -> 15         0.11598
      10 -> 15        -0.25053
      11 -> 15         0.34884
      12 -> 15         0.45094
      12 -> 17         0.19295

 Excited State  12:      Singlet-A      9.6999 eV  127.82 nm  f=0.0115  <S**2>=0.000
      10 -> 15         0.12491
      11 -> 15         0.35486
      11 -> 16         0.17413
      12 -> 15        -0.24623
      12 -> 16        -0.30946
      13 -> 16        -0.11830
      13 -> 18         0.21295
      13 -> 21        -0.21729

 Excited State  13:      Singlet-A      9.8130 eV  126.35 nm  f=0.0585  <S**2>=0.000
      10 -> 15         0.27061
      12 -> 16         0.40567
      13 -> 18         0.18499
      13 -> 21        -0.35538

 Excited State  14:      Singlet-A      9.9092 eV  125.12 nm  f=0.0221  <S**2>=0.000
      10 -> 15         0.28342
      11 -> 15         0.31829
      12 -> 16         0.12012
      13 -> 18        -0.17374
      13 -> 20         0.20424
      13 -> 21         0.41755

 Excited State  15:      Singlet-A     10.0068 eV  123.90 nm  f=0.0337  <S**2>=0.000
       8 -> 16        -0.10940
       9 -> 15        -0.10533
      10 -> 15         0.11277
      10 -> 19        -0.11113
      11 -> 16         0.41154
      12 -> 15         0.15938
      13 -> 19         0.11282
      13 -> 20        -0.38246
      13 -> 21         0.15824

 The electronic state is 1-A.
 Alpha  occ. eigenvalues --   -1.94658  -1.20021  -0.96767  -0.81643  -0.79858
 Alpha  occ. eigenvalues --   -0.68745  -0.67022  -0.52095  -0.49564  -0.42567
 Alpha  occ. eigenvalues --   -0.41705  -0.39317  -0.29413
 Alpha virt. eigenvalues --    0.12820   0.18626   0.19371   0.26278   0.27849
 Alpha virt. eigenvalues --    0.29960   0.31506   0.33839   0.39145   0.47628
 Alpha virt. eigenvalues --    0.52591

 Mulliken charges:
               1
     1  C   -0.098242
     2  C   -1.975575
     3  O    3.131785
     4  C   -1.940726
     5  C   -0.054644
     6  H    0.151755
     7  H    0.304347
     8  H    0.325933
     9  H    0.155368
 Sum of Mulliken charges =   0.00000

 Dipole moment (field-independent basis, Debye):
    X=             -9.6090    Y=             -0.2991    Z=             -0.2347  Tot=              9.6165
 N-N= 1.040182947152D+02 E-N=-1.695388832917D+02  KE=-1.565723776745D+01
 Orbital energies and kinetic energies (alpha):
                                 1                 2
   1         O                -1.946580         -1.434313
   2         O                -1.200206         -1.078209
   3         O                -0.967669         -0.885132
   4         O                -0.816429         -0.633760
   5         O                -0.798581         -0.689256
   6         O                -0.687452         -0.567565
   7         O                -0.670220         -0.589486

 Normal termination of Gaussian 09 at Tue Dec 15 17:09:52 2015.
