 Gaussian 09, Revision D.01,
 Gaussian 09:  ES64L-G09RevD.01 24-Apr-2013

 ------------------------------------------------------------
 #P AM1(Input,print) CIS(Singlets,NStates=15) pop(full) force
 ------------------------------------------------------------

 -----------------
 AM1-Reparam Input
 -----------------
 Symbolic Z-matrix:
 Charge =  0 Multiplicity = 1

                         Standard orientation:
 ---------------------------------------------------------------------
 Center     Atomic      Atomic             Coordinates (Angstroms)
 Number     Number       Type             X           Y           Z
 ---------------------------------------------------------------------
      1          6           0        0.959612    0.811778    0.014553
      2          6           0        0.988970   -0.599361   -0.004518
      3          8           0       -0.284980   -1.155866    0.008552
      4          6           0       -1.119805   -0.053989   -0.024754
      5          6           0       -0.525720    1.073199    0.000333
      6          1           0       -0.919785    2.022008   -0.017033
      7          1           0       -2.191863   -0.412602    0.069901
      8          1           0        1.864087   -1.278295   -0.035103
      9          1           0        1.709057    1.526061    0.000133
 ---------------------------------------------------------------------

 SCF Done:  E(RAM1) =   2.64926875098     A.U. after   14 cycles

 Excitation energies and oscillator strengths:

 Excited State   1:      Singlet-A      4.7485 eV  261.10 nm  f=0.3709  <S**2>=0.000
      13 -> 14         0.69958
 This state for optimization and/or second-order correction.
 Total Energy, E(CIS) =   2.82377470997
 Copying the excited state density for this state as the 1-particle RhoCI density.

 Excited State   2:      Singlet-A      5.4742 eV  226.49 nm  f=0.0004  <S**2>=0.000
      13 -> 15         0.66267
      13 -> 16        -0.12957
      13 -> 17         0.14893

 Excited State   3:      Singlet-A      6.1265 eV  202.37 nm  f=0.0007  <S**2>=0.000
      12 -> 14         0.65426
      13 -> 16         0.24468

 Excited State   4:      Singlet-A      6.1525 eV  201.52 nm  f=0.0014  <S**2>=0.000
      12 -> 14        -0.25450
      13 -> 15         0.14768
      13 -> 16         0.60998
      13 -> 17        -0.12430

 Excited State   5:      Singlet-A      7.3858 eV  167.87 nm  f=0.0003  <S**2>=0.000
      13 -> 15        -0.11185
      13 -> 16         0.13513
      13 -> 17         0.66053
      13 -> 21         0.10586

 Excited State   6:      Singlet-A      7.6598 eV  161.86 nm  f=0.0055  <S**2>=0.000
      10 -> 14         0.69894

 Excited State   7:      Singlet-A      8.3188 eV  149.04 nm  f=0.1060  <S**2>=0.000
      11 -> 14         0.66460
      12 -> 15        -0.18861

 Excited State   8:      Singlet-A      8.7853 eV  141.13 nm  f=0.2948  <S**2>=0.000
      11 -> 14         0.20781
      12 -> 15         0.58492
      12 -> 16        -0.14779
      12 -> 17         0.18383
      13 -> 18         0.11346

 Excited State   9:      Singlet-A      8.8898 eV  139.47 nm  f=0.0213  <S**2>=0.000
      11 -> 15         0.20484
      13 -> 18         0.63170
      13 -> 19         0.13715

 Excited State  10:      Singlet-A      9.1747 eV  135.14 nm  f=0.0019  <S**2>=0.000
      11 -> 16         0.26065
      13 -> 19         0.63309

 Excited State  11:      Singlet-A      9.4520 eV  131.17 nm  f=0.0014  <S**2>=0.000
      10 -> 15        -0.24081
      10 -> 18         0.16357
      12 -> 15         0.24218
      12 -> 16         0.42647
      12 -> 17        -0.33677
      12 -> 18        -0.10155

 Excited State  12:      Singlet-A      9.7837 eV  126.72 nm  f=0.0018  <S**2>=0.000
       7 -> 15        -0.14655
      11 -> 15         0.62860
      13 -> 15        -0.11202
      13 -> 18        -0.21632

 Excited State  13:      Singlet-A     10.0354 eV  123.55 nm  f=0.0730  <S**2>=0.000
       9 -> 16         0.14432
      10 -> 16         0.19303
      10 -> 18        -0.12436
      11 -> 16         0.28243
      12 -> 16         0.39216
      12 -> 17         0.31581
      12 -> 19         0.12465
      13 -> 19        -0.12056

 Excited State  14:      Singlet-A     10.1063 eV  122.68 nm  f=0.0289  <S**2>=0.000
      10 -> 16        -0.14934
      11 -> 16         0.53241
      12 -> 16        -0.20928
      12 -> 17        -0.18023
      13 -> 16         0.10968
      13 -> 19        -0.18942

 Excited State  15:      Singlet-A     10.2355 eV  121.13 nm  f=0.0102  <S**2>=0.000
       6 -> 15         0.10642
       8 -> 15        -0.27986
       8 -> 16        -0.11561
       9 -> 14         0.10148
       9 -> 15        -0.17460
      10 -> 15         0.45179
      10 -> 19        -0.15531
      12 -> 17        -0.22678
      12 -> 18         0.17303

 The electronic state is 1-A.
 Alpha  occ. eigenvalues --   -1.83510  -1.10963  -0.86254  -0.79069  -0.73888
 Alpha  occ. eigenvalues --   -0.66485  -0.61982  -0.54612  -0.53356  -0.45397
 Alpha  occ. eigenvalues --   -0.44097  -0.40563  -0.27622
 Alpha virt. eigenvalues --    0.09041   0.15136   0.18119   0.25932   0.29267
 Alpha virt. eigenvalues --    0.30632   0.37207   0.41197   0.46672   0.54900
 Alpha virt. eigenvalues --    0.57917

 Mulliken charges:
               1
     1  C   -0.186941
     2  C   -2.013116
     3  O    3.429174
     4  C   -1.928617
     5  C   -0.181978
     6  H    0.177840
     7  H    0.257347
     8  H    0.278285
     9  H    0.168006
 Sum of Mulliken charges =   0.00000

 Dipole moment (field-independent basis, Debye):
    X=             -3.5136    Y=            -12.0608    Z=              0.4038  Tot=             12.5687
 N-N= 1.033596916899D+02 E-N=-1.685681317941D+02  KE=-1.429676233602D+01
 Orbital energies and kinetic energies (alpha):
                                 1                 2
   1         O                -1.835099         -1.217275
   2         O                -1.109626         -0.968551
   3         O                -0.862539         -0.791902
   4         O                -0.790688         -0.532395
   5         O                -0.738881         -0.598397
   6         O                -0.664854         -0.555968
   7         O                -0.619822         -0.488925

 Normal termination of Gaussian 09 at Tue Dec 15 17:07:46 2015.
