 Gaussian 09, Revision D.01,
 Gaussian 09:  ES64L-G09RevD.01 24-Apr-2013

 -------------------------------------------------------
 #P B3LYP/3-21G CIS(Singlets,NStates=15) pop(full) force
 -------------------------------------------------------

 --------
 FuranDFT
 --------
 Symbolic Z-matrix:
 Charge =  0 Multiplicity = 1

                         Standard orientation:
 ---------------------------------------------------------------------
 Center     Atomic      Atomic             Coordinates (Angstroms)
 Number     Number       Type             X           Y           Z
 ---------------------------------------------------------------------
      1          6           0       -0.409688    1.107866    0.020502
      2          6           0       -1.136864   -0.016702   -0.004374
      3          8           0       -0.361389   -1.094562    0.000825
      4          6           0        0.901189   -0.638383    0.008814
      5          6           0        1.003535    0.698559   -0.022100
      6          1           0        1.949464    1.271398    0.049859
      7          1           0        1.671334   -1.509186   -0.021189
      8          1           0       -2.193206   -0.109073   -0.007104
      9          1           0       -0.685512    2.195320   -0.045213
 ---------------------------------------------------------------------

 SCF Done:  E(RB3LYP) =  -228.733081878     A.U. after   14 cycles

 Excitation energies and oscillator strengths:

 Excited State   1:      Singlet-A      7.3647 eV  168.35 nm  f=0.0217  <S**2>=0.000
      17 -> 19        -0.45971
      18 -> 19         0.24996
      18 -> 20         0.46531
 This state for optimization and/or second-order correction.
 Total Energy, E(CIS) =  -228.462434218
 Copying the excited state density for this state as the 1-particle RhoCI density.

 Excited State   2:      Singlet-A      7.5933 eV  163.28 nm  f=0.1969  <S**2>=0.000
      17 -> 19         0.18876
      18 -> 19         0.63918
      18 -> 20        -0.17054

 Excited State   3:      Singlet-A      8.4534 eV  146.67 nm  f=0.0040  <S**2>=0.000
      18 -> 21         0.68618

 Excited State   4:      Singlet-A      9.1561 eV  135.41 nm  f=0.0038  <S**2>=0.000
      16 -> 19        -0.44393
      18 -> 22         0.51685
      18 -> 23        -0.12663

 Excited State   5:      Singlet-A      9.2046 eV  134.70 nm  f=0.0140  <S**2>=0.000
      16 -> 19         0.50906
      17 -> 20        -0.21276
      17 -> 21         0.18529
      18 -> 22         0.36956

 Excited State   6:      Singlet-A      9.3373 eV  132.78 nm  f=0.0717  <S**2>=0.000
      16 -> 19         0.15721
      17 -> 20         0.56508
      17 -> 21        -0.25847
      18 -> 22         0.24397

 Excited State   7:      Singlet-A      9.6223 eV  128.85 nm  f=0.0451  <S**2>=0.000
      17 -> 20         0.29653
      17 -> 21         0.52996
      18 -> 22        -0.13346
      18 -> 23        -0.25313
      18 -> 24         0.13534

 Excited State   8:      Singlet-A      9.7989 eV  126.53 nm  f=0.0087  <S**2>=0.000
      15 -> 19        -0.32622
      17 -> 21         0.27325
      18 -> 23         0.53714

 Excited State   9:      Singlet-A      9.8751 eV  125.55 nm  f=0.0024  <S**2>=0.000
      15 -> 19         0.60117
      16 -> 20        -0.10201
      17 -> 21         0.10184
      18 -> 23         0.28218
      18 -> 24        -0.15165

 Excited State  10:      Singlet-A      9.9739 eV  124.31 nm  f=0.5668  <S**2>=0.000
      17 -> 19         0.43842
      18 -> 20         0.44653
      18 -> 21         0.12508

 Excited State  11:      Singlet-A     10.1173 eV  122.55 nm  f=0.0067  <S**2>=0.000
      18 -> 23         0.16839
      18 -> 24         0.66027

 Excited State  12:      Singlet-A     10.2890 eV  120.50 nm  f=0.0105  <S**2>=0.000
      17 -> 22         0.67914
      18 -> 24         0.10035

 Excited State  13:      Singlet-A     10.4053 eV  119.15 nm  f=0.0036  <S**2>=0.000
      14 -> 19         0.25059
      15 -> 20        -0.11822
      16 -> 20         0.62634

 Excited State  14:      Singlet-A     10.8262 eV  114.52 nm  f=0.0006  <S**2>=0.000
      14 -> 19         0.59637
      15 -> 20         0.24210
      16 -> 20        -0.18915
      17 -> 24         0.19143

 Excited State  15:      Singlet-A     10.9394 eV  113.34 nm  f=0.0006  <S**2>=0.000
      14 -> 19         0.11191
      17 -> 23         0.63181
      17 -> 24        -0.23482
      17 -> 25        -0.10614

 The electronic state is 1-A.
 Alpha  occ. eigenvalues --  -19.11929 -10.18067 -10.17240 -10.12975 -10.12854
 Alpha  occ. eigenvalues --   -1.15233  -0.80749  -0.75538  -0.60988  -0.56196
 Alpha  occ. eigenvalues --   -0.54086  -0.46239  -0.43806  -0.42232  -0.38755
 Alpha  occ. eigenvalues --   -0.36420  -0.27749  -0.23709
 Alpha virt. eigenvalues --    0.03047   0.07686   0.11989   0.14414   0.16902
 Alpha virt. eigenvalues --    0.17314   0.21990   0.24100   0.36727   0.42397
 Alpha virt. eigenvalues --    0.46515   0.69276   0.69593   0.70039   0.75599

 Mulliken charges:
               1
     1  C   -0.267824
     2  C    0.116117
     3  O   -0.495486
     4  C    0.095983
     5  C   -0.246355
     6  H    0.191978
     7  H    0.200247
     8  H    0.220397
     9  H    0.184942
 Sum of Mulliken charges =   0.00000

 Dipole moment (field-independent basis, Debye):
    X=              0.2278    Y=              0.6482    Z=             -0.0187  Tot=              0.6873
 Quadrupole moment (field-independent basis, Debye-Ang):
   XX=            -24.2819   YY=            -27.7267   ZZ=            -31.8555
   XY=             -0.9910   XZ=              0.1365   YZ=             -0.0012

 Normal termination of Gaussian 09 at Tue Dec 15 16:28:07 2015.
