 Gaussian 09, Revision D.01,
 Gaussian 09:  ES64L-G09RevD.01 24-Apr-2013

 ------------------------------------------------------------
 #P AM1(Input,print) CIS(Singlets,NStates=15) pop(full) force
 ------------------------------------------------------------

 -----------------
 AM1-Reparam Input
 -----------------
 Symbolic Z-matrix:
 Charge =  0 Multiplicity = 1

                         Standard orientation:
 ---------------------------------------------------------------------
 Center     Atomic      Atomic             Coordinates (Angstroms)
 Number     Number       Type             X           Y           Z
 ---------------------------------------------------------------------
      1          6           0       -0.197900    1.156390    0.043568
      2          6           0       -1.108520    0.162563   -0.029677
      3          8           0       -0.565897   -1.014703   -0.009038
      4          6           0        0.806026   -0.773399    0.040957
      5          6           0        1.094403    0.493035   -0.035791
      6          1           0        2.056486    1.014981   -0.046533
      7          1           0        1.469283   -1.654014   -0.007324
      8          1           0       -2.224715    0.233390    0.020765
      9          1           0       -0.337938    2.291729   -0.008945
 ---------------------------------------------------------------------

 SCF Done:  E(RAM1) =   2.13943278967     A.U. after   14 cycles

 Excitation energies and oscillator strengths:

 Excited State   1:      Singlet-A      5.3264 eV  232.77 nm  f=0.3499  <S**2>=0.000
      13 -> 14         0.69670
 This state for optimization and/or second-order correction.
 Total Energy, E(CIS) =   2.33517502334
 Copying the excited state density for this state as the 1-particle RhoCI density.

 Excited State   2:      Singlet-A      5.9192 eV  209.46 nm  f=0.0014  <S**2>=0.000
      13 -> 15         0.68058
      13 -> 19         0.10167

 Excited State   3:      Singlet-A      6.3927 eV  193.95 nm  f=0.0006  <S**2>=0.000
      13 -> 16         0.67497
      13 -> 17        -0.10373

 Excited State   4:      Singlet-A      6.9288 eV  178.94 nm  f=0.0004  <S**2>=0.000
      12 -> 14         0.70071

 Excited State   5:      Singlet-A      7.8207 eV  158.53 nm  f=0.0003  <S**2>=0.000
      13 -> 16        -0.10338
      13 -> 17        -0.23162
      13 -> 18         0.54352
      13 -> 19        -0.15394
      13 -> 20        -0.18455
      13 -> 21         0.11193
      13 -> 22         0.23744

 Excited State   6:      Singlet-A      8.0284 eV  154.43 nm  f=0.0083  <S**2>=0.000
      10 -> 14         0.13854
      11 -> 14        -0.30292
      13 -> 15         0.10070
      13 -> 17         0.56240
      13 -> 18         0.18825

 Excited State   7:      Singlet-A      8.2730 eV  149.87 nm  f=0.0053  <S**2>=0.000
      10 -> 14        -0.24791
      11 -> 14         0.56224
      13 -> 17         0.31021

 Excited State   8:      Singlet-A      8.8548 eV  140.02 nm  f=0.0009  <S**2>=0.000
      13 -> 18         0.30809
      13 -> 19         0.57017
      13 -> 20         0.22823

 Excited State   9:      Singlet-A      9.0219 eV  137.43 nm  f=0.0579  <S**2>=0.000
      10 -> 14         0.56753
      11 -> 14         0.24403
      12 -> 16         0.20335
      13 -> 21         0.14459

 Excited State  10:      Singlet-A      9.2103 eV  134.61 nm  f=0.0660  <S**2>=0.000
      12 -> 15         0.42748
      12 -> 16        -0.19328
      12 -> 18        -0.16014
      13 -> 18         0.10662
      13 -> 19        -0.20842
      13 -> 20         0.31326
      13 -> 22        -0.18870

 Excited State  11:      Singlet-A      9.3022 eV  133.28 nm  f=0.0772  <S**2>=0.000
      12 -> 15         0.36896
      12 -> 16        -0.16264
      12 -> 18        -0.10464
      13 -> 18        -0.16929
      13 -> 19         0.23899
      13 -> 20        -0.31455
      13 -> 21         0.13306
      13 -> 22         0.29535

 Excited State  12:      Singlet-A      9.7227 eV  127.52 nm  f=0.0557  <S**2>=0.000
      10 -> 14        -0.17754
      11 -> 15         0.17506
      12 -> 15         0.29585
      12 -> 16         0.32826
      13 -> 20        -0.22889
      13 -> 21        -0.16441
      13 -> 22        -0.29959

 Excited State  13:      Singlet-A      9.7530 eV  127.12 nm  f=0.0818  <S**2>=0.000
      10 -> 14        -0.10356
      10 -> 15        -0.27720
      12 -> 15         0.13369
      12 -> 16         0.33007
      13 -> 20         0.31700
      13 -> 21         0.12192
      13 -> 22         0.32644

 Excited State  14:      Singlet-A      9.9343 eV  124.80 nm  f=0.0111  <S**2>=0.000
       7 -> 15         0.12368
      10 -> 15         0.43012
      11 -> 15         0.41122
      13 -> 15         0.11147
      13 -> 20         0.17743
      13 -> 22         0.20046

 Excited State  15:      Singlet-A     10.0635 eV  123.20 nm  f=0.1658  <S**2>=0.000
       9 -> 15        -0.13842
      10 -> 15        -0.25464
      10 -> 17         0.11744
      11 -> 15         0.12942
      11 -> 16         0.18239
      11 -> 17        -0.23338
      12 -> 16        -0.30407
      12 -> 17        -0.16694
      12 -> 18         0.32906
      12 -> 22         0.10776

 The electronic state is 1-A.
 Alpha  occ. eigenvalues --   -1.94739  -1.19555  -0.93057  -0.80278  -0.77759
 Alpha  occ. eigenvalues --   -0.68861  -0.66745  -0.54121  -0.52820  -0.44747
 Alpha  occ. eigenvalues --   -0.44114  -0.40123  -0.27735
 Alpha virt. eigenvalues --    0.12264   0.16267   0.18640   0.26302   0.27205
 Alpha virt. eigenvalues --    0.30168   0.31268   0.33320   0.33522   0.41756
 Alpha virt. eigenvalues --    0.45613

 Mulliken charges:
               1
     1  C   -0.228704
     2  C   -1.892624
     3  O    3.196753
     4  C   -1.853532
     5  C   -0.082998
     6  H    0.148102
     7  H    0.265530
     8  H    0.286861
     9  H    0.160611
 Sum of Mulliken charges =   0.00000

 Dipole moment (field-independent basis, Debye):
    X=             -5.3044    Y=             -9.4878    Z=             -0.2853  Tot=             10.8737
 N-N= 1.043623646944D+02 E-N=-1.698276179019D+02  KE=-1.532519013602D+01
 Orbital energies and kinetic energies (alpha):
                                 1                 2
   1         O                -1.947394         -1.382983
   2         O                -1.195546         -1.054784
   3         O                -0.930565         -0.881820
   4         O                -0.802776         -0.552629
   5         O                -0.777592         -0.689125
   6         O                -0.688608         -0.569951
   7         O                -0.667450         -0.533825

 Normal termination of Gaussian 09 at Tue Dec 15 17:08:44 2015.
