 Gaussian 09, Revision D.01,
 Gaussian 09:  ES64L-G09RevD.01 24-Apr-2013

 ------------------------------------------------------------
 #P AM1(Input,print) CIS(Singlets,NStates=15) pop(full) force
 ------------------------------------------------------------

 -----------------
 AM1-Reparam Input
 -----------------
 Symbolic Z-matrix:
 Charge =  0 Multiplicity = 1

                         Standard orientation:
 ---------------------------------------------------------------------
 Center     Atomic      Atomic             Coordinates (Angstroms)
 Number     Number       Type             X           Y           Z
 ---------------------------------------------------------------------
      1          6           0       -0.520978    1.102256   -0.031309
      2          6           0       -1.158001   -0.172240   -0.009191
      3          8           0       -0.207656   -1.147392    0.007263
      4          6           0        1.042012   -0.528583   -0.022241
      5          6           0        0.868888    0.809823    0.035096
      6          1           0        1.608042    1.564539    0.007360
      7          1           0        1.895582   -1.141840   -0.003126
      8          1           0       -2.203763   -0.517997    0.079096
      9          1           0       -1.030141    2.006900    0.024441
 ---------------------------------------------------------------------

 SCF Done:  E(RAM1) =   2.59066695443     A.U. after   13 cycles

 Excitation energies and oscillator strengths:

 Excited State   1:      Singlet-A      5.1758 eV  239.54 nm  f=0.3663  <S**2>=0.000
      13 -> 14         0.69882
 This state for optimization and/or second-order correction.
 Total Energy, E(CIS) =   2.78087594574
 Copying the excited state density for this state as the 1-particle RhoCI density.

 Excited State   2:      Singlet-A      6.3765 eV  194.44 nm  f=0.0009  <S**2>=0.000
      13 -> 15         0.65328
      13 -> 16        -0.12663
      13 -> 17         0.14982
      13 -> 19        -0.10334

 Excited State   3:      Singlet-A      6.6002 eV  187.85 nm  f=0.0017  <S**2>=0.000
      12 -> 14         0.67752
      13 -> 16        -0.12973

 Excited State   4:      Singlet-A      6.7491 eV  183.70 nm  f=0.0039  <S**2>=0.000
      12 -> 14         0.13980
      13 -> 15         0.12858
      13 -> 16         0.64947

 Excited State   5:      Singlet-A      7.4340 eV  166.78 nm  f=0.0040  <S**2>=0.000
      10 -> 14         0.68565
      11 -> 14         0.12149

 Excited State   6:      Singlet-A      8.0037 eV  154.91 nm  f=0.0001  <S**2>=0.000
      13 -> 15        -0.10728
      13 -> 17         0.65951
      13 -> 18         0.10161
      13 -> 21        -0.12055

 Excited State   7:      Singlet-A      8.3651 eV  148.22 nm  f=0.1156  <S**2>=0.000
      10 -> 14        -0.11362
      11 -> 14         0.68091
      12 -> 14         0.10116

 Excited State   8:      Singlet-A      9.2622 eV  133.86 nm  f=0.0111  <S**2>=0.000
       7 -> 15        -0.11553
      11 -> 15        -0.35136
      12 -> 15        -0.24406
      13 -> 18         0.50907

 Excited State   9:      Singlet-A      9.4247 eV  131.55 nm  f=0.0265  <S**2>=0.000
       9 -> 15         0.11139
      10 -> 16        -0.23512
      10 -> 18         0.16483
      11 -> 15        -0.18340
      12 -> 15         0.37648
      12 -> 16        -0.12957
      12 -> 17         0.32864
      13 -> 18         0.20627

 Excited State  10:      Singlet-A      9.6761 eV  128.13 nm  f=0.0015  <S**2>=0.000
       7 -> 16         0.12099
      11 -> 16        -0.34168
      12 -> 16        -0.11538
      13 -> 19         0.56220

 Excited State  11:      Singlet-A      9.8881 eV  125.39 nm  f=0.3106  <S**2>=0.000
      10 -> 15        -0.17854
      10 -> 16        -0.23502
      10 -> 18         0.11030
      11 -> 16        -0.13285
      12 -> 15        -0.20960
      12 -> 16         0.50233
      12 -> 17         0.15349
      12 -> 19         0.15974

 Excited State  12:      Singlet-A      9.9895 eV  124.12 nm  f=0.0443  <S**2>=0.000
      10 -> 15         0.49397
      10 -> 18        -0.12881
      11 -> 15         0.11194
      12 -> 15         0.26467
      12 -> 16         0.30810
      12 -> 18        -0.10493

 Excited State  13:      Singlet-A     10.1132 eV  122.60 nm  f=0.0082  <S**2>=0.000
      10 -> 15        -0.23739
      11 -> 15         0.45555
      13 -> 15         0.17527
      13 -> 18         0.32542
      13 -> 19         0.19631

 Excited State  14:      Singlet-A     10.4304 eV  118.87 nm  f=0.0062  <S**2>=0.000
       8 -> 15        -0.18944
       9 -> 15        -0.17406
      10 -> 15         0.17718
      10 -> 17        -0.13851
      10 -> 19        -0.12282
      11 -> 15         0.21354
      12 -> 15        -0.24764
      12 -> 16        -0.22520
      12 -> 17         0.31164
      12 -> 19         0.10298

 Excited State  15:      Singlet-A     10.5383 eV  117.65 nm  f=0.0036  <S**2>=0.000
       9 -> 14         0.28668
      11 -> 16         0.48285
      12 -> 17         0.11659
      13 -> 16        -0.14154
      13 -> 18        -0.16818
      13 -> 19         0.25942

 The electronic state is 1-A.
 Alpha  occ. eigenvalues --   -1.83693  -1.11776  -0.86747  -0.79131  -0.75097
 Alpha  occ. eigenvalues --   -0.66747  -0.62310  -0.56151  -0.55289  -0.45290
 Alpha  occ. eigenvalues --   -0.44638  -0.42968  -0.30644
 Alpha virt. eigenvalues --    0.08477   0.16417   0.18014   0.25203   0.27779
 Alpha virt. eigenvalues --    0.29617   0.35499   0.39778   0.47471   0.54938
 Alpha virt. eigenvalues --    0.59291

 Mulliken charges:
               1
     1  C   -0.190706
     2  C   -2.019769
     3  O    3.441245
     4  C   -1.992660
     5  C   -0.154896
     6  H    0.190946
     7  H    0.269775
     8  H    0.271955
     9  H    0.184111
 Sum of Mulliken charges =   0.00000

 Dipole moment (field-independent basis, Debye):
    X=             -1.9601    Y=            -11.1776    Z=              0.5565  Tot=             11.3618
 N-N= 1.035207022850D+02 E-N=-1.687257703267D+02  KE=-1.432467437813D+01
 Orbital energies and kinetic energies (alpha):
                                 1                 2
   1         O                -1.836932         -1.227191
   2         O                -1.117759         -0.965318
   3         O                -0.867471         -0.784621
   4         O                -0.791305         -0.536279
   5         O                -0.750970         -0.617939
   6         O                -0.667472         -0.565966
   7         O                -0.623103         -0.489934

 Normal termination of Gaussian 09 at Tue Dec 15 17:07:32 2015.
