 Gaussian 09, Revision D.01,
 Gaussian 09:  ES64L-G09RevD.01 24-Apr-2013

 -------------------------------------------------------
 #P B3LYP/3-21G CIS(Singlets,NStates=15) pop(full) force
 -------------------------------------------------------

 --------
 FuranDFT
 --------
 Symbolic Z-matrix:
 Charge =  0 Multiplicity = 1

                         Standard orientation:
 ---------------------------------------------------------------------
 Center     Atomic      Atomic             Coordinates (Angstroms)
 Number     Number       Type             X           Y           Z
 ---------------------------------------------------------------------
      1          6           0        0.956267    0.768817   -0.033050
      2          6           0       -0.446032    1.036165    0.027912
      3          8           0       -1.161625   -0.059223   -0.012288
      4          6           0       -0.315899   -1.090225   -0.000004
      5          6           0        1.029584   -0.673188   -0.002364
      6          1           0        1.929279   -1.218888    0.064128
      7          1           0       -0.770907   -2.058547    0.023451
      8          1           0       -0.921401    2.023070    0.013819
      9          1           0        1.712513    1.478739    0.041936
 ---------------------------------------------------------------------

 SCF Done:  E(RB3LYP) =  -228.734814785     A.U. after   14 cycles

 Excitation energies and oscillator strengths:

 Excited State   1:      Singlet-A      6.8412 eV  181.23 nm  f=0.0094  <S**2>=0.000
      17 -> 19         0.46530
      18 -> 19        -0.13039
      18 -> 20         0.50965
 This state for optimization and/or second-order correction.
 Total Energy, E(CIS) =  -228.483403575
 Copying the excited state density for this state as the 1-particle RhoCI density.

 Excited State   2:      Singlet-A      7.0618 eV  175.57 nm  f=0.2312  <S**2>=0.000
      18 -> 19         0.67234

 Excited State   3:      Singlet-A      8.7111 eV  142.33 nm  f=0.0099  <S**2>=0.000
      16 -> 19         0.69333

 Excited State   4:      Singlet-A      8.7253 eV  142.10 nm  f=0.0001  <S**2>=0.000
      18 -> 21         0.67214
      18 -> 22         0.19971

 Excited State   5:      Singlet-A      9.0899 eV  136.40 nm  f=0.0458  <S**2>=0.000
      17 -> 19        -0.15179
      18 -> 20         0.14129
      18 -> 21        -0.18637
      18 -> 22         0.62889

 Excited State   6:      Singlet-A      9.2776 eV  133.64 nm  f=0.3075  <S**2>=0.000
      16 -> 25        -0.11187
      17 -> 19         0.30041
      17 -> 20         0.48213
      18 -> 20        -0.28882
      18 -> 22         0.18257

 Excited State   7:      Singlet-A      9.3848 eV  132.11 nm  f=0.3656  <S**2>=0.000
      16 -> 26         0.10598
      17 -> 19        -0.34080
      17 -> 20         0.46794
      18 -> 20         0.30196
      18 -> 22        -0.11271

 Excited State   8:      Singlet-A      9.7316 eV  127.40 nm  f=0.0005  <S**2>=0.000
      17 -> 21         0.14653
      18 -> 23         0.64922
      18 -> 24        -0.14045

 Excited State   9:      Singlet-A      9.8886 eV  125.38 nm  f=0.0038  <S**2>=0.000
      14 -> 19         0.33841
      15 -> 19        -0.23155
      16 -> 20         0.55031
      18 -> 23         0.10421

 Excited State  10:      Singlet-A     10.1546 eV  122.10 nm  f=0.0062  <S**2>=0.000
      14 -> 19         0.20781
      15 -> 19         0.64348
      16 -> 20         0.12458

 Excited State  11:      Singlet-A     10.1606 eV  122.02 nm  f=0.0075  <S**2>=0.000
      17 -> 21         0.60673
      17 -> 22         0.18998
      18 -> 23        -0.17996
      18 -> 24        -0.21146

 Excited State  12:      Singlet-A     10.2980 eV  120.40 nm  f=0.0016  <S**2>=0.000
      14 -> 19         0.56001
      15 -> 19        -0.10800
      16 -> 20        -0.37924
      17 -> 21        -0.10923

 Excited State  13:      Singlet-A     10.3741 eV  119.51 nm  f=0.0019  <S**2>=0.000
      17 -> 21         0.22646
      18 -> 24         0.64963

 Excited State  14:      Singlet-A     10.5725 eV  117.27 nm  f=0.0008  <S**2>=0.000
      17 -> 21        -0.20470
      17 -> 22         0.66501

 Excited State  15:      Singlet-A     10.8897 eV  113.85 nm  f=0.0028  <S**2>=0.000
      18 -> 25         0.62704
      18 -> 26         0.29710

 The electronic state is 1-A.
 Alpha  occ. eigenvalues --  -19.13180 -10.18039 -10.17855 -10.13035 -10.12543
 Alpha  occ. eigenvalues --   -1.16230  -0.79662  -0.75284  -0.60910  -0.56665
 Alpha  occ. eigenvalues --   -0.54975  -0.46679  -0.45786  -0.41186  -0.40915
 Alpha  occ. eigenvalues --   -0.35933  -0.27658  -0.22236
 Alpha virt. eigenvalues --    0.01888   0.06628   0.14168   0.15579   0.17942
 Alpha virt. eigenvalues --    0.19757   0.22609   0.23341   0.33177   0.40026
 Alpha virt. eigenvalues --    0.45941   0.69969   0.70045   0.71237   0.72773

 Mulliken charges:
               1
     1  C   -0.253339
     2  C    0.106248
     3  O   -0.490390
     4  C    0.084587
     5  C   -0.251999
     6  H    0.191015
     7  H    0.213821
     8  H    0.211956
     9  H    0.188101
 Sum of Mulliken charges =   0.00000

 Dipole moment (field-independent basis, Debye):
    X=              0.5750    Y=              0.0765    Z=              0.1542  Tot=              0.6003
 Quadrupole moment (field-independent basis, Debye-Ang):
   XX=            -27.7966   YY=            -24.1326   ZZ=            -31.9475
   XY=             -0.1315   XZ=              0.2165   YZ=             -0.0555

 Normal termination of Gaussian 09 at Tue Dec 15 16:12:08 2015.
