 Gaussian 09, Revision D.01,
 Gaussian 09:  ES64L-G09RevD.01 24-Apr-2013

 ------------------------------------------------------------
 #P AM1(Input,print) CIS(Singlets,NStates=15) pop(full) force
 ------------------------------------------------------------

 -----------------
 AM1-Reparam Input
 -----------------
 Symbolic Z-matrix:
 Charge =  0 Multiplicity = 1

                         Standard orientation:
 ---------------------------------------------------------------------
 Center     Atomic      Atomic             Coordinates (Angstroms)
 Number     Number       Type             X           Y           Z
 ---------------------------------------------------------------------
      1          6           0       -0.580822    0.998465   -0.038253
      2          6           0       -1.094022   -0.221458    0.050986
      3          8           0       -0.151048   -1.125212   -0.037750
      4          6           0        1.033067   -0.491337    0.032976
      5          6           0        0.801596    0.893040    0.012313
      6          1           0        1.655578    1.614624   -0.044816
      7          1           0        1.897739   -1.124745   -0.014281
      8          1           0       -2.165750   -0.502364   -0.007960
      9          1           0       -1.138090    1.941924    0.020924
 ---------------------------------------------------------------------

 SCF Done:  E(RAM1) =   1.79975004163     A.U. after   14 cycles

 Excitation energies and oscillator strengths:

 Excited State   1:      Singlet-A      5.7021 eV  217.44 nm  f=0.3184  <S**2>=0.000
      13 -> 14         0.68644
 This state for optimization and/or second-order correction.
 Total Energy, E(CIS) =   2.00929687395
 Copying the excited state density for this state as the 1-particle RhoCI density.

 Excited State   2:      Singlet-A      6.7999 eV  182.33 nm  f=0.0087  <S**2>=0.000
      13 -> 15         0.66370
      13 -> 16         0.13980
      13 -> 17        -0.13470

 Excited State   3:      Singlet-A      7.1759 eV  172.78 nm  f=0.0013  <S**2>=0.000
      13 -> 15        -0.13509
      13 -> 16         0.65096
      13 -> 19         0.15369

 Excited State   4:      Singlet-A      7.6892 eV  161.25 nm  f=0.0011  <S**2>=0.000
      12 -> 14         0.69816

 Excited State   5:      Singlet-A      8.1512 eV  152.11 nm  f=0.0046  <S**2>=0.000
      10 -> 14        -0.14611
      11 -> 14         0.68342

 Excited State   6:      Singlet-A      8.5247 eV  145.44 nm  f=0.0003  <S**2>=0.000
      13 -> 17         0.16855
      13 -> 18         0.61355
      13 -> 21         0.25723

 Excited State   7:      Singlet-A      9.0677 eV  136.73 nm  f=0.1025  <S**2>=0.000
      10 -> 14         0.67010
      11 -> 14         0.13833

 Excited State   8:      Singlet-A      9.1551 eV  135.43 nm  f=0.0120  <S**2>=0.000
      10 -> 15         0.10798
      10 -> 16        -0.16339
      13 -> 15         0.10235
      13 -> 17         0.62729
      13 -> 18        -0.16866

 Excited State   9:      Singlet-A      9.6908 eV  127.94 nm  f=0.0100  <S**2>=0.000
      10 -> 15         0.19169
      10 -> 16         0.16933
      13 -> 18         0.10809
      13 -> 19         0.60510

 Excited State  10:      Singlet-A      9.7252 eV  127.49 nm  f=0.1209  <S**2>=0.000
       9 -> 15         0.12799
      11 -> 15         0.32629
      11 -> 16         0.17968
      11 -> 17        -0.20053
      11 -> 18         0.13388
      12 -> 15         0.14195
      12 -> 16         0.22583
      12 -> 17        -0.16400
      12 -> 18        -0.24974
      13 -> 14        -0.13195
      13 -> 19         0.18934

 Excited State  11:      Singlet-A     10.0355 eV  123.55 nm  f=0.0722  <S**2>=0.000
      11 -> 16        -0.10698
      12 -> 15         0.63128
      12 -> 16        -0.16663
      12 -> 18         0.11909
      12 -> 19        -0.10977

 Excited State  12:      Singlet-A     10.2955 eV  120.43 nm  f=0.0052  <S**2>=0.000
      10 -> 15         0.56780
      10 -> 16         0.18754
      11 -> 15         0.12623
      11 -> 16         0.13908
      13 -> 15        -0.11294
      13 -> 16         0.13069
      13 -> 19        -0.19318

 Excited State  13:      Singlet-A     10.4436 eV  118.72 nm  f=0.1301  <S**2>=0.000
      10 -> 16        -0.12095
      11 -> 16         0.50483
      11 -> 19         0.16025
      12 -> 16        -0.35749
      12 -> 17         0.13881

 Excited State  14:      Singlet-A     10.5553 eV  117.46 nm  f=0.0078  <S**2>=0.000
      10 -> 16         0.14955
      13 -> 18        -0.24266
      13 -> 20        -0.28492
      13 -> 21         0.56161

 Excited State  15:      Singlet-A     10.6193 eV  116.75 nm  f=0.0399  <S**2>=0.000
      10 -> 15        -0.18400
      10 -> 16         0.43558
      11 -> 16         0.12199
      13 -> 17         0.13752
      13 -> 20        -0.36437
      13 -> 21        -0.25516

 The electronic state is 1-A.
 Alpha  occ. eigenvalues --   -2.01475  -1.28548  -1.00888  -0.90170  -0.84662
 Alpha  occ. eigenvalues --   -0.77099  -0.75261  -0.63915  -0.61440  -0.52066
 Alpha  occ. eigenvalues --   -0.51675  -0.50482  -0.38300
 Alpha virt. eigenvalues --    0.04395   0.10147   0.11807   0.18737   0.19942
 Alpha virt. eigenvalues --    0.22031   0.24705   0.26668   0.31517   0.39243
 Alpha virt. eigenvalues --    0.44849

 Mulliken charges:
               1
     1  C   -0.147036
     2  C   -1.924730
     3  O    3.169574
     4  C   -1.913533
     5  C   -0.097867
     6  H    0.159239
     7  H    0.276008
     8  H    0.315922
     9  H    0.162424
 Sum of Mulliken charges =   0.00000

 Dipole moment (field-independent basis, Debye):
    X=             -1.8223    Y=             -9.7096    Z=             -1.2425  Tot=              9.9570
 N-N= 1.062083556912D+02 E-N=-1.716069957169D+02  KE=-1.569059339975D+01
 Orbital energies and kinetic energies (alpha):
                                 1                 2
   1         O                -2.014748         -1.414394
   2         O                -1.285480         -1.054414
   3         O                -1.008883         -0.877228
   4         O                -0.901700         -0.587037
   5         O                -0.846618         -0.694903
   6         O                -0.770994         -0.586354
   7         O                -0.752611         -0.574741

 Normal termination of Gaussian 09 at Tue Dec 15 17:09:06 2015.
