 Gaussian 09, Revision D.01,
 Gaussian 09:  ES64L-G09RevD.01 24-Apr-2013

 ------------------------------------------------------------
 #P AM1(Input,print) CIS(Singlets,NStates=15) pop(full) force
 ------------------------------------------------------------

 -----------------
 AM1-Reparam Input
 -----------------
 Symbolic Z-matrix:
 Charge =  0 Multiplicity = 1

                         Standard orientation:
 ---------------------------------------------------------------------
 Center     Atomic      Atomic             Coordinates (Angstroms)
 Number     Number       Type             X           Y           Z
 ---------------------------------------------------------------------
      1          6           0       -0.758455    0.927988   -0.011958
      2          6           0       -1.090365   -0.318593    0.029877
      3          8           0        0.016607   -1.170386   -0.037171
      4          6           0        1.068205   -0.332823    0.042094
      5          6           0        0.758371    0.984817   -0.009150
      6          1           0        1.365174    1.773344   -0.016099
      7          1           0        2.037449   -0.902824   -0.007160
      8          1           0       -2.057556   -0.851726    0.034843
      9          1           0       -1.344462    1.775963   -0.019400
 ---------------------------------------------------------------------

 SCF Done:  E(RAM1) =   1.85603778720     A.U. after   14 cycles

 Excitation energies and oscillator strengths:

 Excited State   1:      Singlet-A      5.0531 eV  245.36 nm  f=0.3768  <S**2>=0.000
      13 -> 14         0.69664
 This state for optimization and/or second-order correction.
 Total Energy, E(CIS) =   2.04173648502
 Copying the excited state density for this state as the 1-particle RhoCI density.

 Excited State   2:      Singlet-A      5.8699 eV  211.22 nm  f=0.0009  <S**2>=0.000
      13 -> 15         0.67439
      13 -> 17        -0.16947

 Excited State   3:      Singlet-A      6.3243 eV  196.04 nm  f=0.0028  <S**2>=0.000
      13 -> 16         0.67614
      13 -> 18        -0.16208

 Excited State   4:      Singlet-A      7.0822 eV  175.06 nm  f=0.0003  <S**2>=0.000
      12 -> 14         0.70326

 Excited State   5:      Singlet-A      7.5542 eV  164.13 nm  f=0.0003  <S**2>=0.000
      13 -> 15         0.13120
      13 -> 17         0.58626
      13 -> 18        -0.29511
      13 -> 19        -0.10098
      13 -> 21        -0.12393
      13 -> 22         0.10085

 Excited State   6:      Singlet-A      8.4748 eV  146.30 nm  f=0.0234  <S**2>=0.000
      10 -> 14        -0.23291
      13 -> 16         0.10428
      13 -> 17         0.30058
      13 -> 18         0.55555
      13 -> 19         0.10168

 Excited State   7:      Singlet-A      8.6764 eV  142.90 nm  f=0.0008  <S**2>=0.000
      10 -> 14         0.64351
      11 -> 14         0.12454
      13 -> 17         0.12517
      13 -> 18         0.18377

 Excited State   8:      Singlet-A      9.0153 eV  137.53 nm  f=0.0675  <S**2>=0.000
      10 -> 14        -0.14069
      11 -> 14         0.61918
      12 -> 16        -0.14625
      12 -> 17        -0.12739
      13 -> 19         0.13023

 Excited State   9:      Singlet-A      9.0663 eV  136.75 nm  f=0.0038  <S**2>=0.000
      11 -> 14        -0.13394
      13 -> 18        -0.14678
      13 -> 19         0.66080

 Excited State  10:      Singlet-A      9.3763 eV  132.23 nm  f=0.1588  <S**2>=0.000
       8 -> 16         0.10109
       9 -> 15        -0.11924
      10 -> 18        -0.13164
      11 -> 14        -0.12388
      12 -> 15         0.51954
      12 -> 16        -0.22489
      12 -> 17        -0.25327
      12 -> 18         0.13203

 Excited State  11:      Singlet-A     10.0903 eV  122.87 nm  f=0.0707  <S**2>=0.000
      10 -> 15        -0.11490
      11 -> 14         0.13406
      12 -> 15         0.23554
      12 -> 16         0.59885

 Excited State  12:      Singlet-A     10.1753 eV  121.85 nm  f=0.0058  <S**2>=0.000
      11 -> 15         0.34288
      13 -> 17         0.13572
      13 -> 20        -0.10700
      13 -> 21         0.42668
      13 -> 22        -0.36542

 Excited State  13:      Singlet-A     10.2475 eV  120.99 nm  f=0.0201  <S**2>=0.000
      11 -> 15         0.51122
      13 -> 20        -0.21749
      13 -> 21        -0.23598
      13 -> 22         0.30925

 Excited State  14:      Singlet-A     10.2775 eV  120.64 nm  f=0.1307  <S**2>=0.000
       8 -> 15         0.11148
      10 -> 15        -0.21760
      10 -> 16        -0.19738
      10 -> 18         0.16777
      12 -> 15         0.28860
      12 -> 16        -0.10392
      12 -> 17         0.36423
      12 -> 18        -0.19798
      12 -> 19        -0.18811

 Excited State  15:      Singlet-A     10.3269 eV  120.06 nm  f=0.0810  <S**2>=0.000
      11 -> 15         0.21524
      11 -> 16         0.10537
      13 -> 20         0.61644
      13 -> 21        -0.14925
      13 -> 22        -0.10388

 The electronic state is 1-A.
 Alpha  occ. eigenvalues --   -1.99246  -1.26492  -1.00496  -0.90199  -0.84139
 Alpha  occ. eigenvalues --   -0.77335  -0.73858  -0.62159  -0.61058  -0.53366
 Alpha  occ. eigenvalues --   -0.52218  -0.48103  -0.34135
 Alpha virt. eigenvalues --    0.04449   0.09815   0.11608   0.20243   0.21748
 Alpha virt. eigenvalues --    0.23875   0.27379   0.28352   0.28462   0.36918
 Alpha virt. eigenvalues --    0.41017

 Mulliken charges:
               1
     1  C   -0.098794
     2  C   -1.837407
     3  O    3.151985
     4  C   -1.865470
     5  C   -0.172515
     6  H    0.134020
     7  H    0.277956
     8  H    0.275542
     9  H    0.134684
 Sum of Mulliken charges =   0.00000

 Dipole moment (field-independent basis, Debye):
    X=              0.0877    Y=            -11.7569    Z=             -1.0439  Tot=             11.8034
 N-N= 1.055181379213D+02 E-N=-1.704166852707D+02  KE=-1.565141164483D+01
 Orbital energies and kinetic energies (alpha):
                                 1                 2
   1         O                -1.992459         -1.364497
   2         O                -1.264918         -1.054673
   3         O                -1.004964         -0.894266
   4         O                -0.901990         -0.590073
   5         O                -0.841391         -0.686066
   6         O                -0.773351         -0.604218
   7         O                -0.738578         -0.541984

 Normal termination of Gaussian 09 at Tue Dec 15 17:08:52 2015.
