 Gaussian 09, Revision D.01,
 Gaussian 09:  ES64L-G09RevD.01 24-Apr-2013

 ------------------------------------------------------------
 #P AM1(Input,print) CIS(Singlets,NStates=15) pop(full) force
 ------------------------------------------------------------

 -----------------
 AM1-Reparam Input
 -----------------
 Symbolic Z-matrix:
 Charge =  0 Multiplicity = 1

                         Standard orientation:
 ---------------------------------------------------------------------
 Center     Atomic      Atomic             Coordinates (Angstroms)
 Number     Number       Type             X           Y           Z
 ---------------------------------------------------------------------
      1          6           0       -1.019760    0.708164   -0.025687
      2          6           0       -0.988633   -0.636175    0.046698
      3          8           0        0.370198   -1.136602   -0.036632
      4          6           0        1.185691    0.017817    0.028300
      5          6           0        0.420975    1.089536   -0.014464
      6          1           0        0.751393    2.181483    0.045415
      7          1           0        2.241335   -0.147917    0.023371
      8          1           0       -1.664749   -1.364004    0.025908
      9          1           0       -1.879206    1.347208   -0.010723
 ---------------------------------------------------------------------

 SCF Done:  E(RAM1) =   2.64982998622     A.U. after   14 cycles

 Excitation energies and oscillator strengths:

 Excited State   1:      Singlet-A      4.7042 eV  263.56 nm  f=0.3660  <S**2>=0.000
      13 -> 14         0.69911
 This state for optimization and/or second-order correction.
 Total Energy, E(CIS) =   2.82270544734
 Copying the excited state density for this state as the 1-particle RhoCI density.

 Excited State   2:      Singlet-A      5.8452 eV  212.11 nm  f=0.0000  <S**2>=0.000
      13 -> 15         0.63284
      13 -> 16        -0.21569
      13 -> 17         0.13986
      13 -> 19        -0.12151

 Excited State   3:      Singlet-A      6.1797 eV  200.63 nm  f=0.0029  <S**2>=0.000
      12 -> 14         0.68878
      13 -> 16         0.12404

 Excited State   4:      Singlet-A      6.3284 eV  195.92 nm  f=0.0029  <S**2>=0.000
      12 -> 14        -0.11932
      13 -> 15         0.22971
      13 -> 16         0.63308

 Excited State   5:      Singlet-A      7.3945 eV  167.67 nm  f=0.0000  <S**2>=0.000
      13 -> 15        -0.11647
      13 -> 16         0.10185
      13 -> 17         0.65718
      13 -> 21        -0.11193

 Excited State   6:      Singlet-A      7.4550 eV  166.31 nm  f=0.0054  <S**2>=0.000
      10 -> 14        -0.43250
      11 -> 14         0.53793
      13 -> 17        -0.10718

 Excited State   7:      Singlet-A      8.4057 eV  147.50 nm  f=0.1260  <S**2>=0.000
      10 -> 14         0.54140
      11 -> 14         0.43532

 Excited State   8:      Singlet-A      8.8609 eV  139.92 nm  f=0.0039  <S**2>=0.000
      10 -> 15         0.15940
      11 -> 15         0.10752
      13 -> 17         0.10384
      13 -> 18         0.64319
      13 -> 19         0.11194

 Excited State   9:      Singlet-A      9.1075 eV  136.13 nm  f=0.1212  <S**2>=0.000
      11 -> 18        -0.11690
      12 -> 15         0.50010
      12 -> 16        -0.25438
      12 -> 17         0.30956

 Excited State  10:      Singlet-A      9.3221 eV  133.00 nm  f=0.0022  <S**2>=0.000
      10 -> 16         0.18185
      11 -> 16         0.13598
      13 -> 18        -0.10840
      13 -> 19         0.63623

 Excited State  11:      Singlet-A      9.5478 eV  129.86 nm  f=0.1572  <S**2>=0.000
      10 -> 15         0.14341
      11 -> 15        -0.15434
      11 -> 16        -0.11951
      11 -> 18         0.12289
      12 -> 15         0.43196
      12 -> 16         0.28915
      12 -> 17        -0.29716
      12 -> 18        -0.12850

 Excited State  12:      Singlet-A     10.0265 eV  123.66 nm  f=0.1191  <S**2>=0.000
       8 -> 16         0.12032
      10 -> 16        -0.18029
      11 -> 15        -0.11132
      11 -> 16         0.27877
      12 -> 16         0.45145
      12 -> 17         0.32356

 Excited State  13:      Singlet-A     10.2733 eV  120.69 nm  f=0.0103  <S**2>=0.000
       7 -> 15        -0.12202
      10 -> 15         0.50233
      11 -> 15         0.37858
      13 -> 18        -0.18996

 Excited State  14:      Singlet-A     10.4216 eV  118.97 nm  f=0.0004  <S**2>=0.000
       9 -> 14         0.59458
      10 -> 16        -0.26963
      11 -> 16        -0.18001

 Excited State  15:      Singlet-A     10.4855 eV  118.24 nm  f=0.0612  <S**2>=0.000
       8 -> 15        -0.15290
       9 -> 14         0.13413
       9 -> 16         0.20892
      10 -> 15        -0.11095
      10 -> 16         0.33882
      10 -> 17         0.11139
      10 -> 19         0.13044
      11 -> 15         0.24486
      11 -> 16        -0.16634
      11 -> 17        -0.13980
      11 -> 19        -0.16954
      12 -> 16         0.13242
      12 -> 17         0.16901
      12 -> 18         0.15522

 The electronic state is 1-A.
 Alpha  occ. eigenvalues --   -1.82635  -1.10124  -0.87668  -0.77717  -0.75167
 Alpha  occ. eigenvalues --   -0.66684  -0.61038  -0.54968  -0.54304  -0.44172
 Alpha  occ. eigenvalues --   -0.44112  -0.40330  -0.27340
 Alpha virt. eigenvalues --    0.09221   0.17882   0.19495   0.25683   0.28892
 Alpha virt. eigenvalues --    0.31222   0.37063   0.40751   0.43878   0.51914
 Alpha virt. eigenvalues --    0.55119

 Mulliken charges:
               1
     1  C   -0.171448
     2  C   -1.955183
     3  O    3.451280
     4  C   -1.968420
     5  C   -0.235076
     6  H    0.200026
     7  H    0.264368
     8  H    0.235766
     9  H    0.178687
 Sum of Mulliken charges =   0.00000

 Dipole moment (field-independent basis, Debye):
    X=              4.1529    Y=            -11.8216    Z=             -1.0577  Tot=             12.5744
 N-N= 1.029784663931D+02 E-N=-1.678457975065D+02  KE=-1.428630059646D+01
 Orbital energies and kinetic energies (alpha):
                                 1                 2
   1         O                -1.826347         -1.184150
   2         O                -1.101241         -0.952411
   3         O                -0.876680         -0.809293
   4         O                -0.777174         -0.533794
   5         O                -0.751673         -0.629099
   6         O                -0.666838         -0.530337
   7         O                -0.610379         -0.487792

 Normal termination of Gaussian 09 at Tue Dec 15 17:07:42 2015.
