 Gaussian 09, Revision D.01,
 Gaussian 09:  ES64L-G09RevD.01 24-Apr-2013

 ------------------------------------------------------------
 #P AM1(Input,print) CIS(Singlets,NStates=15) pop(full) force
 ------------------------------------------------------------

 -----------------
 AM1-Reparam Input
 -----------------
 Symbolic Z-matrix:
 Charge =  0 Multiplicity = 1

                         Standard orientation:
 ---------------------------------------------------------------------
 Center     Atomic      Atomic             Coordinates (Angstroms)
 Number     Number       Type             X           Y           Z
 ---------------------------------------------------------------------
      1          6           0       -0.019172    1.188053   -0.031530
      2          6           0        1.098895    0.359700    0.031743
      3          8           0        0.727362   -0.947149    0.002160
      4          6           0       -0.659023   -0.891027   -0.032035
      5          6           0       -1.176731    0.335006    0.033046
      6          1           0       -2.218232    0.574251    0.032953
      7          1           0       -1.151457   -1.871327   -0.002203
      8          1           0        2.139430    0.634543   -0.023351
      9          1           0       -0.052447    2.289335   -0.032020
 ---------------------------------------------------------------------

 SCF Done:  E(RAM1) =   1.10433831819     A.U. after   14 cycles

 Excitation energies and oscillator strengths:

 Excited State   1:      Singlet-A      5.5030 eV  225.30 nm  f=0.1980  <S**2>=0.000
      12 -> 15        -0.14598
      13 -> 14         0.67925
 This state for optimization and/or second-order correction.
 Total Energy, E(CIS) =   1.30656908952
 Copying the excited state density for this state as the 1-particle RhoCI density.

 Excited State   2:      Singlet-A      6.5258 eV  189.99 nm  f=0.0039  <S**2>=0.000
      13 -> 16         0.67579
      13 -> 19        -0.14503

 Excited State   3:      Singlet-A      6.8257 eV  181.64 nm  f=0.0108  <S**2>=0.000
      12 -> 14         0.33361
      13 -> 15         0.48554
      13 -> 17        -0.34365

 Excited State   4:      Singlet-A      6.8277 eV  181.59 nm  f=0.0038  <S**2>=0.000
      12 -> 14         0.22306
      13 -> 15         0.29016
      13 -> 17         0.56600
      13 -> 18         0.11948
      13 -> 21         0.11922

 Excited State   5:      Singlet-A      7.2990 eV  169.86 nm  f=0.0072  <S**2>=0.000
       9 -> 14         0.12028
      11 -> 14         0.67177
      12 -> 14         0.12139
      13 -> 15        -0.11172

 Excited State   6:      Singlet-A      7.9590 eV  155.78 nm  f=0.2113  <S**2>=0.000
      10 -> 14        -0.33207
      11 -> 14        -0.13842
      12 -> 14         0.48366
      13 -> 15        -0.32093

 Excited State   7:      Singlet-A      8.0899 eV  153.26 nm  f=0.0773  <S**2>=0.000
      10 -> 14         0.58807
      12 -> 14         0.26487
      13 -> 15        -0.17394

 Excited State   8:      Singlet-A      8.1951 eV  151.29 nm  f=0.0007  <S**2>=0.000
      12 -> 16        -0.23300
      13 -> 17        -0.11495
      13 -> 18         0.61234
      13 -> 23        -0.10270
      13 -> 24         0.16228

 Excited State   9:      Singlet-A      8.5646 eV  144.76 nm  f=0.0164  <S**2>=0.000
      12 -> 15         0.15987
      12 -> 16         0.58280
      12 -> 17        -0.19778
      13 -> 18         0.19408

 Excited State  10:      Singlet-A      8.5959 eV  144.24 nm  f=0.1734  <S**2>=0.000
       8 -> 16         0.10256
       9 -> 17         0.11667
      11 -> 17         0.10065
      12 -> 15         0.61256
      12 -> 16        -0.14996
      13 -> 14         0.13064

 Excited State  11:      Singlet-A      8.6571 eV  143.22 nm  f=0.0017  <S**2>=0.000
      12 -> 17        -0.17949
      13 -> 19        -0.14756
      13 -> 20         0.62792

 Excited State  12:      Singlet-A      8.8455 eV  140.17 nm  f=0.0227  <S**2>=0.000
       6 -> 15        -0.11139
       9 -> 15        -0.30719
      10 -> 14         0.14762
      10 -> 15        -0.15631
      11 -> 15         0.55950

 Excited State  13:      Singlet-A      8.9007 eV  139.30 nm  f=0.0053  <S**2>=0.000
       7 -> 16        -0.11421
      12 -> 16         0.17608
      12 -> 17         0.53038
      13 -> 19         0.31125
      13 -> 20         0.22586

 Excited State  14:      Singlet-A      9.4302 eV  131.48 nm  f=0.0048  <S**2>=0.000
       9 -> 14         0.22385
      10 -> 16         0.14922
      11 -> 16         0.16158
      11 -> 17         0.10535
      11 -> 18         0.14753
      12 -> 15        -0.10227
      12 -> 17         0.15255
      13 -> 19        -0.21193
      13 -> 21         0.45255

 Excited State  15:      Singlet-A      9.4769 eV  130.83 nm  f=0.0094  <S**2>=0.000
       9 -> 17        -0.15316
      10 -> 16        -0.22883
      10 -> 19         0.12456
      10 -> 20         0.11319
      11 -> 16        -0.25763
      11 -> 17        -0.14044
      11 -> 18        -0.22511
      12 -> 15         0.13922
      13 -> 21         0.39021
      13 -> 23        -0.10414

 The electronic state is 1-A.
 Alpha  occ. eigenvalues --   -1.80828  -1.18900  -0.97155  -0.86707  -0.80245
 Alpha  occ. eigenvalues --   -0.73563  -0.70618  -0.59228  -0.55353  -0.52088
 Alpha  occ. eigenvalues --   -0.49560  -0.46508  -0.37613
 Alpha virt. eigenvalues --    0.03994   0.09509   0.10706   0.11418   0.18767
 Alpha virt. eigenvalues --    0.19529   0.20854   0.22044   0.26781   0.27003
 Alpha virt. eigenvalues --    0.28009

 Mulliken charges:
               1
     1  C   -0.150281
     2  C   -1.249686
     3  O    2.116573
     4  C   -1.243359
     5  C   -0.087280
     6  H    0.102476
     7  H    0.197185
     8  H    0.204785
     9  H    0.109586
 Sum of Mulliken charges =   0.00000

 Dipole moment (field-independent basis, Debye):
    X=              4.3414    Y=             -6.0293    Z=              0.0008  Tot=              7.4297
 N-N= 1.039458927308D+02 E-N=-1.705866238693D+02  KE=-1.492915188709D+01
 Orbital energies and kinetic energies (alpha):
                                 1                 2
   1         O                -1.808284         -1.224632
   2         O                -1.189004         -0.977673
   3         O                -0.971547         -0.819032
   4         O                -0.867069         -0.613925
   5         O                -0.802453         -0.670920
   6         O                -0.735626         -0.590629
   7         O                -0.706184         -0.509978

 Normal termination of Gaussian 09 at Tue Dec 15 17:05:34 2015.
