 Gaussian 09, Revision D.01,
 Gaussian 09:  ES64L-G09RevD.01 24-Apr-2013

 ------------------------------------------------------------
 #P AM1(Input,print) CIS(Singlets,NStates=15) pop(full) force
 ------------------------------------------------------------

 -----------------
 AM1-Reparam Input
 -----------------
 Symbolic Z-matrix:
 Charge =  0 Multiplicity = 1

                         Standard orientation:
 ---------------------------------------------------------------------
 Center     Atomic      Atomic             Coordinates (Angstroms)
 Number     Number       Type             X           Y           Z
 ---------------------------------------------------------------------
      1          6           0        0.699464    0.957538   -0.011056
      2          6           0        1.134713   -0.301575   -0.003416
      3          8           0        0.025016   -1.146156   -0.012566
      4          6           0       -1.088091   -0.362235    0.026599
      5          6           0       -0.773046    0.941971    0.004832
      6          1           0       -1.398015    1.705741   -0.031000
      7          1           0       -2.025956   -0.964620   -0.042853
      8          1           0        2.075277   -0.823505    0.056105
      9          1           0        1.310319    1.837434    0.016522
 ---------------------------------------------------------------------

 SCF Done:  E(RAM1) =   1.41934737700     A.U. after   13 cycles

 Excitation energies and oscillator strengths:

 Excited State   1:      Singlet-A      5.6809 eV  218.25 nm  f=0.2908  <S**2>=0.000
      13 -> 14         0.67197
      13 -> 15        -0.16076
 This state for optimization and/or second-order correction.
 Total Energy, E(CIS) =   1.62811539919
 Copying the excited state density for this state as the 1-particle RhoCI density.

 Excited State   2:      Singlet-A      5.8535 eV  211.81 nm  f=0.0259  <S**2>=0.000
      11 -> 15         0.10193
      13 -> 14         0.16537
      13 -> 15         0.65538
      13 -> 18        -0.11101

 Excited State   3:      Singlet-A      6.2947 eV  196.97 nm  f=0.0027  <S**2>=0.000
      11 -> 16        -0.10740
      13 -> 16         0.66274
      13 -> 19        -0.10195

 Excited State   4:      Singlet-A      7.2558 eV  170.87 nm  f=0.0002  <S**2>=0.000
      11 -> 14        -0.23932
      12 -> 14         0.64513
      13 -> 22         0.10256

 Excited State   5:      Singlet-A      7.4710 eV  165.95 nm  f=0.0097  <S**2>=0.000
      13 -> 15         0.12604
      13 -> 18         0.62543
      13 -> 20        -0.12132
      13 -> 22        -0.22525

 Excited State   6:      Singlet-A      7.7486 eV  160.01 nm  f=0.0042  <S**2>=0.000
      13 -> 16         0.13681
      13 -> 18         0.25043
      13 -> 19         0.37435
      13 -> 20         0.21281
      13 -> 22         0.44437

 Excited State   7:      Singlet-A      8.1452 eV  152.22 nm  f=0.0027  <S**2>=0.000
      11 -> 14        -0.39691
      12 -> 14        -0.14282
      13 -> 17         0.54905

 Excited State   8:      Singlet-A      8.4614 eV  146.53 nm  f=0.0007  <S**2>=0.000
      10 -> 14         0.51606
      13 -> 19         0.17609
      13 -> 20        -0.38438
      13 -> 21         0.18021

 Excited State   9:      Singlet-A      8.4972 eV  145.91 nm  f=0.0044  <S**2>=0.000
      10 -> 14         0.45915
      13 -> 19        -0.21805
      13 -> 20         0.35818
      13 -> 21        -0.29373

 Excited State  10:      Singlet-A      8.7441 eV  141.79 nm  f=0.0055  <S**2>=0.000
      11 -> 15         0.10785
      13 -> 19         0.49862
      13 -> 21        -0.25116
      13 -> 22        -0.38029

 Excited State  11:      Singlet-A      8.9779 eV  138.10 nm  f=0.0571  <S**2>=0.000
      11 -> 14        -0.16281
      11 -> 15        -0.12009
      11 -> 16         0.15136
      13 -> 17        -0.12965
      13 -> 20         0.28783
      13 -> 21         0.48064
      13 -> 22        -0.22767
      13 -> 23         0.14233

 Excited State  12:      Singlet-A      9.0288 eV  137.32 nm  f=0.1533  <S**2>=0.000
      11 -> 14         0.41270
      11 -> 15        -0.26945
      12 -> 14         0.16984
      12 -> 15        -0.19756
      13 -> 17         0.34938
      13 -> 22        -0.11914

 Excited State  13:      Singlet-A      9.1566 eV  135.40 nm  f=0.0548  <S**2>=0.000
      11 -> 14         0.21807
      11 -> 15         0.49884
      11 -> 16         0.10212
      12 -> 15         0.19512
      13 -> 15        -0.11472
      13 -> 17         0.19169
      13 -> 20         0.18211
      13 -> 21         0.15822

 Excited State  14:      Singlet-A      9.4449 eV  131.27 nm  f=0.1588  <S**2>=0.000
       8 -> 15         0.20610
      11 -> 15        -0.20387
      12 -> 15         0.45106
      12 -> 16        -0.34527

 Excited State  15:      Singlet-A      9.6213 eV  128.86 nm  f=0.0195  <S**2>=0.000
      11 -> 15        -0.13415
      11 -> 16         0.55508
      12 -> 15         0.12646
      12 -> 16         0.21443
      13 -> 16         0.13468
      13 -> 21        -0.16038

 The electronic state is 1-A.
 Alpha  occ. eigenvalues --   -1.88852  -1.18578  -0.96295  -0.79562  -0.77093
 Alpha  occ. eigenvalues --   -0.67751  -0.61596  -0.50217  -0.48112  -0.41249
 Alpha  occ. eigenvalues --   -0.37622  -0.37237  -0.23702
 Alpha virt. eigenvalues --    0.17112   0.20241   0.22233   0.29241   0.29360
 Alpha virt. eigenvalues --    0.32066   0.33504   0.34384   0.34774   0.39885
 Alpha virt. eigenvalues --    0.45064

 Mulliken charges:
               1
     1  C   -0.066747
     2  C   -1.512015
     3  O    2.770506
     4  C   -1.518851
     5  C   -0.096425
     6  H    0.069028
     7  H    0.145201
     8  H    0.145933
     9  H    0.063369
 Sum of Mulliken charges =   0.00000

 Dipole moment (field-independent basis, Debye):
    X=              0.0865    Y=             -9.8598    Z=             -0.2934  Tot=              9.8645
 N-N= 1.035151601561D+02 E-N=-1.697796176901D+02  KE=-1.585468660736D+01
 Orbital energies and kinetic energies (alpha):
                                 1                 2
   1         O                -1.888520         -1.372669
   2         O                -1.185783         -1.072370
   3         O                -0.962947         -0.885237
   4         O                -0.795620         -0.637819
   5         O                -0.770929         -0.699288
   6         O                -0.677507         -0.626037
   7         O                -0.615965         -0.539657

 Normal termination of Gaussian 09 at Tue Dec 15 17:08:06 2015.
