 Gaussian 09, Revision D.01,
 Gaussian 09:  ES64L-G09RevD.01 24-Apr-2013

 ------------------------------------------------------------
 #P AM1(Input,print) CIS(Singlets,NStates=15) pop(full) force
 ------------------------------------------------------------

 -----------------
 AM1-Reparam Input
 -----------------
 Symbolic Z-matrix:
 Charge =  0 Multiplicity = 1

                         Standard orientation:
 ---------------------------------------------------------------------
 Center     Atomic      Atomic             Coordinates (Angstroms)
 Number     Number       Type             X           Y           Z
 ---------------------------------------------------------------------
      1          6           0        0.666294    1.023339    0.017408
      2          6           0        1.136860   -0.249874   -0.014082
      3          8           0        0.089896   -1.178830   -0.004540
      4          6           0       -1.096074   -0.398709    0.011096
      5          6           0       -0.792337    0.873631   -0.015119
      6          1           0       -1.484298    1.786474   -0.001429
      7          1           0       -2.044421   -0.954456    0.016592
      8          1           0        2.101279   -0.747939    0.035972
      9          1           0        1.219823    1.856243   -0.010626
 ---------------------------------------------------------------------

 SCF Done:  E(RAM1) =   1.76676951302     A.U. after   14 cycles

 Excitation energies and oscillator strengths:

 Excited State   1:      Singlet-A      5.2069 eV  238.11 nm  f=0.3757  <S**2>=0.000
      13 -> 14         0.69623
 This state for optimization and/or second-order correction.
 Total Energy, E(CIS) =   1.95812061743
 Copying the excited state density for this state as the 1-particle RhoCI density.

 Excited State   2:      Singlet-A      6.7211 eV  184.47 nm  f=0.0003  <S**2>=0.000
      13 -> 15         0.66894
      13 -> 17        -0.12074
      13 -> 20         0.12151

 Excited State   3:      Singlet-A      6.7998 eV  182.34 nm  f=0.0004  <S**2>=0.000
      12 -> 14         0.69898

 Excited State   4:      Singlet-A      6.9734 eV  177.80 nm  f=0.0012  <S**2>=0.000
      13 -> 16         0.67782
      13 -> 18        -0.13579

 Excited State   5:      Singlet-A      8.0352 eV  154.30 nm  f=0.0075  <S**2>=0.000
      11 -> 14         0.69375
      13 -> 17        -0.10367

 Excited State   6:      Singlet-A      8.3640 eV  148.24 nm  f=0.0002  <S**2>=0.000
      13 -> 15         0.13655
      13 -> 17         0.54495
      13 -> 18        -0.34116
      13 -> 22        -0.18826

 Excited State   7:      Singlet-A      8.9337 eV  138.78 nm  f=0.0086  <S**2>=0.000
      13 -> 16         0.12985
      13 -> 17         0.38974
      13 -> 18         0.54553
      13 -> 22         0.11088

 Excited State   8:      Singlet-A      9.3110 eV  133.16 nm  f=0.0263  <S**2>=0.000
      10 -> 14         0.60375
      12 -> 16        -0.15128
      12 -> 17        -0.12427
      13 -> 19         0.26548

 Excited State   9:      Singlet-A      9.4230 eV  131.58 nm  f=0.0112  <S**2>=0.000
      13 -> 19         0.15066
      13 -> 20         0.65993

 Excited State  10:      Singlet-A      9.6577 eV  128.38 nm  f=0.0763  <S**2>=0.000
       8 -> 16         0.11373
      11 -> 17        -0.10598
      11 -> 18        -0.14025
      12 -> 15         0.49202
      12 -> 16        -0.19326
      12 -> 17        -0.24251
      12 -> 18         0.20161
      13 -> 19        -0.12284

 Excited State  11:      Singlet-A     10.0736 eV  123.08 nm  f=0.1135  <S**2>=0.000
      10 -> 14        -0.26750
      13 -> 19         0.60938
      13 -> 20        -0.14941

 Excited State  12:      Singlet-A     10.2613 eV  120.83 nm  f=0.0626  <S**2>=0.000
      11 -> 16         0.13844
      11 -> 18        -0.11589
      12 -> 16         0.60910
      12 -> 17        -0.19632

 Excited State  13:      Singlet-A     10.3858 eV  119.38 nm  f=0.0635  <S**2>=0.000
      13 -> 18        -0.16480
      13 -> 21         0.56670
      13 -> 22         0.31312

 Excited State  14:      Singlet-A     10.4537 eV  118.60 nm  f=0.2759  <S**2>=0.000
       8 -> 15         0.12241
      10 -> 14         0.16558
      11 -> 15        -0.21418
      11 -> 16        -0.19875
      11 -> 17         0.17257
      11 -> 18         0.11095
      12 -> 15         0.35366
      12 -> 17         0.30662
      12 -> 18        -0.17296
      12 -> 20         0.13243
      13 -> 21         0.11592

 Excited State  15:      Singlet-A     10.6388 eV  116.54 nm  f=0.0276  <S**2>=0.000
      13 -> 18        -0.12629
      13 -> 21        -0.35763
      13 -> 22         0.57668

 The electronic state is 1-A.
 Alpha  occ. eigenvalues --   -1.89205  -1.16384  -0.91689  -0.81045  -0.78035
 Alpha  occ. eigenvalues --   -0.69592  -0.66198  -0.55611  -0.55027  -0.46523
 Alpha  occ. eigenvalues --   -0.44220  -0.40107  -0.28170
 Alpha virt. eigenvalues --    0.11423   0.19025   0.19707   0.27510   0.30118
 Alpha virt. eigenvalues --    0.30952   0.31107   0.34343   0.36565   0.40250
 Alpha virt. eigenvalues --    0.42945

 Mulliken charges:
               1
     1  C   -0.221604
     2  C   -1.985901
     3  O    3.292721
     4  C   -1.981015
     5  C   -0.151088
     6  H    0.201688
     7  H    0.327267
     8  H    0.311767
     9  H    0.206165
 Sum of Mulliken charges =   0.00000

 Dipole moment (field-independent basis, Debye):
    X=              0.5282    Y=            -11.8221    Z=              0.0437  Tot=             11.8340
 N-N= 1.031727747749D+02 E-N=-1.681375364348D+02  KE=-1.543834256875D+01
 Orbital energies and kinetic energies (alpha):
                                 1                 2
   1         O                -1.892048         -1.326287
   2         O                -1.163837         -1.050632
   3         O                -0.916893         -0.895602
   4         O                -0.810455         -0.575161
   5         O                -0.780351         -0.680108
   6         O                -0.695924         -0.589429
   7         O                -0.661975         -0.533943

 Normal termination of Gaussian 09 at Tue Dec 15 17:09:34 2015.
