 Gaussian 09, Revision D.01,
 Gaussian 09:  ES64L-G09RevD.01 24-Apr-2013

 ------------------------------------------------------------
 #P AM1(Input,print) CIS(Singlets,NStates=15) pop(full) force
 ------------------------------------------------------------

 -----------------
 AM1-Reparam Input
 -----------------
 Symbolic Z-matrix:
 Charge =  0 Multiplicity = 1

                         Standard orientation:
 ---------------------------------------------------------------------
 Center     Atomic      Atomic             Coordinates (Angstroms)
 Number     Number       Type             X           Y           Z
 ---------------------------------------------------------------------
      1          6           0       -0.376584    1.124644   -0.024671
      2          6           0       -1.163767    0.018786   -0.011134
      3          8           0       -0.392425   -1.095488    0.009137
      4          6           0        0.940801   -0.648277   -0.018496
      5          6           0        1.003911    0.667765    0.015701
      6          1           0        1.949612    1.267863    0.039996
      7          1           0        1.649509   -1.489261    0.007927
      8          1           0       -2.235078   -0.102056    0.071992
      9          1           0       -0.650812    2.109852    0.038586
 ---------------------------------------------------------------------

 SCF Done:  E(RAM1) =   1.41232973789     A.U. after   13 cycles

 Excitation energies and oscillator strengths:

 Excited State   1:      Singlet-A      5.7771 eV  214.61 nm  f=0.3087  <S**2>=0.000
      13 -> 14         0.69113
 This state for optimization and/or second-order correction.
 Total Energy, E(CIS) =   1.62463383397
 Copying the excited state density for this state as the 1-particle RhoCI density.

 Excited State   2:      Singlet-A      6.0670 eV  204.36 nm  f=0.0032  <S**2>=0.000
      13 -> 15         0.66617
      13 -> 17        -0.14554

 Excited State   3:      Singlet-A      6.2258 eV  199.14 nm  f=0.0004  <S**2>=0.000
      13 -> 16         0.66376
      13 -> 20        -0.11451
      13 -> 21         0.11007

 Excited State   4:      Singlet-A      7.3137 eV  169.52 nm  f=0.0007  <S**2>=0.000
      11 -> 14        -0.40760
      12 -> 14         0.54974
      13 -> 22        -0.11101

 Excited State   5:      Singlet-A      7.4876 eV  165.59 nm  f=0.0087  <S**2>=0.000
      13 -> 15         0.14526
      13 -> 17         0.62385
      13 -> 19         0.23003

 Excited State   6:      Singlet-A      7.7919 eV  159.12 nm  f=0.0001  <S**2>=0.000
      13 -> 16        -0.10642
      13 -> 17         0.22618
      13 -> 19        -0.38814
      13 -> 20        -0.13112
      13 -> 21         0.10252
      13 -> 22         0.47887

 Excited State   7:      Singlet-A      8.1559 eV  152.02 nm  f=0.0039  <S**2>=0.000
      11 -> 14         0.34106
      12 -> 14         0.24431
      13 -> 18         0.54654

 Excited State   8:      Singlet-A      8.4270 eV  147.13 nm  f=0.0039  <S**2>=0.000
      10 -> 14         0.65226
      13 -> 18        -0.12888
      13 -> 20         0.17808

 Excited State   9:      Singlet-A      8.5020 eV  145.83 nm  f=0.0054  <S**2>=0.000
      10 -> 14        -0.17579
      13 -> 17         0.12465
      13 -> 19        -0.35864
      13 -> 20         0.38894
      13 -> 21        -0.36397

 Excited State  10:      Singlet-A      8.7297 eV  142.03 nm  f=0.0006  <S**2>=0.000
      13 -> 19         0.37888
      13 -> 20         0.31835
      13 -> 21        -0.14836
      13 -> 22         0.45617

 Excited State  11:      Singlet-A      8.9684 eV  138.25 nm  f=0.0621  <S**2>=0.000
      11 -> 14        -0.10575
      11 -> 16        -0.14040
      12 -> 16        -0.18997
      13 -> 20         0.35112
      13 -> 21         0.50524
      13 -> 23         0.12781

 Excited State  12:      Singlet-A      9.0912 eV  136.38 nm  f=0.1945  <S**2>=0.000
      10 -> 14        -0.12542
      11 -> 14         0.39542
      11 -> 16        -0.10065
      12 -> 14         0.29988
      12 -> 15         0.17396
      13 -> 18        -0.37979
      13 -> 21         0.11686

 Excited State  13:      Singlet-A      9.2153 eV  134.54 nm  f=0.0189  <S**2>=0.000
      11 -> 14        -0.10496
      11 -> 15         0.43992
      12 -> 15         0.41177
      13 -> 16        -0.14430
      13 -> 20        -0.14486
      13 -> 22         0.13871

 Excited State  14:      Singlet-A      9.4660 eV  130.98 nm  f=0.1131  <S**2>=0.000
       8 -> 15        -0.17242
      10 -> 17         0.11750
      12 -> 15         0.16041
      12 -> 16         0.56563
      13 -> 20         0.11015
      13 -> 21         0.13519

 Excited State  15:      Singlet-A      9.6061 eV  129.07 nm  f=0.0568  <S**2>=0.000
       8 -> 15         0.13086
      10 -> 17        -0.11567
      11 -> 15         0.12146
      11 -> 16         0.58086
      13 -> 15        -0.10803
      13 -> 20         0.11141
      13 -> 21         0.12828
      13 -> 23        -0.10254

 The electronic state is 1-A.
 Alpha  occ. eigenvalues --   -1.88502  -1.18670  -0.95687  -0.78664  -0.77161
 Alpha  occ. eigenvalues --   -0.67558  -0.61405  -0.49836  -0.47845  -0.40446
 Alpha  occ. eigenvalues --   -0.37451  -0.36890  -0.23671
 Alpha virt. eigenvalues --    0.17654   0.21327   0.22122   0.28850   0.29276
 Alpha virt. eigenvalues --    0.31699   0.33418   0.34681   0.35464   0.40002
 Alpha virt. eigenvalues --    0.44956

 Mulliken charges:
               1
     1  C   -0.113854
     2  C   -1.541179
     3  O    2.766508
     4  C   -1.501332
     5  C   -0.033961
     6  H    0.058507
     7  H    0.132960
     8  H    0.166430
     9  H    0.065920
 Sum of Mulliken charges =   0.00000

 Dipole moment (field-independent basis, Debye):
    X=             -3.2568    Y=             -9.3708    Z=              0.4777  Tot=              9.9321
 N-N= 1.034003803922D+02 E-N=-1.696627704061D+02  KE=-1.583761239785D+01
 Orbital energies and kinetic energies (alpha):
                                 1                 2
   1         O                -1.885016         -1.369540
   2         O                -1.186696         -1.074204
   3         O                -0.956874         -0.884966
   4         O                -0.786637         -0.630819
   5         O                -0.771609         -0.698649
   6         O                -0.675580         -0.622567
   7         O                -0.614055         -0.541077

 Normal termination of Gaussian 09 at Tue Dec 15 17:08:03 2015.
