 Gaussian 09, Revision D.01,
 Gaussian 09:  ES64L-G09RevD.01 24-Apr-2013

 ------------------------------------------------------------
 #P AM1(Input,print) CIS(Singlets,NStates=15) pop(full) force
 ------------------------------------------------------------

 -----------------
 AM1-Reparam Input
 -----------------
 Symbolic Z-matrix:
 Charge =  0 Multiplicity = 1

                         Standard orientation:
 ---------------------------------------------------------------------
 Center     Atomic      Atomic             Coordinates (Angstroms)
 Number     Number       Type             X           Y           Z
 ---------------------------------------------------------------------
      1          6           0       -1.032729    0.572104    0.000414
      2          6           0       -0.867807   -0.779098    0.021517
      3          8           0        0.523989   -1.052383   -0.018254
      4          6           0        1.173568    0.160036    0.029286
      5          6           0        0.178627    1.165936   -0.031989
      6          1           0        0.403013    2.173500    0.036660
      7          1           0        2.222840    0.172623    0.001934
      8          1           0       -1.443409   -1.672987   -0.025621
      9          1           0       -2.084308    1.032058    0.017688
 ---------------------------------------------------------------------

 SCF Done:  E(RAM1) =   2.04053600225     A.U. after   14 cycles

 Excitation energies and oscillator strengths:

 Excited State   1:      Singlet-A      5.7201 eV  216.75 nm  f=0.3025  <S**2>=0.000
      13 -> 14         0.68777
 This state for optimization and/or second-order correction.
 Total Energy, E(CIS) =   2.25074458959
 Copying the excited state density for this state as the 1-particle RhoCI density.

 Excited State   2:      Singlet-A      7.0655 eV  175.48 nm  f=0.0170  <S**2>=0.000
      13 -> 15         0.66065
      13 -> 17        -0.18152

 Excited State   3:      Singlet-A      7.2477 eV  171.07 nm  f=0.0012  <S**2>=0.000
      11 -> 14        -0.29650
      12 -> 14         0.61805

 Excited State   4:      Singlet-A      7.4560 eV  166.29 nm  f=0.0004  <S**2>=0.000
      10 -> 15         0.12363
      11 -> 14         0.16252
      13 -> 16         0.60982
      13 -> 18         0.25233

 Excited State   5:      Singlet-A      7.5064 eV  165.17 nm  f=0.0039  <S**2>=0.000
      11 -> 14         0.60986
      12 -> 14         0.31306
      13 -> 16        -0.10491

 Excited State   6:      Singlet-A      8.4882 eV  146.07 nm  f=0.0006  <S**2>=0.000
      10 -> 15        -0.11835
      13 -> 16        -0.13788
      13 -> 18         0.17571
      13 -> 19         0.42680
      13 -> 20         0.45483
      13 -> 21         0.17943

 Excited State   7:      Singlet-A      8.8128 eV  140.69 nm  f=0.0922  <S**2>=0.000
      10 -> 14         0.68619

 Excited State   8:      Singlet-A      8.9764 eV  138.12 nm  f=0.0183  <S**2>=0.000
      10 -> 16         0.20519
      13 -> 15         0.12441
      13 -> 17         0.61766
      13 -> 18        -0.16388
      13 -> 19         0.10649

 Excited State   9:      Singlet-A      9.3733 eV  132.27 nm  f=0.0056  <S**2>=0.000
      10 -> 15        -0.21178
      10 -> 17        -0.10583
      13 -> 16        -0.15258
      13 -> 17         0.16090
      13 -> 18         0.53305
      13 -> 19        -0.26611

 Excited State  10:      Singlet-A      9.5257 eV  130.16 nm  f=0.1634  <S**2>=0.000
       9 -> 16        -0.10862
      11 -> 15         0.36483
      11 -> 17        -0.18629
      11 -> 19         0.15130
      11 -> 20         0.10599
      12 -> 15         0.32138
      12 -> 17        -0.19197
      12 -> 19        -0.17160
      13 -> 14         0.13061

 Excited State  11:      Singlet-A      9.8604 eV  125.74 nm  f=0.0210  <S**2>=0.000
      13 -> 18         0.21434
      13 -> 19         0.45907
      13 -> 20        -0.41850
      13 -> 21        -0.20597

 Excited State  12:      Singlet-A     10.0752 eV  123.06 nm  f=0.0044  <S**2>=0.000
      11 -> 15         0.39649
      11 -> 16        -0.31652
      11 -> 17        -0.11655
      11 -> 18        -0.18958
      12 -> 15        -0.31061
      12 -> 16        -0.17097
      12 -> 17         0.17752
      12 -> 18        -0.10926

 Excited State  13:      Singlet-A     10.2369 eV  121.11 nm  f=0.0788  <S**2>=0.000
      10 -> 15        -0.35288
      11 -> 16        -0.21140
      11 -> 18        -0.10860
      12 -> 15         0.22598
      12 -> 16         0.35339
      12 -> 18         0.16239
      12 -> 19         0.16336
      13 -> 16         0.12058

 Excited State  14:      Singlet-A     10.2937 eV  120.45 nm  f=0.0670  <S**2>=0.000
      10 -> 15         0.46620
      11 -> 15         0.12035
      11 -> 16        -0.13298
      12 -> 16         0.29886
      12 -> 18         0.13969
      13 -> 16        -0.12566
      13 -> 21         0.23153

 Excited State  15:      Singlet-A     10.3539 eV  119.75 nm  f=0.0644  <S**2>=0.000
      10 -> 15        -0.12258
      12 -> 16        -0.10088
      13 -> 20        -0.28835
      13 -> 21         0.58537

 The electronic state is 1-A.
 Alpha  occ. eigenvalues --   -1.92619  -1.20702  -0.94557  -0.81215  -0.79947
 Alpha  occ. eigenvalues --   -0.68077  -0.63972  -0.55415  -0.54180  -0.43355
 Alpha  occ. eigenvalues --   -0.42638  -0.41775  -0.30796
 Alpha virt. eigenvalues --    0.11927   0.19681   0.20830   0.25280   0.27653
 Alpha virt. eigenvalues --    0.28426   0.30262   0.31697   0.33654   0.42592
 Alpha virt. eigenvalues --    0.47004

 Mulliken charges:
               1
     1  C   -0.163579
     2  C   -1.995142
     3  O    3.194320
     4  C   -2.036478
     5  C   -0.229512
     6  H    0.257454
     7  H    0.365473
     8  H    0.344786
     9  H    0.262677
 Sum of Mulliken charges =   0.00000

 Dipole moment (field-independent basis, Debye):
    X=              4.3698    Y=             -9.3811    Z=             -0.6630  Tot=             10.3701
 N-N= 1.039721444801D+02 E-N=-1.690056430769D+02  KE=-1.547257935898D+01
 Orbital energies and kinetic energies (alpha):
                                 1                 2
   1         O                -1.926192         -1.356840
   2         O                -1.207020         -1.077403
   3         O                -0.945574         -0.866404
   4         O                -0.812153         -0.607246
   5         O                -0.799466         -0.675622
   6         O                -0.680770         -0.584158
   7         O                -0.639721         -0.522166

 Normal termination of Gaussian 09 at Tue Dec 15 17:07:26 2015.
