 Gaussian 09, Revision D.01,
 Gaussian 09:  ES64L-G09RevD.01 24-Apr-2013

 ------------------------------------------------------------
 #P AM1(Input,print) CIS(Singlets,NStates=15) pop(full) force
 ------------------------------------------------------------

 -----------------
 AM1-Reparam Input
 -----------------
 Symbolic Z-matrix:
 Charge =  0 Multiplicity = 1

                         Standard orientation:
 ---------------------------------------------------------------------
 Center     Atomic      Atomic             Coordinates (Angstroms)
 Number     Number       Type             X           Y           Z
 ---------------------------------------------------------------------
      1          6           0       -0.611481    1.018234   -0.012699
      2          6           0       -1.096582   -0.170793    0.015960
      3          8           0       -0.181562   -1.109748   -0.010608
      4          6           0        1.017743   -0.505011    0.001332
      5          6           0        0.894040    0.834652    0.013340
      6          1           0        1.602161    1.597933   -0.015683
      7          1           0        1.865715   -1.158445   -0.001804
      8          1           0       -2.192187   -0.563814    0.011929
      9          1           0       -1.045513    1.939813   -0.017174
 ---------------------------------------------------------------------

 SCF Done:  E(RAM1) =   1.41905274023     A.U. after   13 cycles

 Excitation energies and oscillator strengths:

 Excited State   1:      Singlet-A      5.3419 eV  232.10 nm  f=0.0013  <S**2>=0.000
      13 -> 15         0.68442
 This state for optimization and/or second-order correction.
 Total Energy, E(CIS) =   1.61536395948
 Copying the excited state density for this state as the 1-particle RhoCI density.

 Excited State   2:      Singlet-A      5.5308 eV  224.17 nm  f=0.3215  <S**2>=0.000
      13 -> 14         0.69076

 Excited State   3:      Singlet-A      6.0522 eV  204.86 nm  f=0.0002  <S**2>=0.000
      13 -> 16         0.66007
      13 -> 17         0.13332
      13 -> 18        -0.11518

 Excited State   4:      Singlet-A      6.8847 eV  180.09 nm  f=0.0001  <S**2>=0.000
      12 -> 14         0.69494

 Excited State   5:      Singlet-A      7.3547 eV  168.58 nm  f=0.0000  <S**2>=0.000
      13 -> 16         0.15542
      13 -> 17        -0.12469
      13 -> 18         0.48037
      13 -> 20        -0.29010
      13 -> 22         0.34182

 Excited State   6:      Singlet-A      7.6065 eV  163.00 nm  f=0.0103  <S**2>=0.000
      13 -> 17         0.67083
      13 -> 18         0.11564
      13 -> 20        -0.10019

 Excited State   7:      Singlet-A      8.3859 eV  147.85 nm  f=0.0145  <S**2>=0.000
      11 -> 14         0.53133
      12 -> 15        -0.20494
      13 -> 19        -0.36332
      13 -> 20        -0.10083

 Excited State   8:      Singlet-A      8.4334 eV  147.02 nm  f=0.0017  <S**2>=0.000
      11 -> 14         0.13263
      13 -> 18         0.17132
      13 -> 20         0.46392
      13 -> 21         0.35415
      13 -> 22         0.29406

 Excited State   9:      Singlet-A      8.6000 eV  144.17 nm  f=0.0028  <S**2>=0.000
      10 -> 14         0.46654
      11 -> 15        -0.12582
      13 -> 18        -0.30233
      13 -> 20        -0.17968
      13 -> 21         0.17769
      13 -> 22         0.30975

 Excited State  10:      Singlet-A      8.6404 eV  143.49 nm  f=0.0007  <S**2>=0.000
      10 -> 14         0.47898
      13 -> 18         0.32596
      13 -> 22        -0.36837

 Excited State  11:      Singlet-A      8.8332 eV  140.36 nm  f=0.0954  <S**2>=0.000
       8 -> 15        -0.10007
      10 -> 14         0.13696
      11 -> 15         0.39652
      12 -> 15        -0.39397
      12 -> 16         0.11434
      13 -> 19         0.15443
      13 -> 21        -0.23828
      13 -> 22         0.15158

 Excited State  12:      Singlet-A      8.9344 eV  138.77 nm  f=0.1561  <S**2>=0.000
       8 -> 15         0.12008
      10 -> 14         0.11645
      11 -> 14         0.11140
      11 -> 15         0.17686
      12 -> 15         0.40317
      12 -> 16        -0.12834
      13 -> 20         0.21089
      13 -> 21        -0.37761
      13 -> 22         0.15487

 Excited State  13:      Singlet-A      8.9657 eV  138.29 nm  f=0.0414  <S**2>=0.000
      11 -> 15         0.48845
      11 -> 16         0.12506
      12 -> 15         0.16572
      13 -> 19        -0.12137
      13 -> 20        -0.25399
      13 -> 21         0.29552

 Excited State  14:      Singlet-A      9.3954 eV  131.96 nm  f=0.2665  <S**2>=0.000
      11 -> 14         0.38910
      13 -> 19         0.54379

 Excited State  15:      Singlet-A      9.4962 eV  130.56 nm  f=0.0010  <S**2>=0.000
       7 -> 16         0.10338
      11 -> 16         0.63579
      12 -> 16        -0.12328
      13 -> 16         0.13033
      13 -> 21        -0.14303

 The electronic state is 1-A.
 Alpha  occ. eigenvalues --   -1.91655  -1.19077  -0.97325  -0.80286  -0.76558
 Alpha  occ. eigenvalues --   -0.68221  -0.63537  -0.49988  -0.47737  -0.42298
 Alpha  occ. eigenvalues --   -0.38281  -0.36616  -0.23327
 Alpha virt. eigenvalues --    0.16573   0.18414   0.21871   0.30252   0.31568
 Alpha virt. eigenvalues --    0.32096   0.33567   0.33823   0.34724   0.42059
 Alpha virt. eigenvalues --    0.47721

 Mulliken charges:
               1
     1  C   -0.094380
     2  C   -1.513535
     3  O    2.777664
     4  C   -1.536221
     5  C   -0.084678
     6  H    0.066612
     7  H    0.157420
     8  H    0.161239
     9  H    0.065879
 Sum of Mulliken charges =   0.00000

 Dipole moment (field-independent basis, Debye):
    X=             -1.9028    Y=             -9.3312    Z=             -0.2422  Tot=              9.5263
 N-N= 1.042542911761D+02 E-N=-1.710419225420D+02  KE=-1.593043697198D+01
 Orbital energies and kinetic energies (alpha):
                                 1                 2
   1         O                -1.916553         -1.419724
   2         O                -1.190768         -1.072339
   3         O                -0.973249         -0.883388
   4         O                -0.802857         -0.633933
   5         O                -0.765581         -0.702106
   6         O                -0.682209         -0.620322
   7         O                -0.635366         -0.547717

 Normal termination of Gaussian 09 at Tue Dec 15 17:07:53 2015.
