 Gaussian 09, Revision D.01,
 Gaussian 09:  ES64L-G09RevD.01 24-Apr-2013

 ------------------------------------------------------------
 #P AM1(Input,print) CIS(Singlets,NStates=15) pop(full) force
 ------------------------------------------------------------

 -----------------
 AM1-Reparam Input
 -----------------
 Symbolic Z-matrix:
 Charge =  0 Multiplicity = 1

                         Standard orientation:
 ---------------------------------------------------------------------
 Center     Atomic      Atomic             Coordinates (Angstroms)
 Number     Number       Type             X           Y           Z
 ---------------------------------------------------------------------
      1          6           0       -0.539353    1.061019   -0.012649
      2          6           0       -1.170045   -0.182549    0.028961
      3          8           0       -0.201308   -1.090727   -0.017120
      4          6           0        1.014732   -0.522020   -0.001889
      5          6           0        0.911592    0.780923   -0.009582
      6          1           0        1.622497    1.557458    0.076031
      7          1           0        1.845513   -1.197540    0.044122
      8          1           0       -2.155868   -0.461706    0.015911
      9          1           0       -1.003236    2.003364   -0.028147
 ---------------------------------------------------------------------

 SCF Done:  E(RAM1) =  -4.07261813104     A.U. after   13 cycles

 Excitation energies and oscillator strengths:

 Excited State   1:      Singlet-A      7.0649 eV  175.49 nm  f=0.3009  <S**2>=0.000
      12 -> 14        -0.10489
      13 -> 14         0.66763
 This state for optimization and/or second-order correction.
 Total Energy, E(CIS) =  -3.81298909053
 Copying the excited state density for this state as the 1-particle RhoCI density.

 Excited State   2:      Singlet-A      7.4586 eV  166.23 nm  f=0.0103  <S**2>=0.000
      12 -> 14         0.69061
      13 -> 14         0.10010

 Excited State   3:      Singlet-A      7.5023 eV  165.26 nm  f=0.0381  <S**2>=0.000
      13 -> 14         0.12091
      13 -> 15         0.62530
      13 -> 16         0.19120
      13 -> 17         0.21624

 Excited State   4:      Singlet-A      8.0131 eV  154.73 nm  f=0.0026  <S**2>=0.000
      13 -> 15        -0.21134
      13 -> 16         0.62194
      13 -> 20         0.20285

 Excited State   5:      Singlet-A      8.7230 eV  142.14 nm  f=0.0094  <S**2>=0.000
      11 -> 14         0.69891

 Excited State   6:      Singlet-A      9.2044 eV  134.70 nm  f=0.0280  <S**2>=0.000
      13 -> 15        -0.17940
      13 -> 17         0.58150
      13 -> 18         0.18154
      13 -> 20        -0.26684

 Excited State   7:      Singlet-A      9.5309 eV  130.09 nm  f=0.0061  <S**2>=0.000
      10 -> 16        -0.11442
      13 -> 16         0.15987
      13 -> 17        -0.28065
      13 -> 18         0.44433
      13 -> 19         0.19955
      13 -> 20        -0.30013
      13 -> 22        -0.12614

 Excited State   8:      Singlet-A      9.7332 eV  127.38 nm  f=0.0478  <S**2>=0.000
      10 -> 14         0.13304
      11 -> 16         0.11890
      12 -> 15         0.60027
      12 -> 17         0.15292
      12 -> 19         0.10795
      12 -> 20        -0.12159
      13 -> 21         0.10060

 Excited State   9:      Singlet-A      9.9442 eV  124.68 nm  f=0.0446  <S**2>=0.000
      12 -> 16         0.57159
      12 -> 17         0.15775
      12 -> 18        -0.12693
      12 -> 20         0.28320

 Excited State  10:      Singlet-A     10.1486 eV  122.17 nm  f=0.0077  <S**2>=0.000
      13 -> 16        -0.12736
      13 -> 18         0.47968
      13 -> 19        -0.22695
      13 -> 20         0.42083

 Excited State  11:      Singlet-A     10.2969 eV  120.41 nm  f=0.0271  <S**2>=0.000
      10 -> 14        -0.21958
      12 -> 17         0.10461
      13 -> 19         0.56241
      13 -> 20         0.27018

 Excited State  12:      Singlet-A     10.3867 eV  119.37 nm  f=0.0047  <S**2>=0.000
       9 -> 15        -0.10585
      10 -> 14         0.44504
      12 -> 17        -0.21401
      13 -> 19         0.26259
      13 -> 21         0.33851

 Excited State  13:      Singlet-A     10.5241 eV  117.81 nm  f=0.0356  <S**2>=0.000
      11 -> 15         0.50743
      11 -> 16         0.23525
      11 -> 17         0.29781
      12 -> 15        -0.10061
      12 -> 16         0.12150
      12 -> 17         0.10464

 Excited State  14:      Singlet-A     10.9168 eV  113.57 nm  f=0.0258  <S**2>=0.000
       8 -> 15        -0.10144
      12 -> 15         0.12970
      12 -> 17        -0.30129
      12 -> 18        -0.18077
      12 -> 20         0.14058
      13 -> 21        -0.26840
      13 -> 22         0.45858

 Excited State  15:      Singlet-A     10.9720 eV  113.00 nm  f=0.0079  <S**2>=0.000
      12 -> 15        -0.13480
      12 -> 17         0.26610
      12 -> 18         0.13684
      12 -> 20        -0.15151
      13 -> 20        -0.12157
      13 -> 21         0.24619
      13 -> 22         0.48252

 The electronic state is 1-A.
 Alpha  occ. eigenvalues --   -2.99052  -1.33613  -1.01646  -0.99618  -0.98241
 Alpha  occ. eigenvalues --   -0.92653  -0.79152  -0.62268  -0.58865  -0.55667
 Alpha  occ. eigenvalues --   -0.51407  -0.47216  -0.39447
 Alpha virt. eigenvalues --    0.08157   0.11935   0.14013   0.18186   0.20495
 Alpha virt. eigenvalues --    0.21946   0.24352   0.24838   0.26917   0.33975
 Alpha virt. eigenvalues --    0.42012

 Mulliken charges:
               1
     1  C   -0.337207
     2  C   -1.609575
     3  O    2.745292
     4  C   -1.559917
     5  C   -0.248125
     6  H    0.210580
     7  H    0.284380
     8  H    0.296472
     9  H    0.218101
 Sum of Mulliken charges =   0.00000

 Dipole moment (field-independent basis, Debye):
    X=             -1.2199    Y=             -9.2448    Z=             -0.2253  Tot=              9.3276
 N-N= 1.053075383474D+02 E-N=-1.732523409819D+02  KE=-2.113106532167D+01
 Orbital energies and kinetic energies (alpha):
                                 1                 2
   1         O                -2.990516         -2.042560
   2         O                -1.336130         -1.218346
   3         O                -1.016465         -0.926712
   4         O                -0.996184         -0.949477
   5         O                -0.982409         -0.973140
   6         O                -0.926529         -0.831253
   7         O                -0.791515         -0.708043

 Normal termination of Gaussian 09 at Fri Dec 11 13:41:40 2015.
