 Gaussian 09, Revision D.01,
 Gaussian 09:  ES64L-G09RevD.01 24-Apr-2013

 ------------------------------------------------------------
 #P AM1(Input,print) CIS(Singlets,NStates=15) pop(full) force
 ------------------------------------------------------------

 -----------------
 AM1-Reparam Input
 -----------------
 Symbolic Z-matrix:
 Charge =  0 Multiplicity = 1

                         Standard orientation:
 ---------------------------------------------------------------------
 Center     Atomic      Atomic             Coordinates (Angstroms)
 Number     Number       Type             X           Y           Z
 ---------------------------------------------------------------------
      1          6           0        0.863239    0.784245   -0.020767
      2          6           0        1.033205   -0.481976    0.015390
      3          8           0       -0.225510   -1.153029    0.003608
      4          6           0       -1.105698   -0.133167   -0.010492
      5          6           0       -0.522442    1.046167   -0.000348
      6          1           0       -1.117619    1.976527    0.081247
      7          1           0       -2.183631   -0.462451   -0.015577
      8          1           0        1.851522   -1.191054    0.001046
      9          1           0        1.643985    1.609587    0.001716
 ---------------------------------------------------------------------

 SCF Done:  E(RAM1) =  0.358247739088E-01 A.U. after   14 cycles

 Excitation energies and oscillator strengths:

 Excited State   1:      Singlet-A      4.6645 eV  265.80 nm  f=0.0838  <S**2>=0.000
      12 -> 15         0.17800
      13 -> 14         0.67508
 This state for optimization and/or second-order correction.
 Total Energy, E(CIS) =  0.207242787911
 Copying the excited state density for this state as the 1-particle RhoCI density.

 Excited State   2:      Singlet-A      5.3007 eV  233.90 nm  f=0.0009  <S**2>=0.000
      13 -> 15         0.15665
      13 -> 16         0.65743
      13 -> 20         0.12150

 Excited State   3:      Singlet-A      5.4482 eV  227.57 nm  f=0.0065  <S**2>=0.000
      12 -> 14        -0.41627
      13 -> 15         0.53983
      13 -> 16        -0.16525

 Excited State   4:      Singlet-A      6.0937 eV  203.46 nm  f=0.0022  <S**2>=0.000
       7 -> 16        -0.15270
      12 -> 16         0.60346
      12 -> 22        -0.15027
      13 -> 18         0.18438

 Excited State   5:      Singlet-A      6.1416 eV  201.88 nm  f=0.0006  <S**2>=0.000
      12 -> 16        -0.20954
      12 -> 18         0.13478
      12 -> 20        -0.11397
      13 -> 18         0.42339
      13 -> 20        -0.14754
      13 -> 21         0.10450
      13 -> 22        -0.35964
      13 -> 23         0.13960
      13 -> 24        -0.11526

 Excited State   6:      Singlet-A      6.4705 eV  191.61 nm  f=0.1907  <S**2>=0.000
      12 -> 14         0.38443
      12 -> 19        -0.10168
      13 -> 15         0.28990
      13 -> 17         0.41038
      13 -> 23        -0.13578

 Excited State   7:      Singlet-A      6.4871 eV  191.12 nm  f=0.0619  <S**2>=0.000
      12 -> 14        -0.22077
      12 -> 19        -0.16208
      12 -> 21         0.12384
      12 -> 22         0.11075
      12 -> 23         0.12752
      13 -> 15        -0.16441
      13 -> 17         0.22974
      13 -> 19         0.36094
      13 -> 22        -0.24044
      13 -> 23        -0.22270

 Excited State   8:      Singlet-A      6.5519 eV  189.23 nm  f=0.1142  <S**2>=0.000
      12 -> 14        -0.27970
      13 -> 15        -0.22494
      13 -> 17         0.38779
      13 -> 19        -0.34557
      13 -> 21         0.12806
      13 -> 22         0.13969

 Excited State   9:      Singlet-A      6.8110 eV  182.04 nm  f=0.0958  <S**2>=0.000
      12 -> 15         0.66589
      13 -> 14        -0.16194

 Excited State  10:      Singlet-A      7.1879 eV  172.49 nm  f=0.0010  <S**2>=0.000
      12 -> 17         0.31521
      12 -> 18         0.36602
      12 -> 19        -0.24015
      12 -> 21         0.14386
      13 -> 18        -0.28924
      13 -> 19        -0.17833
      13 -> 22        -0.17088

 Excited State  11:      Singlet-A      7.2131 eV  171.89 nm  f=0.0021  <S**2>=0.000
       9 -> 14         0.10872
      10 -> 14         0.56015
      10 -> 15         0.22379
      11 -> 14        -0.16857
      11 -> 15        -0.19812
      13 -> 21        -0.10593

 Excited State  12:      Singlet-A      7.4376 eV  166.70 nm  f=0.0037  <S**2>=0.000
      10 -> 14         0.13618
      11 -> 15        -0.14094
      12 -> 17         0.26749
      12 -> 19         0.28762
      12 -> 21         0.10226
      12 -> 23        -0.15953
      13 -> 19         0.29547
      13 -> 21         0.30801
      13 -> 24        -0.16016

 Excited State  13:      Singlet-A      7.5687 eV  163.81 nm  f=0.0041  <S**2>=0.000
      11 -> 14         0.46109
      12 -> 18         0.13644
      12 -> 19        -0.10945
      12 -> 20        -0.12944
      13 -> 17        -0.16397
      13 -> 18         0.16923
      13 -> 20        -0.17485
      13 -> 22         0.23865
      13 -> 23        -0.16837

 Excited State  14:      Singlet-A      7.6022 eV  163.09 nm  f=0.0034  <S**2>=0.000
       9 -> 14         0.11266
       9 -> 15        -0.12431
      10 -> 14         0.12291
      11 -> 14         0.41856
      12 -> 18        -0.13041
      12 -> 21        -0.12205
      13 -> 18        -0.20248
      13 -> 19        -0.10919
      13 -> 20         0.19061
      13 -> 22        -0.31512

 Excited State  15:      Singlet-A      7.8201 eV  158.55 nm  f=0.0006  <S**2>=0.000
       9 -> 14         0.24134
       9 -> 15        -0.11840
      10 -> 14        -0.15683
      11 -> 14        -0.11033
      11 -> 15        -0.12409
      12 -> 17         0.22337
      12 -> 18        -0.23094
      12 -> 20        -0.17530
      12 -> 22         0.20024
      13 -> 17        -0.13548
      13 -> 18         0.16585
      13 -> 20         0.23588
      13 -> 23        -0.18335
      13 -> 24         0.16322

 The electronic state is 1-A.
 Alpha  occ. eigenvalues --   -1.57322  -1.24877  -1.10688  -0.81314  -0.80984
 Alpha  occ. eigenvalues --   -0.68120  -0.59826  -0.54563  -0.51839  -0.49910
 Alpha  occ. eigenvalues --   -0.49399  -0.40603  -0.35551
 Alpha virt. eigenvalues --    0.03546   0.07229   0.09887   0.13604   0.14142
 Alpha virt. eigenvalues --    0.14953   0.17614   0.17921   0.19074   0.20692
 Alpha virt. eigenvalues --    0.22174

 Mulliken charges:
               1
     1  C   -0.172199
     2  C   -0.093826
     3  O   -0.111796
     4  C   -0.084718
     5  C   -0.227219
     6  H    0.161245
     7  H    0.183052
     8  H    0.182757
     9  H    0.162704
 Sum of Mulliken charges =   0.00000

 Dipole moment (field-independent basis, Debye):
    X=              0.0412    Y=              0.5712    Z=              0.0657  Tot=              0.5765
 N-N= 1.037936857256D+02 E-N=-1.716531716350D+02  KE=-1.656261550623D+01
 Orbital energies and kinetic energies (alpha):
                                 1                 2
   1         O                -1.573216         -1.332325
   2         O                -1.248773         -1.048545
   3         O                -1.106880         -0.964012
   4         O                -0.813142         -0.693171
   5         O                -0.809836         -0.719802
   6         O                -0.681200         -0.603393
   7         O                -0.598261         -0.489279

 Normal termination of Gaussian 09 at Tue Dec 15 16:23:58 2015.
