 Gaussian 09, Revision D.01,
 Gaussian 09:  ES64L-G09RevD.01 24-Apr-2013

 ------------------------------------------------------------
 #P AM1(Input,print) CIS(Singlets,NStates=15) pop(full) force
 ------------------------------------------------------------

 -----------------
 AM1-Reparam Input
 -----------------
 Symbolic Z-matrix:
 Charge =  0 Multiplicity = 1

                         Standard orientation:
 ---------------------------------------------------------------------
 Center     Atomic      Atomic             Coordinates (Angstroms)
 Number     Number       Type             X           Y           Z
 ---------------------------------------------------------------------
      1          6           0       -0.600845    1.011082   -0.011114
      2          6           0       -1.134477   -0.269980   -0.037861
      3          8           0       -0.093479   -1.155839    0.034801
      4          6           0        1.096304   -0.450574   -0.034439
      5          6           0        0.759577    0.910126    0.013513
      6          1           0        1.468851    1.740545    0.047492
      7          1           0        1.958711   -0.939815   -0.005863
      8          1           0       -2.157857   -0.646201    0.045303
      9          1           0       -1.245235    1.888258    0.054067
 ---------------------------------------------------------------------

 SCF Done:  E(RAM1) =  0.222542407945E-01 A.U. after   13 cycles

 Excitation energies and oscillator strengths:

 Excited State   1:      Singlet-A      4.1679 eV  297.48 nm  f=0.1221  <S**2>=0.000
      12 -> 15         0.17446
      13 -> 14         0.67589
 This state for optimization and/or second-order correction.
 Total Energy, E(CIS) =  0.175420064798
 Copying the excited state density for this state as the 1-particle RhoCI density.

 Excited State   2:      Singlet-A      4.5099 eV  274.92 nm  f=0.0001  <S**2>=0.000
      13 -> 16         0.69106

 Excited State   3:      Singlet-A      4.8607 eV  255.07 nm  f=0.0123  <S**2>=0.000
      12 -> 14        -0.39653
      13 -> 15         0.57923

 Excited State   4:      Singlet-A      5.7567 eV  215.37 nm  f=0.0007  <S**2>=0.000
      12 -> 18         0.16614
      12 -> 23        -0.10578
      13 -> 18         0.55913
      13 -> 20        -0.19920
      13 -> 21        -0.16371
      13 -> 22        -0.13287
      13 -> 23        -0.16780

 Excited State   5:      Singlet-A      5.8099 eV  213.40 nm  f=0.0058  <S**2>=0.000
      12 -> 17        -0.14985
      12 -> 20         0.10397
      12 -> 22         0.10036
      13 -> 17         0.50754
      13 -> 19        -0.22077
      13 -> 20        -0.14657
      13 -> 22        -0.20091
      13 -> 23         0.20896

 Excited State   6:      Singlet-A      5.9991 eV  206.67 nm  f=0.0958  <S**2>=0.000
       7 -> 16        -0.16844
      12 -> 14         0.29882
      12 -> 16         0.53647
      13 -> 15         0.21704

 Excited State   7:      Singlet-A      6.0885 eV  203.64 nm  f=0.2275  <S**2>=0.000
       7 -> 16         0.10788
      10 -> 14        -0.12475
      12 -> 14         0.43772
      12 -> 16        -0.36789
      13 -> 15         0.30065

 Excited State   8:      Singlet-A      6.5690 eV  188.74 nm  f=0.0839  <S**2>=0.000
      12 -> 15         0.51366
      13 -> 14        -0.12012
      13 -> 17        -0.15352
      13 -> 19        -0.38481

 Excited State   9:      Singlet-A      6.6036 eV  187.75 nm  f=0.0637  <S**2>=0.000
      12 -> 15         0.43212
      13 -> 14        -0.10193
      13 -> 17         0.17723
      13 -> 19         0.47117

 Excited State  10:      Singlet-A      6.8419 eV  181.21 nm  f=0.0277  <S**2>=0.000
      10 -> 14         0.50373
      11 -> 14         0.34629
      11 -> 15        -0.25365
      12 -> 14         0.10869

 Excited State  11:      Singlet-A      7.1214 eV  174.10 nm  f=0.0000  <S**2>=0.000
      10 -> 14        -0.36200
      10 -> 15        -0.25622
      11 -> 14         0.50352

 Excited State  12:      Singlet-A      7.2342 eV  171.39 nm  f=0.0029  <S**2>=0.000
      12 -> 19        -0.37382
      13 -> 17         0.25559
      13 -> 18         0.15733
      13 -> 19        -0.11453
      13 -> 20         0.10176
      13 -> 21         0.17180
      13 -> 22         0.38758
      13 -> 23        -0.14027

 Excited State  13:      Singlet-A      7.3782 eV  168.04 nm  f=0.0022  <S**2>=0.000
       7 -> 16        -0.10403
      12 -> 18         0.40605
      12 -> 22        -0.17066
      13 -> 17         0.18869
      13 -> 18        -0.26581
      13 -> 20        -0.18763
      13 -> 23        -0.21197
      13 -> 24        -0.24039

 Excited State  14:      Singlet-A      7.5259 eV  164.74 nm  f=0.0006  <S**2>=0.000
       9 -> 15        -0.15404
      12 -> 17         0.42131
      12 -> 18        -0.11561
      12 -> 21        -0.23144
      12 -> 23         0.12612
      12 -> 24        -0.10850
      13 -> 17         0.15075
      13 -> 20         0.26822
      13 -> 21        -0.13513
      13 -> 22        -0.18639

 Excited State  15:      Singlet-A      7.5803 eV  163.56 nm  f=0.0095  <S**2>=0.000
      12 -> 19         0.36376
      12 -> 21        -0.25995
      12 -> 23         0.21722
      13 -> 20        -0.11266
      13 -> 21         0.33196
      13 -> 22         0.21980
      13 -> 23        -0.15276

 The electronic state is 1-A.
 Alpha  occ. eigenvalues --   -1.55406  -1.23843  -1.09259  -0.83156  -0.81025
 Alpha  occ. eigenvalues --   -0.68522  -0.59642  -0.57481  -0.51099  -0.50133
 Alpha  occ. eigenvalues --   -0.49403  -0.40041  -0.33593
 Alpha virt. eigenvalues --    0.02171   0.06537   0.09094   0.14147   0.14716
 Alpha virt. eigenvalues --    0.15821   0.17996   0.18386   0.19326   0.20759
 Alpha virt. eigenvalues --    0.22116

 Mulliken charges:
               1
     1  C   -0.203592
     2  C   -0.112262
     3  O   -0.078933
     4  C   -0.106528
     5  C   -0.189192
     6  H    0.156329
     7  H    0.183201
     8  H    0.196269
     9  H    0.154708
 Sum of Mulliken charges =   0.00000

 Dipole moment (field-independent basis, Debye):
    X=             -0.1336    Y=              0.4360    Z=              0.1899  Tot=              0.4939
 N-N= 1.033296238388D+02 E-N=-1.708237900863D+02  KE=-1.653889303985D+01
 Orbital energies and kinetic energies (alpha):
                                 1                 2
   1         O                -1.554058         -1.306222
   2         O                -1.238431         -1.051816
   3         O                -1.092594         -0.957754
   4         O                -0.831558         -0.737683
   5         O                -0.810248         -0.695946
   6         O                -0.685216         -0.602796
   7         O                -0.596424         -0.483208

 Normal termination of Gaussian 09 at Tue Dec 15 16:17:14 2015.
