 Gaussian 09, Revision D.01,
 Gaussian 09:  ES64L-G09RevD.01 24-Apr-2013

 ------------------------------------------------------------
 #P AM1(Input,print) CIS(Singlets,NStates=15) pop(full) force
 ------------------------------------------------------------

 -----------------
 AM1-Reparam Input
 -----------------
 Symbolic Z-matrix:
 Charge =  0 Multiplicity = 1

                         Standard orientation:
 ---------------------------------------------------------------------
 Center     Atomic      Atomic             Coordinates (Angstroms)
 Number     Number       Type             X           Y           Z
 ---------------------------------------------------------------------
      1          6           0       -0.937434    0.729833   -0.021719
      2          6           0       -0.962978   -0.593631    0.027571
      3          8           0        0.283689   -1.138888   -0.009341
      4          6           0        1.131678   -0.042859    0.014813
      5          6           0        0.467148    1.095240   -0.003600
      6          1           0        0.883264    2.063284    0.038627
      7          1           0        2.221465   -0.377353   -0.046116
      8          1           0       -1.789787   -1.219029   -0.025289
      9          1           0       -1.774941    1.512701    0.005117
 ---------------------------------------------------------------------

 SCF Done:  E(RAM1) =  0.258629699775E-01 A.U. after   13 cycles

 Excitation energies and oscillator strengths:

 Excited State   1:      Singlet-A      4.6554 eV  266.32 nm  f=0.0740  <S**2>=0.000
      12 -> 15        -0.20712
      13 -> 14         0.66895
 This state for optimization and/or second-order correction.
 Total Energy, E(CIS) =  0.196946931364
 Copying the excited state density for this state as the 1-particle RhoCI density.

 Excited State   2:      Singlet-A      5.2961 eV  234.11 nm  f=0.0038  <S**2>=0.000
      12 -> 14         0.43075
      13 -> 15         0.53418
      13 -> 16         0.14770

 Excited State   3:      Singlet-A      5.3527 eV  231.63 nm  f=0.0000  <S**2>=0.000
      12 -> 14        -0.11094
      13 -> 15        -0.10518
      13 -> 16         0.66270
      13 -> 22        -0.12315

 Excited State   4:      Singlet-A      5.9932 eV  206.87 nm  f=0.0019  <S**2>=0.000
       7 -> 16        -0.16389
      12 -> 16         0.60665
      12 -> 22        -0.18399
      13 -> 18        -0.20082

 Excited State   5:      Singlet-A      6.1280 eV  202.32 nm  f=0.0012  <S**2>=0.000
      12 -> 16         0.20839
      12 -> 18         0.14188
      12 -> 19        -0.11072
      12 -> 21        -0.15068
      13 -> 18         0.46224
      13 -> 19        -0.19660
      13 -> 21        -0.14666
      13 -> 22         0.11574
      13 -> 23        -0.21514
      13 -> 24        -0.11043

 Excited State   6:      Singlet-A      6.2646 eV  197.91 nm  f=0.0049  <S**2>=0.000
      12 -> 17        -0.11498
      12 -> 18        -0.21628
      12 -> 20        -0.14728
      12 -> 23         0.12246
      13 -> 17         0.35462
      13 -> 18         0.15801
      13 -> 19         0.14314
      13 -> 20         0.14746
      13 -> 21         0.27706
      13 -> 22        -0.23732
      13 -> 23        -0.12992

 Excited State   7:      Singlet-A      6.3783 eV  194.39 nm  f=0.3849  <S**2>=0.000
      12 -> 14         0.49801
      13 -> 15        -0.41940

 Excited State   8:      Singlet-A      6.4800 eV  191.33 nm  f=0.1045  <S**2>=0.000
      12 -> 15         0.66073
      13 -> 14         0.19299

 Excited State   9:      Singlet-A      6.5213 eV  190.12 nm  f=0.0124  <S**2>=0.000
      11 -> 14        -0.10819
      12 -> 19        -0.11284
      13 -> 17         0.48235
      13 -> 18        -0.21291
      13 -> 19        -0.26544
      13 -> 20        -0.12538
      13 -> 21        -0.12913
      13 -> 22         0.13834
      13 -> 23        -0.13236

 Excited State  10:      Singlet-A      6.9656 eV  177.99 nm  f=0.0025  <S**2>=0.000
      12 -> 17         0.41808
      12 -> 18        -0.35579
      12 -> 19        -0.11652
      12 -> 20        -0.18584
      13 -> 19        -0.28737

 Excited State  11:      Singlet-A      7.3871 eV  167.84 nm  f=0.0031  <S**2>=0.000
       9 -> 14         0.13956
      10 -> 14         0.48745
      10 -> 15        -0.29806
      11 -> 14         0.16797
      11 -> 15        -0.20624
      12 -> 19        -0.12082

 Excited State  12:      Singlet-A      7.4135 eV  167.24 nm  f=0.0044  <S**2>=0.000
       8 -> 14        -0.10055
       9 -> 14         0.26556
       9 -> 15         0.13076
      11 -> 14         0.33867
      11 -> 15         0.36216
      12 -> 17        -0.17857
      12 -> 18        -0.16561
      12 -> 21        -0.11673
      13 -> 18        -0.10716
      13 -> 20         0.13952
      13 -> 24        -0.11502

 Excited State  13:      Singlet-A      7.4612 eV  166.17 nm  f=0.0003  <S**2>=0.000
      10 -> 14        -0.21395
      11 -> 14         0.42435
      12 -> 17         0.19715
      12 -> 18         0.17364
      12 -> 20        -0.14607
      12 -> 21         0.12251
      13 -> 17         0.18905
      13 -> 18         0.15355
      13 -> 19         0.10104
      13 -> 20        -0.14622
      13 -> 22        -0.10537

 Excited State  14:      Singlet-A      7.5693 eV  163.80 nm  f=0.0008  <S**2>=0.000
       9 -> 14         0.41508
       9 -> 15         0.12207
      11 -> 14        -0.29000
      11 -> 15         0.22584
      12 -> 17         0.11662
      12 -> 18         0.17445
      13 -> 18         0.12558
      13 -> 20        -0.16201
      13 -> 22        -0.21038

 Excited State  15:      Singlet-A      7.6682 eV  161.69 nm  f=0.0020  <S**2>=0.000
       9 -> 14         0.13459
      11 -> 14        -0.21009
      11 -> 15         0.11344
      12 -> 18        -0.14864
      12 -> 20        -0.21360
      12 -> 21         0.10842
      13 -> 18         0.10931
      13 -> 19         0.29471
      13 -> 20         0.12705
      13 -> 21        -0.17823
      13 -> 22         0.32559
      13 -> 23         0.16989

 The electronic state is 1-A.
 Alpha  occ. eigenvalues --   -1.56746  -1.23969  -1.10549  -0.81987  -0.80944
 Alpha  occ. eigenvalues --   -0.68341  -0.60006  -0.55543  -0.51389  -0.50751
 Alpha  occ. eigenvalues --   -0.48822  -0.39666  -0.35513
 Alpha virt. eigenvalues --    0.03469   0.06628   0.10082   0.13150   0.13999
 Alpha virt. eigenvalues --    0.15872   0.17398   0.18607   0.18990   0.20576
 Alpha virt. eigenvalues --    0.22286

 Mulliken charges:
               1
     1  C   -0.220069
     2  C   -0.079757
     3  O   -0.094249
     4  C   -0.100851
     5  C   -0.195550
     6  H    0.157010
     7  H    0.190373
     8  H    0.174255
     9  H    0.168839
 Sum of Mulliken charges =   0.00000

 Dipole moment (field-independent basis, Debye):
    X=             -0.0376    Y=              0.5579    Z=             -0.0286  Tot=              0.5599
 N-N= 1.035582554776D+02 E-N=-1.712278066331D+02  KE=-1.655246293713D+01
 Orbital energies and kinetic energies (alpha):
                                 1                 2
   1         O                -1.567461         -1.320917
   2         O                -1.239693         -1.047867
   3         O                -1.105491         -0.964146
   4         O                -0.819865         -0.699530
   5         O                -0.809438         -0.721619
   6         O                -0.683407         -0.602599
   7         O                -0.600060         -0.487935

 Normal termination of Gaussian 09 at Tue Dec 15 16:30:33 2015.
