 Gaussian 09, Revision D.01,
 Gaussian 09:  ES64L-G09RevD.01 24-Apr-2013

 ------------------------------------------------------------
 #P AM1(Input,print) CIS(Singlets,NStates=15) pop(full) force
 ------------------------------------------------------------

 -----------------
 AM1-Reparam Input
 -----------------
 Symbolic Z-matrix:
 Charge =  0 Multiplicity = 1

                         Standard orientation:
 ---------------------------------------------------------------------
 Center     Atomic      Atomic             Coordinates (Angstroms)
 Number     Number       Type             X           Y           Z
 ---------------------------------------------------------------------
      1          6           0        0.788970    0.885096   -0.003663
      2          6           0        1.102359   -0.368707    0.027840
      3          8           0       -0.079589   -1.151040   -0.021614
      4          6           0       -1.150744   -0.252078    0.029135
      5          6           0       -0.671583    0.959252   -0.022512
      6          1           0       -1.227418    1.853659    0.035861
      7          1           0       -2.037413   -0.689635   -0.014642
      8          1           0        2.007510   -1.003691   -0.013128
      9          1           0        1.480020    1.706611   -0.019980
 ---------------------------------------------------------------------

 SCF Done:  E(RAM1) =   1.81217834771     A.U. after   13 cycles

 Excitation energies and oscillator strengths:

 Excited State   1:      Singlet-A      5.0999 eV  243.11 nm  f=0.3653  <S**2>=0.000
      13 -> 14         0.69562
 This state for optimization and/or second-order correction.
 Total Energy, E(CIS) =   1.99959794529
 Copying the excited state density for this state as the 1-particle RhoCI density.

 Excited State   2:      Singlet-A      6.6111 eV  187.54 nm  f=0.0001  <S**2>=0.000
      13 -> 15         0.67217

 Excited State   3:      Singlet-A      6.8007 eV  182.31 nm  f=0.0003  <S**2>=0.000
      12 -> 14         0.70295

 Excited State   4:      Singlet-A      6.9893 eV  177.39 nm  f=0.0026  <S**2>=0.000
      13 -> 16         0.66938
      13 -> 17        -0.10381

 Excited State   5:      Singlet-A      7.8825 eV  157.29 nm  f=0.0072  <S**2>=0.000
      11 -> 14         0.69984

 Excited State   6:      Singlet-A      8.2970 eV  149.43 nm  f=0.0008  <S**2>=0.000
      13 -> 15         0.11338
      13 -> 17         0.24049
      13 -> 18         0.60628
      13 -> 22         0.20884

 Excited State   7:      Singlet-A      8.8835 eV  139.57 nm  f=0.0093  <S**2>=0.000
      13 -> 16         0.10752
      13 -> 17         0.63818
      13 -> 18        -0.23830

 Excited State   8:      Singlet-A      9.3483 eV  132.63 nm  f=0.0151  <S**2>=0.000
      10 -> 14         0.50968
      12 -> 15         0.20914
      13 -> 19         0.40202

 Excited State   9:      Singlet-A      9.4771 eV  130.82 nm  f=0.0001  <S**2>=0.000
      13 -> 20         0.68461

 Excited State  10:      Singlet-A      9.6319 eV  128.72 nm  f=0.0569  <S**2>=0.000
      11 -> 17         0.16652
      12 -> 15         0.46815
      12 -> 16        -0.24257
      12 -> 18        -0.29107
      13 -> 19        -0.19836

 Excited State  11:      Singlet-A      9.9184 eV  125.00 nm  f=0.1087  <S**2>=0.000
      10 -> 14        -0.39384
      12 -> 16        -0.11245
      12 -> 17        -0.10396
      13 -> 19         0.53328

 Excited State  12:      Singlet-A     10.2365 eV  121.12 nm  f=0.1181  <S**2>=0.000
      10 -> 14        -0.18198
      11 -> 15         0.30717
      11 -> 17        -0.19286
      12 -> 15         0.38824
      12 -> 16         0.23645
      12 -> 18         0.27624

 Excited State  13:      Singlet-A     10.3518 eV  119.77 nm  f=0.0710  <S**2>=0.000
      13 -> 21         0.68133

 Excited State  14:      Singlet-A     10.4428 eV  118.73 nm  f=0.1463  <S**2>=0.000
      11 -> 16        -0.30981
      11 -> 17         0.15072
      12 -> 16         0.51312
      12 -> 17        -0.13602
      12 -> 18        -0.18989
      12 -> 20         0.10898

 Excited State  15:      Singlet-A     10.5428 eV  117.60 nm  f=0.0037  <S**2>=0.000
      13 -> 18        -0.21111
      13 -> 22         0.66030

 The electronic state is 1-A.
 Alpha  occ. eigenvalues --   -1.90619  -1.18039  -0.94576  -0.82008  -0.79374
 Alpha  occ. eigenvalues --   -0.70443  -0.67447  -0.56882  -0.55327  -0.47550
 Alpha  occ. eigenvalues --   -0.43810  -0.40389  -0.28021
 Alpha virt. eigenvalues --    0.11194   0.18571   0.20897   0.28560   0.29211
 Alpha virt. eigenvalues --    0.30489   0.31526   0.33956   0.36457   0.39822
 Alpha virt. eigenvalues --    0.42597

 Mulliken charges:
               1
     1  C   -0.180162
     2  C   -1.961861
     3  O    3.298995
     4  C   -1.975034
     5  C   -0.231349
     6  H    0.213869
     7  H    0.313182
     8  H    0.314374
     9  H    0.207986
 Sum of Mulliken charges =   0.00000

 Dipole moment (field-independent basis, Debye):
    X=             -0.4253    Y=            -11.7304    Z=             -0.8147  Tot=             11.7663
 N-N= 1.039465650435D+02 E-N=-1.692533965176D+02  KE=-1.552567209472D+01
 Orbital energies and kinetic energies (alpha):
                                 1                 2
   1         O                -1.906190         -1.341822
   2         O                -1.180390         -1.052736
   3         O                -0.945761         -0.910865
   4         O                -0.820076         -0.586340
   5         O                -0.793739         -0.693894
   6         O                -0.704434         -0.578414
   7         O                -0.674469         -0.542956

 Normal termination of Gaussian 09 at Tue Dec 15 17:09:38 2015.
