 Gaussian 09, Revision D.01,
 Gaussian 09:  ES64L-G09RevD.01 24-Apr-2013

 ------------------------------------------------------------
 #P AM1(Input,print) CIS(Singlets,NStates=15) pop(full) force
 ------------------------------------------------------------

 -----------------
 AM1-Reparam Input
 -----------------
 Symbolic Z-matrix:
 Charge =  0 Multiplicity = 1

                         Standard orientation:
 ---------------------------------------------------------------------
 Center     Atomic      Atomic             Coordinates (Angstroms)
 Number     Number       Type             X           Y           Z
 ---------------------------------------------------------------------
      1          6           0       -0.923480    0.800700    0.007144
      2          6           0       -1.009410   -0.554554   -0.002617
      3          8           0        0.229269   -1.121560    0.003120
      4          6           0        1.170285   -0.149929    0.002709
      5          6           0        0.523621    1.086046   -0.008737
      6          1           0        0.971874    2.054273    0.038401
      7          1           0        2.139677   -0.461506   -0.026468
      8          1           0       -1.856605   -1.193391    0.002057
      9          1           0       -1.655201    1.479529   -0.029949
 ---------------------------------------------------------------------

 SCF Done:  E(RAM1) =   1.72491775672     A.U. after   13 cycles

 Excitation energies and oscillator strengths:

 Excited State   1:      Singlet-A      5.3148 eV  233.28 nm  f=0.3854  <S**2>=0.000
      13 -> 14         0.69622
 This state for optimization and/or second-order correction.
 Total Energy, E(CIS) =   1.92023249646
 Copying the excited state density for this state as the 1-particle RhoCI density.

 Excited State   2:      Singlet-A      6.8789 eV  180.24 nm  f=0.0000  <S**2>=0.000
      12 -> 14         0.70148

 Excited State   3:      Singlet-A      7.2803 eV  170.30 nm  f=0.0031  <S**2>=0.000
      13 -> 15         0.65913
      13 -> 17        -0.16741

 Excited State   4:      Singlet-A      7.4018 eV  167.50 nm  f=0.0048  <S**2>=0.000
      13 -> 15         0.10542
      13 -> 16         0.65443
      13 -> 18        -0.20458

 Excited State   5:      Singlet-A      8.0618 eV  153.79 nm  f=0.0062  <S**2>=0.000
      11 -> 14         0.70163

 Excited State   6:      Singlet-A      8.7226 eV  142.14 nm  f=0.0005  <S**2>=0.000
      13 -> 15        -0.12582
      13 -> 16         0.12976
      13 -> 17        -0.40649
      13 -> 18         0.45861
      13 -> 19        -0.11642
      13 -> 20        -0.11197
      13 -> 22         0.22668

 Excited State   7:      Singlet-A      9.2741 eV  133.69 nm  f=0.1235  <S**2>=0.000
      10 -> 14         0.68716

 Excited State   8:      Singlet-A      9.4829 eV  130.75 nm  f=0.0121  <S**2>=0.000
      10 -> 16        -0.12030
      13 -> 16         0.12170
      13 -> 17         0.52616
      13 -> 18         0.40590

 Excited State   9:      Singlet-A      9.9260 eV  124.91 nm  f=0.0019  <S**2>=0.000
      13 -> 19         0.67544

 Excited State  10:      Singlet-A     10.0005 eV  123.98 nm  f=0.0342  <S**2>=0.000
      11 -> 15        -0.11423
      11 -> 16        -0.14569
      11 -> 17         0.15316
      11 -> 18         0.12338
      12 -> 15         0.34649
      12 -> 16        -0.29949
      12 -> 17        -0.23804
      12 -> 18         0.29504

 Excited State  11:      Singlet-A     10.5815 eV  117.17 nm  f=0.0390  <S**2>=0.000
      13 -> 18         0.20905
      13 -> 20         0.53476
      13 -> 22        -0.37246

 Excited State  12:      Singlet-A     10.6253 eV  116.69 nm  f=0.0121  <S**2>=0.000
      11 -> 15         0.13000
      11 -> 16        -0.14534
      12 -> 15         0.42706
      12 -> 16         0.46621
      12 -> 18        -0.14041

 Excited State  13:      Singlet-A     10.7849 eV  114.96 nm  f=0.2552  <S**2>=0.000
       9 -> 16        -0.10545
      11 -> 15         0.27182
      11 -> 16         0.23871
      11 -> 17        -0.16087
      12 -> 15         0.32182
      12 -> 16        -0.31167
      12 -> 17         0.18013
      12 -> 19         0.18995

 Excited State  14:      Singlet-A     10.8693 eV  114.07 nm  f=0.0607  <S**2>=0.000
       9 -> 14        -0.13759
      13 -> 20         0.41006
      13 -> 22         0.52229

 Excited State  15:      Singlet-A     11.0630 eV  112.07 nm  f=0.0027  <S**2>=0.000
       9 -> 14         0.67823
      13 -> 22         0.12802

 The electronic state is 1-A.
 Alpha  occ. eigenvalues --   -1.91093  -1.16369  -0.93157  -0.82956  -0.78988
 Alpha  occ. eigenvalues --   -0.70790  -0.67562  -0.58117  -0.55814  -0.47792
 Alpha  occ. eigenvalues --   -0.46673  -0.42751  -0.30872
 Alpha virt. eigenvalues --    0.09127   0.19042   0.19754   0.27353   0.27892
 Alpha virt. eigenvalues --    0.30170   0.32190   0.34022   0.34164   0.42284
 Alpha virt. eigenvalues --    0.46707

 Mulliken charges:
               1
     1  C   -0.151991
     2  C   -2.029319
     3  O    3.305220
     4  C   -2.028272
     5  C   -0.181409
     6  H    0.212087
     7  H    0.326192
     8  H    0.340471
     9  H    0.207019
 Sum of Mulliken charges =   0.00000

 Dipole moment (field-independent basis, Debye):
    X=              1.7250    Y=            -10.2161    Z=              0.0052  Tot=             10.3607
 N-N= 1.037574352204D+02 E-N=-1.689008951279D+02  KE=-1.550548143490D+01
 Orbital energies and kinetic energies (alpha):
                                 1                 2
   1         O                -1.910928         -1.369853
   2         O                -1.163692         -1.039769
   3         O                -0.931575         -0.883410
   4         O                -0.829559         -0.585198
   5         O                -0.789883         -0.704431
   6         O                -0.707896         -0.592906
   7         O                -0.675623         -0.528090

 Normal termination of Gaussian 09 at Tue Dec 15 17:09:37 2015.
