 Gaussian 09, Revision D.01,
 Gaussian 09:  ES64L-G09RevD.01 24-Apr-2013

 ------------------------------------------------------------
 #P AM1(Input,print) CIS(Singlets,NStates=15) pop(full) force
 ------------------------------------------------------------

 -----------------
 AM1-Reparam Input
 -----------------
 Symbolic Z-matrix:
 Charge =  0 Multiplicity = 1

                         Standard orientation:
 ---------------------------------------------------------------------
 Center     Atomic      Atomic             Coordinates (Angstroms)
 Number     Number       Type             X           Y           Z
 ---------------------------------------------------------------------
      1          6           0       -0.680242    0.948863   -0.013063
      2          6           0       -1.083726   -0.310280    0.007307
      3          8           0       -0.016349   -1.107750    0.006145
      4          6           0        1.040856   -0.382702    0.006055
      5          6           0        0.727086    0.908568   -0.010395
      6          1           0        1.462002    1.801478    0.044368
      7          1           0        2.026513   -0.922641   -0.039495
      8          1           0       -2.094448   -0.811625   -0.032368
      9          1           0       -1.287123    1.808097    0.038915
 ---------------------------------------------------------------------

 SCF Done:  E(RAM1) =   1.38939729795     A.U. after   13 cycles

 Excitation energies and oscillator strengths:

 Excited State   1:      Singlet-A      6.0381 eV  205.33 nm  f=0.0663  <S**2>=0.000
      13 -> 14        -0.33980
      13 -> 15         0.58494
      13 -> 17        -0.11273
 This state for optimization and/or second-order correction.
 Total Energy, E(CIS) =   1.61129522898
 Copying the excited state density for this state as the 1-particle RhoCI density.

 Excited State   2:      Singlet-A      6.0895 eV  203.60 nm  f=0.2490  <S**2>=0.000
      13 -> 14         0.60335
      13 -> 15         0.32911

 Excited State   3:      Singlet-A      6.4036 eV  193.61 nm  f=0.0024  <S**2>=0.000
      11 -> 16         0.10664
      13 -> 16         0.66441
      13 -> 21         0.12471

 Excited State   4:      Singlet-A      7.4866 eV  165.61 nm  f=0.0006  <S**2>=0.000
      11 -> 14        -0.30332
      12 -> 14         0.60752
      13 -> 22        -0.11258

 Excited State   5:      Singlet-A      7.5329 eV  164.59 nm  f=0.0067  <S**2>=0.000
      13 -> 15         0.12647
      13 -> 17         0.66414

 Excited State   6:      Singlet-A      7.9585 eV  155.79 nm  f=0.0013  <S**2>=0.000
      11 -> 15        -0.11152
      13 -> 18         0.48326
      13 -> 19         0.10321
      13 -> 22         0.46531

 Excited State   7:      Singlet-A      8.3523 eV  148.44 nm  f=0.0017  <S**2>=0.000
      10 -> 14         0.67239
      11 -> 14         0.16095

 Excited State   8:      Singlet-A      8.6686 eV  143.03 nm  f=0.0069  <S**2>=0.000
      11 -> 15         0.20444
      11 -> 16         0.11505
      13 -> 18         0.42214
      13 -> 21        -0.34444
      13 -> 22        -0.33252

 Excited State   9:      Singlet-A      8.7015 eV  142.49 nm  f=0.0424  <S**2>=0.000
      10 -> 14        -0.14438
      11 -> 14         0.55149
      12 -> 14         0.26771
      12 -> 15         0.10800
      13 -> 20         0.22164

 Excited State  10:      Singlet-A      8.8279 eV  140.45 nm  f=0.0102  <S**2>=0.000
      13 -> 18         0.23250
      13 -> 19        -0.39551
      13 -> 20        -0.13929
      13 -> 21         0.42878
      13 -> 22        -0.22247

 Excited State  11:      Singlet-A      8.9460 eV  138.59 nm  f=0.0132  <S**2>=0.000
      11 -> 15         0.54381
      12 -> 15         0.23573
      13 -> 15         0.12187
      13 -> 16        -0.11909
      13 -> 21         0.25206
      13 -> 22         0.10785

 Excited State  12:      Singlet-A      9.2696 eV  133.75 nm  f=0.0501  <S**2>=0.000
      11 -> 15        -0.10681
      11 -> 16        -0.29217
      12 -> 16        -0.19663
      13 -> 18         0.10900
      13 -> 19         0.43627
      13 -> 21         0.24386
      13 -> 22        -0.28265

 Excited State  13:      Singlet-A      9.4180 eV  131.65 nm  f=0.1022  <S**2>=0.000
       8 -> 15        -0.21141
      10 -> 17        -0.16824
      11 -> 15        -0.18778
      11 -> 16         0.20263
      12 -> 15         0.47274
      12 -> 16        -0.23338
      12 -> 18        -0.14182

 Excited State  14:      Singlet-A      9.4827 eV  130.75 nm  f=0.0147  <S**2>=0.000
      11 -> 16         0.40417
      12 -> 16         0.35881
      13 -> 16        -0.13188
      13 -> 19         0.32287
      13 -> 21         0.19343

 Excited State  15:      Singlet-A      9.6902 eV  127.95 nm  f=0.0508  <S**2>=0.000
       8 -> 16         0.13667
       9 -> 15        -0.15243
      10 -> 15        -0.25160
      10 -> 16         0.10521
      10 -> 17         0.14316
      10 -> 18         0.12602
      11 -> 15        -0.15480
      11 -> 16        -0.26734
      12 -> 15         0.32545
      12 -> 16         0.27193

 The electronic state is 1-A.
 Alpha  occ. eigenvalues --   -1.93297  -1.21035  -0.97269  -0.80047  -0.76718
 Alpha  occ. eigenvalues --   -0.67478  -0.64998  -0.50500  -0.47677  -0.40478
 Alpha  occ. eigenvalues --   -0.38032  -0.37999  -0.25445
 Alpha virt. eigenvalues --    0.17520   0.19358   0.21011   0.27590   0.30105
 Alpha virt. eigenvalues --    0.32998   0.33413   0.33671   0.35208   0.42921
 Alpha virt. eigenvalues --    0.49066

 Mulliken charges:
               1
     1  C   -0.043037
     2  C   -1.566297
     3  O    2.804641
     4  C   -1.578887
     5  C   -0.091607
     6  H    0.064897
     7  H    0.178197
     8  H    0.166523
     9  H    0.065570
 Sum of Mulliken charges =   0.00000

 Dipole moment (field-independent basis, Debye):
    X=              0.0444    Y=             -9.0314    Z=             -0.0743  Tot=              9.0319
 N-N= 1.047481650749D+02 E-N=-1.719228230460D+02  KE=-1.597523761524D+01
 Orbital energies and kinetic energies (alpha):
                                 1                 2
   1         O                -1.932975         -1.447868
   2         O                -1.210353         -1.079820
   3         O                -0.972692         -0.874825
   4         O                -0.800469         -0.631951
   5         O                -0.767176         -0.697807
   6         O                -0.674778         -0.618467
   7         O                -0.649975         -0.562097

 Normal termination of Gaussian 09 at Tue Dec 15 17:07:54 2015.
