 Gaussian 09, Revision D.01,
 Gaussian 09:  ES64L-G09RevD.01 24-Apr-2013

 ------------------------------------------------------------
 #P AM1(Input,print) CIS(Singlets,NStates=15) pop(full) force
 ------------------------------------------------------------

 -----------------
 AM1-Reparam Input
 -----------------
 Symbolic Z-matrix:
 Charge =  0 Multiplicity = 1

                         Standard orientation:
 ---------------------------------------------------------------------
 Center     Atomic      Atomic             Coordinates (Angstroms)
 Number     Number       Type             X           Y           Z
 ---------------------------------------------------------------------
      1          6           0       -1.019760    0.708164   -0.025687
      2          6           0       -0.988633   -0.636175    0.046698
      3          8           0        0.370198   -1.136602   -0.036632
      4          6           0        1.185691    0.017817    0.028300
      5          6           0        0.420975    1.089536   -0.014464
      6          1           0        0.751393    2.181483    0.045415
      7          1           0        2.241335   -0.147917    0.023371
      8          1           0       -1.664749   -1.364004    0.025908
      9          1           0       -1.879206    1.347208   -0.010723
 ---------------------------------------------------------------------

 SCF Done:  E(RAM1) =   1.75434234632     A.U. after   14 cycles

 Excitation energies and oscillator strengths:

 Excited State   1:      Singlet-A      4.9736 eV  249.29 nm  f=0.3414  <S**2>=0.000
      13 -> 14         0.69519
 This state for optimization and/or second-order correction.
 Total Energy, E(CIS) =   1.93711823485
 Copying the excited state density for this state as the 1-particle RhoCI density.

 Excited State   2:      Singlet-A      6.0295 eV  205.63 nm  f=0.0017  <S**2>=0.000
      11 -> 15         0.10469
      13 -> 15         0.65536
      13 -> 19        -0.19746

 Excited State   3:      Singlet-A      6.2181 eV  199.39 nm  f=0.0029  <S**2>=0.000
      13 -> 16         0.60802
      13 -> 17         0.22498
      13 -> 19         0.22280

 Excited State   4:      Singlet-A      6.6887 eV  185.36 nm  f=0.0032  <S**2>=0.000
      12 -> 14         0.68225

 Excited State   5:      Singlet-A      7.0385 eV  176.15 nm  f=0.0013  <S**2>=0.000
      12 -> 14        -0.14420
      13 -> 16        -0.25882
      13 -> 17         0.25931
      13 -> 18        -0.20775
      13 -> 19         0.41250
      13 -> 20         0.16327
      13 -> 21        -0.29619

 Excited State   6:      Singlet-A      7.3917 eV  167.73 nm  f=0.0108  <S**2>=0.000
      13 -> 15        -0.15719
      13 -> 17         0.59868
      13 -> 19        -0.28312

 Excited State   7:      Singlet-A      8.0066 eV  154.85 nm  f=0.0089  <S**2>=0.000
      13 -> 18         0.64979
      13 -> 19         0.23782

 Excited State   8:      Singlet-A      8.1730 eV  151.70 nm  f=0.0039  <S**2>=0.000
      10 -> 14        -0.17001
      13 -> 16        -0.12494
      13 -> 18        -0.10912
      13 -> 19         0.28441
      13 -> 20        -0.17143
      13 -> 21         0.56461

 Excited State   9:      Singlet-A      8.2030 eV  151.15 nm  f=0.0014  <S**2>=0.000
      10 -> 14         0.64337
      13 -> 20        -0.24070

 Excited State  10:      Singlet-A      8.5848 eV  144.42 nm  f=0.0641  <S**2>=0.000
      10 -> 14        -0.16469
      11 -> 14         0.52705
      12 -> 15         0.11127
      13 -> 20        -0.33992
      13 -> 21        -0.14867
      13 -> 22        -0.14012

 Excited State  11:      Singlet-A      8.6137 eV  143.94 nm  f=0.0767  <S**2>=0.000
      10 -> 14         0.13591
      11 -> 14         0.36020
      13 -> 20         0.50270
      13 -> 21         0.22668
      13 -> 22        -0.15195

 Excited State  12:      Singlet-A      9.2100 eV  134.62 nm  f=0.0958  <S**2>=0.000
       8 -> 15         0.11856
      10 -> 17        -0.18692
      12 -> 15         0.33787
      12 -> 16        -0.32722
      12 -> 17        -0.18194
      12 -> 19        -0.32084
      12 -> 21         0.14935

 Excited State  13:      Singlet-A      9.6430 eV  128.57 nm  f=0.1627  <S**2>=0.000
      11 -> 14         0.24032
      12 -> 15        -0.22509
      13 -> 22         0.59538

 Excited State  14:      Singlet-A      9.7086 eV  127.71 nm  f=0.0117  <S**2>=0.000
      10 -> 15         0.13463
      10 -> 18        -0.10522
      12 -> 15         0.45466
      12 -> 16         0.25462
      12 -> 18        -0.15407
      12 -> 19         0.11533
      12 -> 21        -0.12201
      13 -> 22         0.28024

 Excited State  15:      Singlet-A      9.8708 eV  125.61 nm  f=0.3796  <S**2>=0.000
       8 -> 16         0.10312
      10 -> 15         0.10208
      10 -> 17         0.19613
      11 -> 15        -0.12587
      12 -> 15         0.15651
      12 -> 16        -0.23064
      12 -> 17         0.37210
      12 -> 18         0.33202
      12 -> 20         0.11727

 The electronic state is 1-A.
 Alpha  occ. eigenvalues --   -1.88722  -1.20047  -0.99405  -0.81378  -0.80196
 Alpha  occ. eigenvalues --   -0.68345  -0.61041  -0.53547  -0.51610  -0.43344
 Alpha  occ. eigenvalues --   -0.41834  -0.38471  -0.25157
 Alpha virt. eigenvalues --    0.13015   0.19156   0.21222   0.26168   0.27854
 Alpha virt. eigenvalues --    0.29219   0.29692   0.30241   0.32144   0.41514
 Alpha virt. eigenvalues --    0.45448

 Mulliken charges:
               1
     1  C   -0.132438
     2  C   -1.896265
     3  O    3.177498
     4  C   -1.887855
     5  C   -0.172319
     6  H    0.170971
     7  H    0.292409
     8  H    0.271901
     9  H    0.176099
 Sum of Mulliken charges =   0.00000

 Dipole moment (field-independent basis, Debye):
    X=              3.7830    Y=            -10.8525    Z=             -0.9810  Tot=             11.5348
 N-N= 1.029506795663D+02 E-N=-1.676883122867D+02  KE=-1.564245427978D+01
 Orbital energies and kinetic energies (alpha):
                                 1                 2
   1         O                -1.887216         -1.314844
   2         O                -1.200465         -1.088664
   3         O                -0.994048         -0.931703
   4         O                -0.813776         -0.709415
   5         O                -0.801957         -0.634728
   6         O                -0.683454         -0.572318
   7         O                -0.610409         -0.502470

 Normal termination of Gaussian 09 at Tue Dec 15 17:07:01 2015.
