 Gaussian 09, Revision D.01,
 Gaussian 09:  ES64L-G09RevD.01 24-Apr-2013

 ------------------------------------------------------------
 #P AM1(Input,print) CIS(Singlets,NStates=15) pop(full) force
 ------------------------------------------------------------

 -----------------
 AM1-Reparam Input
 -----------------
 Symbolic Z-matrix:
 Charge =  0 Multiplicity = 1

                         Standard orientation:
 ---------------------------------------------------------------------
 Center     Atomic      Atomic             Coordinates (Angstroms)
 Number     Number       Type             X           Y           Z
 ---------------------------------------------------------------------
      1          6           0       -0.970438    0.756641   -0.000216
      2          6           0       -0.964119   -0.659446    0.018662
      3          8           0        0.356775   -1.098251   -0.032885
      4          6           0        1.120594   -0.024233    0.048534
      5          6           0        0.427731    1.087000   -0.030332
      6          1           0        0.845592    2.120693   -0.014245
      7          1           0        2.155566   -0.269430    0.017029
      8          1           0       -1.711403   -1.383731    0.010699
      9          1           0       -1.826562    1.358707    0.029712
 ---------------------------------------------------------------------

 SCF Done:  E(RAM1) =   1.84591955546     A.U. after   14 cycles

 Excitation energies and oscillator strengths:

 Excited State   1:      Singlet-A      5.6459 eV  219.60 nm  f=0.3268  <S**2>=0.000
      13 -> 14         0.69027
 This state for optimization and/or second-order correction.
 Total Energy, E(CIS) =   2.05340293393
 Copying the excited state density for this state as the 1-particle RhoCI density.

 Excited State   2:      Singlet-A      6.2802 eV  197.42 nm  f=0.0009  <S**2>=0.000
      10 -> 15         0.12271
      13 -> 15         0.67562

 Excited State   3:      Singlet-A      6.7305 eV  184.21 nm  f=0.0008  <S**2>=0.000
      12 -> 14         0.69766

 Excited State   4:      Singlet-A      6.9168 eV  179.25 nm  f=0.0039  <S**2>=0.000
      10 -> 16        -0.10888
      13 -> 16         0.65018
      13 -> 17        -0.17238
      13 -> 19         0.13914

 Excited State   5:      Singlet-A      7.7688 eV  159.59 nm  f=0.0065  <S**2>=0.000
      11 -> 14         0.69101

 Excited State   6:      Singlet-A      8.2043 eV  151.12 nm  f=0.0025  <S**2>=0.000
      10 -> 16        -0.13545
      13 -> 16         0.14657
      13 -> 17         0.56960
      13 -> 18        -0.27685
      13 -> 21        -0.20552

 Excited State   7:      Singlet-A      8.2872 eV  149.61 nm  f=0.0081  <S**2>=0.000
      10 -> 15         0.10419
      13 -> 15         0.11535
      13 -> 17         0.31377
      13 -> 18         0.53610
      13 -> 19         0.14976
      13 -> 21         0.24120

 Excited State   8:      Singlet-A      8.7854 eV  141.13 nm  f=0.0224  <S**2>=0.000
       8 -> 15         0.13432
      10 -> 14         0.46855
      12 -> 15         0.44183
      12 -> 18        -0.12947

 Excited State   9:      Singlet-A      9.0195 eV  137.46 nm  f=0.1278  <S**2>=0.000
      10 -> 14         0.46999
      11 -> 17        -0.11657
      12 -> 15        -0.35031
      12 -> 16         0.20398
      12 -> 18         0.17668

 Excited State  10:      Singlet-A      9.0615 eV  136.83 nm  f=0.0073  <S**2>=0.000
      10 -> 16         0.13717
      13 -> 16        -0.11155
      13 -> 18        -0.15727
      13 -> 19         0.64511

 Excited State  11:      Singlet-A      9.1955 eV  134.83 nm  f=0.0568  <S**2>=0.000
       9 -> 15         0.18170
      11 -> 15         0.30891
      11 -> 16         0.10604
      11 -> 17        -0.18371
      11 -> 18        -0.11595
      12 -> 15         0.34862
      12 -> 16         0.23270
      12 -> 17        -0.25147
      12 -> 18         0.14361

 Excited State  12:      Singlet-A      9.6290 eV  128.76 nm  f=0.0051  <S**2>=0.000
      10 -> 15         0.17786
      13 -> 18        -0.30276
      13 -> 20         0.15769
      13 -> 21         0.55927

 Excited State  13:      Singlet-A      9.7922 eV  126.62 nm  f=0.0279  <S**2>=0.000
      10 -> 15         0.55789
      13 -> 15        -0.10689
      13 -> 20        -0.32771
      13 -> 21        -0.11987

 Excited State  14:      Singlet-A      9.9319 eV  124.83 nm  f=0.0718  <S**2>=0.000
      10 -> 15         0.15988
      11 -> 15        -0.15482
      12 -> 16         0.12341
      13 -> 20         0.54213
      13 -> 21        -0.21570

 Excited State  15:      Singlet-A      9.9941 eV  124.06 nm  f=0.0646  <S**2>=0.000
       8 -> 15         0.11257
       8 -> 16        -0.15818
       9 -> 15        -0.13255
       9 -> 16        -0.10817
      10 -> 14        -0.13665
      10 -> 15        -0.23535
      11 -> 15        -0.17530
      11 -> 16         0.13492
      11 -> 18        -0.11056
      11 -> 19         0.17460
      12 -> 16         0.30314
      12 -> 17         0.21434
      12 -> 19         0.14483
      13 -> 20        -0.20267
      13 -> 21         0.10970

 The electronic state is 1-A.
 Alpha  occ. eigenvalues --   -1.94954  -1.21316  -0.98806  -0.81683  -0.80176
 Alpha  occ. eigenvalues --   -0.69236  -0.67099  -0.52086  -0.49746  -0.42123
 Alpha  occ. eigenvalues --   -0.41476  -0.38092  -0.27917
 Alpha virt. eigenvalues --    0.13640   0.17554   0.21360   0.26431   0.28600
 Alpha virt. eigenvalues --    0.30428   0.32329   0.34577   0.36338   0.45121
 Alpha virt. eigenvalues --    0.49658

 Mulliken charges:
               1
     1  C   -0.084929
     2  C   -1.937938
     3  O    3.128407
     4  C   -1.899343
     5  C   -0.110612
     6  H    0.152316
     7  H    0.298257
     8  H    0.298861
     9  H    0.154981
 Sum of Mulliken charges =   0.00000

 Dipole moment (field-independent basis, Debye):
    X=              3.8287    Y=             -9.6058    Z=             -0.9161  Tot=             10.3812
 N-N= 1.042643980564D+02 E-N=-1.698642779969D+02  KE=-1.567848240845D+01
 Orbital energies and kinetic energies (alpha):
                                 1                 2
   1         O                -1.949538         -1.421059
   2         O                -1.213157         -1.078366
   3         O                -0.988057         -0.903916
   4         O                -0.816835         -0.634467
   5         O                -0.801757         -0.691012
   6         O                -0.692364         -0.571369
   7         O                -0.670995         -0.580310

 Normal termination of Gaussian 09 at Tue Dec 15 17:09:55 2015.
