 Gaussian 09, Revision D.01,
 Gaussian 09:  ES64L-G09RevD.01 24-Apr-2013

 ------------------------------------------------------------
 #P AM1(Input,print) CIS(Singlets,NStates=15) pop(full) force
 ------------------------------------------------------------

 -----------------
 AM1-Reparam Input
 -----------------
 Symbolic Z-matrix:
 Charge =  0 Multiplicity = 1

                         Standard orientation:
 ---------------------------------------------------------------------
 Center     Atomic      Atomic             Coordinates (Angstroms)
 Number     Number       Type             X           Y           Z
 ---------------------------------------------------------------------
      1          6           0       -1.157311    0.290330   -0.028214
      2          6           0       -0.572330   -0.964085    0.039219
      3          8           0        0.763191   -0.880420   -0.007601
      4          6           0        1.032317    0.418708   -0.009386
      5          6           0       -0.081540    1.193798    0.014300
      6          1           0       -0.168388    2.210029    0.033333
      7          1           0        2.082468    0.696339   -0.010745
      8          1           0       -1.054420   -1.966954   -0.042835
      9          1           0       -2.292005    0.471443   -0.014456
 ---------------------------------------------------------------------

 SCF Done:  E(RAM1) =   1.83203919403     A.U. after   14 cycles

 Excitation energies and oscillator strengths:

 Excited State   1:      Singlet-A      5.8462 eV  212.08 nm  f=0.3141  <S**2>=0.000
      11 -> 17         0.10901
      13 -> 14         0.68753
 This state for optimization and/or second-order correction.
 Total Energy, E(CIS) =   2.04688155945
 Copying the excited state density for this state as the 1-particle RhoCI density.

 Excited State   2:      Singlet-A      6.6417 eV  186.68 nm  f=0.0029  <S**2>=0.000
      10 -> 15         0.12407
      13 -> 15         0.62504
      13 -> 16         0.22754
      13 -> 17        -0.16171

 Excited State   3:      Singlet-A      6.7243 eV  184.38 nm  f=0.0008  <S**2>=0.000
      10 -> 16        -0.13075
      13 -> 15        -0.23331
      13 -> 16         0.62053
      13 -> 18        -0.13065
      13 -> 19         0.11159

 Excited State   4:      Singlet-A      6.8714 eV  180.43 nm  f=0.0005  <S**2>=0.000
      12 -> 14         0.69762

 Excited State   5:      Singlet-A      7.7304 eV  160.39 nm  f=0.0080  <S**2>=0.000
      11 -> 14         0.69189

 Excited State   6:      Singlet-A      8.2915 eV  149.53 nm  f=0.0103  <S**2>=0.000
      10 -> 15         0.11312
      13 -> 15         0.11158
      13 -> 17         0.65130

 Excited State   7:      Singlet-A      8.4151 eV  147.34 nm  f=0.0030  <S**2>=0.000
      10 -> 16        -0.13884
      13 -> 16         0.11954
      13 -> 17         0.11894
      13 -> 18         0.59921
      13 -> 19        -0.10425
      13 -> 21         0.25425

 Excited State   8:      Singlet-A      8.8979 eV  139.34 nm  f=0.0600  <S**2>=0.000
       8 -> 15         0.11395
      10 -> 14         0.59544
      11 -> 18        -0.10211
      12 -> 15         0.24398
      12 -> 18         0.12148

 Excited State   9:      Singlet-A      8.9541 eV  138.47 nm  f=0.0150  <S**2>=0.000
       8 -> 16        -0.14936
      10 -> 14         0.27458
      11 -> 15        -0.14213
      11 -> 16        -0.19845
      11 -> 17         0.22614
      12 -> 15        -0.23076
      12 -> 16         0.32190
      12 -> 17         0.12658
      12 -> 18        -0.22953

 Excited State  10:      Singlet-A      9.1209 eV  135.93 nm  f=0.0055  <S**2>=0.000
      10 -> 15         0.11397
      13 -> 18         0.14035
      13 -> 19         0.65912

 Excited State  11:      Singlet-A      9.5082 eV  130.40 nm  f=0.0927  <S**2>=0.000
      10 -> 14        -0.14233
      11 -> 15        -0.29551
      11 -> 17         0.14432
      12 -> 15         0.51670
      12 -> 16         0.15885
      12 -> 18        -0.10436

 Excited State  12:      Singlet-A      9.5388 eV  129.98 nm  f=0.1338  <S**2>=0.000
       9 -> 16        -0.13964
      11 -> 16         0.39595
      11 -> 17        -0.13631
      12 -> 16         0.47356
      12 -> 17        -0.17678

 Excited State  13:      Singlet-A      9.7165 eV  127.60 nm  f=0.0330  <S**2>=0.000
      10 -> 15         0.29902
      13 -> 18         0.24592
      13 -> 20         0.39038
      13 -> 21        -0.37280

 Excited State  14:      Singlet-A      9.8067 eV  126.43 nm  f=0.0426  <S**2>=0.000
       8 -> 15         0.13833
       8 -> 16        -0.12811
       9 -> 15         0.21647
      10 -> 14        -0.14363
      10 -> 16        -0.17390
      11 -> 15         0.35340
      11 -> 16        -0.17813
      11 -> 19        -0.22199
      12 -> 16         0.19238
      12 -> 17         0.20979

 Excited State  15:      Singlet-A      9.8522 eV  125.84 nm  f=0.0334  <S**2>=0.000
      10 -> 15         0.21796
      10 -> 16         0.50475
      12 -> 16         0.10871
      13 -> 16         0.11417
      13 -> 19        -0.10064
      13 -> 20        -0.28612

 The electronic state is 1-A.
 Alpha  occ. eigenvalues --   -1.94943  -1.22262  -0.97276  -0.81436  -0.79434
 Alpha  occ. eigenvalues --   -0.69483  -0.66501  -0.51094  -0.49146  -0.41609
 Alpha  occ. eigenvalues --   -0.40801  -0.38183  -0.28415
 Alpha virt. eigenvalues --    0.14361   0.18840   0.19051   0.26278   0.28468
 Alpha virt. eigenvalues --    0.30589   0.32403   0.35658   0.38335   0.47252
 Alpha virt. eigenvalues --    0.51570

 Mulliken charges:
               1
     1  C   -0.077068
     2  C   -1.948075
     3  O    3.125230
     4  C   -1.933562
     5  C   -0.084497
     6  H    0.150158
     7  H    0.309235
     8  H    0.313854
     9  H    0.144723
 Sum of Mulliken charges =   0.00000

 Dipole moment (field-independent basis, Debye):
    X=              6.5815    Y=             -7.6528    Z=             -0.4398  Tot=             10.1032
 N-N= 1.044582864302D+02 E-N=-1.703541618915D+02  KE=-1.568670552789D+01
 Orbital energies and kinetic energies (alpha):
                                 1                 2
   1         O                -1.949428         -1.437223
   2         O                -1.222617         -1.095043
   3         O                -0.972757         -0.902154
   4         O                -0.814363         -0.638006
   5         O                -0.794337         -0.665104
   6         O                -0.694825         -0.578511
   7         O                -0.665010         -0.584590

 Normal termination of Gaussian 09 at Tue Dec 15 17:09:51 2015.
