 Gaussian 09, Revision D.01,
 Gaussian 09:  ES64L-G09RevD.01 24-Apr-2013

 ------------------------------------------------------------
 #P AM1(Input,print) CIS(Singlets,NStates=15) pop(full) force
 ------------------------------------------------------------

 -----------------
 AM1-Reparam Input
 -----------------
 Symbolic Z-matrix:
 Charge =  0 Multiplicity = 1

                         Standard orientation:
 ---------------------------------------------------------------------
 Center     Atomic      Atomic             Coordinates (Angstroms)
 Number     Number       Type             X           Y           Z
 ---------------------------------------------------------------------
      1          6           0        0.961004    0.714901    0.003316
      2          6           0        0.937369   -0.618462   -0.000946
      3          8           0       -0.343133   -1.143220   -0.015483
      4          6           0       -1.091747   -0.002208    0.030209
      5          6           0       -0.447050    1.116828   -0.006390
      6          1           0       -0.799831    2.085926   -0.007749
      7          1           0       -2.187945   -0.289368   -0.041894
      8          1           0        1.755621   -1.305255    0.050051
      9          1           0        1.819766    1.388099   -0.033679
 ---------------------------------------------------------------------

 SCF Done:  E(RAM1) =   2.17554345522     A.U. after   13 cycles

 Excitation energies and oscillator strengths:

 Excited State   1:      Singlet-A      5.2805 eV  234.79 nm  f=0.3515  <S**2>=0.000
      13 -> 14         0.69693
 This state for optimization and/or second-order correction.
 Total Energy, E(CIS) =   2.36959997513
 Copying the excited state density for this state as the 1-particle RhoCI density.

 Excited State   2:      Singlet-A      5.5446 eV  223.61 nm  f=0.0007  <S**2>=0.000
      13 -> 15         0.68726

 Excited State   3:      Singlet-A      6.2801 eV  197.42 nm  f=0.0009  <S**2>=0.000
      11 -> 16        -0.10039
      13 -> 16         0.67586
      13 -> 18        -0.11550

 Excited State   4:      Singlet-A      7.0348 eV  176.24 nm  f=0.0000  <S**2>=0.000
      12 -> 14         0.70159

 Excited State   5:      Singlet-A      7.7959 eV  159.04 nm  f=0.0013  <S**2>=0.000
      13 -> 17        -0.36566
      13 -> 18         0.48342
      13 -> 19        -0.17079
      13 -> 20         0.12221
      13 -> 22         0.25482

 Excited State   6:      Singlet-A      8.1527 eV  152.08 nm  f=0.0119  <S**2>=0.000
      10 -> 14         0.31529
      11 -> 14        -0.11849
      13 -> 16         0.10472
      13 -> 17         0.49720
      13 -> 18         0.32893

 Excited State   7:      Singlet-A      8.3814 eV  147.93 nm  f=0.0002  <S**2>=0.000
      10 -> 14         0.57667
      11 -> 14        -0.20870
      13 -> 17        -0.28783
      13 -> 18        -0.15883

 Excited State   8:      Singlet-A      8.8226 eV  140.53 nm  f=0.0621  <S**2>=0.000
       9 -> 15         0.16625
      10 -> 14         0.17675
      11 -> 14         0.43867
      12 -> 15         0.41915
      13 -> 19         0.16735
      13 -> 20         0.13180

 Excited State   9:      Singlet-A      8.8518 eV  140.07 nm  f=0.0032  <S**2>=0.000
      13 -> 17        -0.11091
      13 -> 18         0.19802
      13 -> 19         0.53076
      13 -> 20        -0.37991

 Excited State  10:      Singlet-A      9.0995 eV  136.25 nm  f=0.1492  <S**2>=0.000
       9 -> 15         0.10995
       9 -> 16         0.11296
      10 -> 14        -0.11772
      11 -> 14        -0.34593
      12 -> 15         0.44286
      12 -> 16        -0.21646
      12 -> 18         0.10310
      13 -> 19        -0.11776
      13 -> 20        -0.20403

 Excited State  11:      Singlet-A      9.5031 eV  130.47 nm  f=0.0122  <S**2>=0.000
      11 -> 15        -0.11499
      13 -> 18        -0.25358
      13 -> 21        -0.31914
      13 -> 22         0.54735

 Excited State  12:      Singlet-A      9.7145 eV  127.63 nm  f=0.0631  <S**2>=0.000
      11 -> 15         0.39750
      13 -> 19         0.10425
      13 -> 20         0.12619
      13 -> 21         0.41073
      13 -> 22         0.31169

 Excited State  13:      Singlet-A      9.7571 eV  127.07 nm  f=0.0458  <S**2>=0.000
      10 -> 15         0.21068
      11 -> 14         0.15461
      11 -> 15         0.37285
      12 -> 16         0.16477
      13 -> 19        -0.28164
      13 -> 20        -0.31859
      13 -> 21        -0.18402

 Excited State  14:      Singlet-A      9.7867 eV  126.69 nm  f=0.0164  <S**2>=0.000
      10 -> 17        -0.10599
      11 -> 15        -0.32621
      12 -> 15         0.11814
      12 -> 16         0.29266
      12 -> 18        -0.14192
      13 -> 19        -0.10263
      13 -> 20        -0.23397
      13 -> 21         0.36007
      13 -> 22         0.12579

 Excited State  15:      Singlet-A      9.8592 eV  125.76 nm  f=0.1802  <S**2>=0.000
      10 -> 15         0.13907
      11 -> 14        -0.28404
      12 -> 15         0.18731
      12 -> 16         0.36321
      12 -> 18        -0.16244
      13 -> 19         0.16605
      13 -> 20         0.29407
      13 -> 21        -0.17246

 The electronic state is 1-A.
 Alpha  occ. eigenvalues --   -1.93400  -1.20069  -0.93183  -0.80356  -0.77941
 Alpha  occ. eigenvalues --   -0.69486  -0.65849  -0.53303  -0.52062  -0.44088
 Alpha  occ. eigenvalues --   -0.43661  -0.39764  -0.26619
 Alpha virt. eigenvalues --    0.13071   0.15913   0.19278   0.27927   0.29082
 Alpha virt. eigenvalues --    0.31128   0.31279   0.32981   0.34579   0.40432
 Alpha virt. eigenvalues --    0.43051

 Mulliken charges:
               1
     1  C   -0.151645
     2  C   -1.858100
     3  O    3.179605
     4  C   -1.811067
     5  C   -0.160211
     6  H    0.148432
     7  H    0.240483
     8  H    0.264129
     9  H    0.148374
 Sum of Mulliken charges =   0.00000

 Dipole moment (field-independent basis, Debye):
    X=             -3.6180    Y=            -11.3215    Z=             -0.4523  Tot=             11.8942
 N-N= 1.042935892247D+02 E-N=-1.696937224854D+02  KE=-1.534675356262D+01
 Orbital energies and kinetic energies (alpha):
                                 1                 2
   1         O                -1.934003         -1.353095
   2         O                -1.200686         -1.072247
   3         O                -0.931828         -0.896762
   4         O                -0.803562         -0.572422
   5         O                -0.779409         -0.666252
   6         O                -0.694857         -0.587007
   7         O                -0.658492         -0.534377

 Normal termination of Gaussian 09 at Tue Dec 15 17:09:20 2015.
