 Gaussian 09, Revision D.01,
 Gaussian 09:  ES64L-G09RevD.01 24-Apr-2013

 ------------------------------------------------------------
 #P AM1(Input,print) CIS(Singlets,NStates=15) pop(full) force
 ------------------------------------------------------------

 -----------------
 AM1-Reparam Input
 -----------------
 Symbolic Z-matrix:
 Charge =  0 Multiplicity = 1

                         Standard orientation:
 ---------------------------------------------------------------------
 Center     Atomic      Atomic             Coordinates (Angstroms)
 Number     Number       Type             X           Y           Z
 ---------------------------------------------------------------------
      1          6           0       -0.604638    1.068931   -0.015413
      2          6           0       -1.152340   -0.264023    0.032375
      3          8           0       -0.149541   -1.118586   -0.035039
      4          6           0        1.069541   -0.492961    0.036707
      5          6           0        0.853211    0.849429   -0.018215
      6          1           0        1.528250    1.653489    0.034645
      7          1           0        1.939498   -1.071980    0.000474
      8          1           0       -2.163899   -0.586992    0.032373
      9          1           0       -1.102162    1.985913    0.000107
 ---------------------------------------------------------------------

 SCF Done:  E(RAM1) =   1.76563707906     A.U. after   14 cycles

 Excitation energies and oscillator strengths:

 Excited State   1:      Singlet-A      5.3884 eV  230.09 nm  f=0.3837  <S**2>=0.000
      13 -> 14         0.69509
 This state for optimization and/or second-order correction.
 Total Energy, E(CIS) =   1.96365798040
 Copying the excited state density for this state as the 1-particle RhoCI density.

 Excited State   2:      Singlet-A      6.7713 eV  183.10 nm  f=0.0093  <S**2>=0.000
      13 -> 15         0.67655
      13 -> 17         0.14030

 Excited State   3:      Singlet-A      7.1370 eV  173.72 nm  f=0.0028  <S**2>=0.000
      13 -> 16         0.65211
      13 -> 17        -0.16694
      13 -> 18         0.12482
      13 -> 19         0.11682

 Excited State   4:      Singlet-A      7.2895 eV  170.09 nm  f=0.0007  <S**2>=0.000
      12 -> 14         0.69943

 Excited State   5:      Singlet-A      8.0944 eV  153.17 nm  f=0.0000  <S**2>=0.000
      13 -> 16         0.17989
      13 -> 17         0.56998
      13 -> 18        -0.26687
      13 -> 19         0.11987
      13 -> 21        -0.18831

 Excited State   6:      Singlet-A      8.3989 eV  147.62 nm  f=0.0056  <S**2>=0.000
      10 -> 14         0.69633

 Excited State   7:      Singlet-A      8.8455 eV  140.17 nm  f=0.1236  <S**2>=0.000
      11 -> 14         0.68434

 Excited State   8:      Singlet-A      9.3857 eV  132.10 nm  f=0.0067  <S**2>=0.000
      11 -> 15         0.13134
      11 -> 16        -0.14550
      13 -> 15        -0.10642
      13 -> 17         0.26868
      13 -> 18         0.59397

 Excited State   9:      Singlet-A      9.7959 eV  126.57 nm  f=0.0009  <S**2>=0.000
      11 -> 15        -0.20853
      13 -> 19         0.63681
      13 -> 21         0.11050

 Excited State  10:      Singlet-A      9.8744 eV  125.56 nm  f=0.0255  <S**2>=0.000
       9 -> 16        -0.11728
      10 -> 15        -0.21297
      10 -> 16        -0.14764
      10 -> 18        -0.19213
      12 -> 15         0.26324
      12 -> 16        -0.24874
      12 -> 17         0.39751
      12 -> 18        -0.12922

 Excited State  11:      Singlet-A     10.3633 eV  119.64 nm  f=0.0085  <S**2>=0.000
      13 -> 17         0.16754
      13 -> 20         0.30376
      13 -> 21         0.58260

 Excited State  12:      Singlet-A     10.4061 eV  119.15 nm  f=0.0020  <S**2>=0.000
      10 -> 15         0.22669
      10 -> 16        -0.13513
      11 -> 15        -0.21645
      12 -> 15         0.49619
      12 -> 16         0.25429
      12 -> 18         0.13146
      13 -> 21         0.11178

 Excited State  13:      Singlet-A     10.4420 eV  118.74 nm  f=0.0077  <S**2>=0.000
      11 -> 15         0.55502
      12 -> 15         0.17705
      12 -> 16         0.17388
      13 -> 16        -0.10948
      13 -> 17        -0.11580
      13 -> 19         0.16303
      13 -> 20         0.15824

 Excited State  14:      Singlet-A     10.5869 eV  117.11 nm  f=0.1927  <S**2>=0.000
      10 -> 15        -0.27888
      11 -> 16         0.12851
      12 -> 15        -0.12201
      12 -> 16         0.41130
      12 -> 19         0.11903
      13 -> 20        -0.36882
      13 -> 21         0.17431

 Excited State  15:      Singlet-A     10.6264 eV  116.68 nm  f=0.1541  <S**2>=0.000
      10 -> 15        -0.22801
      11 -> 15        -0.16612
      11 -> 16        -0.14700
      12 -> 16         0.30869
      13 -> 20         0.43956
      13 -> 21        -0.22751

 The electronic state is 1-A.
 Alpha  occ. eigenvalues --   -1.99941  -1.24892  -1.00755  -0.90079  -0.85384
 Alpha  occ. eigenvalues --   -0.77256  -0.74166  -0.65920  -0.61996  -0.54744
 Alpha  occ. eigenvalues --   -0.53015  -0.51083  -0.38180
 Alpha virt. eigenvalues --    0.02091   0.10517   0.12040   0.18521   0.19550
 Alpha virt. eigenvalues --    0.21705   0.24193   0.24980   0.30170   0.37330
 Alpha virt. eigenvalues --    0.44044

 Mulliken charges:
               1
     1  C   -0.148923
     2  C   -1.942562
     3  O    3.185681
     4  C   -1.897092
     5  C   -0.077536
     6  H    0.150000
     7  H    0.282345
     8  H    0.296020
     9  H    0.152065
 Sum of Mulliken charges =   0.00000

 Dipole moment (field-independent basis, Debye):
    X=             -1.1905    Y=             -9.4427    Z=             -0.9504  Tot=              9.5648
 N-N= 1.052456766501D+02 E-N=-1.697769467268D+02  KE=-1.563491911428D+01
 Orbital energies and kinetic energies (alpha):
                                 1                 2
   1         O                -1.999409         -1.382631
   2         O                -1.248923         -1.025272
   3         O                -1.007545         -0.859053
   4         O                -0.900788         -0.603835
   5         O                -0.853835         -0.709473
   6         O                -0.772564         -0.616253
   7         O                -0.741664         -0.532931

 Normal termination of Gaussian 09 at Tue Dec 15 17:08:58 2015.
