 Gaussian 09, Revision D.01,
 Gaussian 09:  ES64L-G09RevD.01 24-Apr-2013

 ------------------------------------------------------------
 #P AM1(Input,print) CIS(Singlets,NStates=15) pop(full) force
 ------------------------------------------------------------

 -----------------
 AM1-Reparam Input
 -----------------
 Symbolic Z-matrix:
 Charge =  0 Multiplicity = 1

                         Standard orientation:
 ---------------------------------------------------------------------
 Center     Atomic      Atomic             Coordinates (Angstroms)
 Number     Number       Type             X           Y           Z
 ---------------------------------------------------------------------
      1          6           0        0.742803    0.936896   -0.010631
      2          6           0        1.121547   -0.390514   -0.001570
      3          8           0       -0.036720   -1.126727   -0.003046
      4          6           0       -1.137069   -0.293390   -0.004775
      5          6           0       -0.695913    0.939560    0.009100
      6          1           0       -1.292563    1.819857   -0.003905
      7          1           0       -2.080019   -0.819037    0.021126
      8          1           0        2.038956   -0.905150    0.038451
      9          1           0        1.439177    1.762834    0.015956
 ---------------------------------------------------------------------

 SCF Done:  E(RAM1) =   1.39955468074     A.U. after   12 cycles

 Excitation energies and oscillator strengths:

 Excited State   1:      Singlet-A      5.8443 eV  212.15 nm  f=0.3175  <S**2>=0.000
      13 -> 14         0.69319
 This state for optimization and/or second-order correction.
 Total Energy, E(CIS) =   1.61432862212
 Copying the excited state density for this state as the 1-particle RhoCI density.

 Excited State   2:      Singlet-A      6.2572 eV  198.15 nm  f=0.0004  <S**2>=0.000
      13 -> 15         0.65564
      13 -> 16         0.10131
      13 -> 17        -0.17554

 Excited State   3:      Singlet-A      6.5783 eV  188.47 nm  f=0.0008  <S**2>=0.000
      13 -> 15        -0.11799
      13 -> 16         0.63336
      13 -> 17        -0.13431
      13 -> 21        -0.10959
      13 -> 22        -0.14839

 Excited State   4:      Singlet-A      7.3826 eV  167.94 nm  f=0.0006  <S**2>=0.000
      11 -> 14         0.55680
      12 -> 14        -0.39777
      13 -> 22         0.11486

 Excited State   5:      Singlet-A      7.5784 eV  163.60 nm  f=0.0084  <S**2>=0.000
      13 -> 15         0.13554
      13 -> 16         0.15319
      13 -> 17         0.65306

 Excited State   6:      Singlet-A      7.8021 eV  158.91 nm  f=0.0009  <S**2>=0.000
      13 -> 19        -0.40797
      13 -> 20        -0.14462
      13 -> 22         0.50816

 Excited State   7:      Singlet-A      8.2915 eV  149.53 nm  f=0.0003  <S**2>=0.000
      10 -> 14        -0.12425
      11 -> 14         0.26728
      12 -> 14         0.36843
      13 -> 18         0.51017

 Excited State   8:      Singlet-A      8.3336 eV  148.78 nm  f=0.0008  <S**2>=0.000
      10 -> 14         0.67957
      13 -> 18         0.10218

 Excited State   9:      Singlet-A      8.6297 eV  143.67 nm  f=0.0001  <S**2>=0.000
      12 -> 15        -0.11075
      13 -> 19         0.37982
      13 -> 20         0.16124
      13 -> 21         0.41497
      13 -> 22         0.34200

 Excited State  10:      Singlet-A      8.7573 eV  141.58 nm  f=0.0045  <S**2>=0.000
      13 -> 16        -0.10371
      13 -> 19         0.41291
      13 -> 20        -0.35667
      13 -> 21        -0.37680
      13 -> 22         0.18692

 Excited State  11:      Singlet-A      8.9937 eV  137.86 nm  f=0.0567  <S**2>=0.000
      11 -> 16        -0.10154
      12 -> 16        -0.16585
      13 -> 20         0.51120
      13 -> 21        -0.38244
      13 -> 22         0.13819
      13 -> 23        -0.12625

 Excited State  12:      Singlet-A      9.1203 eV  135.94 nm  f=0.2056  <S**2>=0.000
      11 -> 14        -0.29031
      12 -> 14        -0.40758
      13 -> 18         0.45493

 Excited State  13:      Singlet-A      9.4165 eV  131.67 nm  f=0.0002  <S**2>=0.000
      11 -> 15         0.32713
      11 -> 16         0.11590
      12 -> 15         0.47999
      12 -> 16         0.20331
      12 -> 17        -0.11220
      13 -> 16         0.16694
      13 -> 22         0.15620

 Excited State  14:      Singlet-A      9.7010 eV  127.81 nm  f=0.1421  <S**2>=0.000
       8 -> 15        -0.17652
      10 -> 17         0.13240
      11 -> 15         0.41772
      11 -> 16        -0.20482
      11 -> 19        -0.13538
      12 -> 14         0.12502
      12 -> 15        -0.31487
      12 -> 16         0.17640

 Excited State  15:      Singlet-A      9.8208 eV  126.25 nm  f=0.0034  <S**2>=0.000
       7 -> 15         0.10669
      11 -> 15        -0.19098
      11 -> 16         0.29144
      12 -> 15        -0.16110
      12 -> 16         0.47090
      13 -> 15         0.13210
      13 -> 20         0.19474
      13 -> 23         0.17318

 The electronic state is 1-A.
 Alpha  occ. eigenvalues --   -1.89219  -1.18706  -0.97024  -0.79094  -0.77645
 Alpha  occ. eigenvalues --   -0.67723  -0.61982  -0.51638  -0.48289  -0.40663
 Alpha  occ. eigenvalues --   -0.37926  -0.37784  -0.24662
 Alpha virt. eigenvalues --    0.16983   0.21319   0.22892   0.28228   0.29307
 Alpha virt. eigenvalues --    0.30855   0.32756   0.33630   0.34377   0.39612
 Alpha virt. eigenvalues --    0.45472

 Mulliken charges:
               1
     1  C   -0.101765
     2  C   -1.568158
     3  O    2.797668
     4  C   -1.525743
     5  C   -0.061543
     6  H    0.068056
     7  H    0.152310
     8  H    0.166579
     9  H    0.072596
 Sum of Mulliken charges =   0.00000

 Dipole moment (field-independent basis, Debye):
    X=             -0.5109    Y=             -9.4180    Z=              0.1036  Tot=              9.4324
 N-N= 1.036063606547D+02 E-N=-1.699011179456D+02  KE=-1.586536522885D+01
 Orbital energies and kinetic energies (alpha):
                                 1                 2
   1         O                -1.892192         -1.379173
   2         O                -1.187061         -1.063351
   3         O                -0.970241         -0.884563
   4         O                -0.790939         -0.636615
   5         O                -0.776449         -0.708304
   6         O                -0.677229         -0.622535
   7         O                -0.619825         -0.542323

 Normal termination of Gaussian 09 at Tue Dec 15 17:07:59 2015.
