 Gaussian 09, Revision D.01,
 Gaussian 09:  ES64L-G09RevD.01 24-Apr-2013

 ------------------------------------------------------------
 #P AM1(Input,print) CIS(Singlets,NStates=15) pop(full) force
 ------------------------------------------------------------

 -----------------
 AM1-Reparam Input
 -----------------
 Symbolic Z-matrix:
 Charge =  0 Multiplicity = 1

                         Standard orientation:
 ---------------------------------------------------------------------
 Center     Atomic      Atomic             Coordinates (Angstroms)
 Number     Number       Type             X           Y           Z
 ---------------------------------------------------------------------
      1          6           0       -1.151780    0.428735   -0.051436
      2          6           0       -0.731541   -0.889562    0.041920
      3          8           0        0.676392   -0.968070   -0.012975
      4          6           0        1.099382    0.333947   -0.022468
      5          6           0        0.067705    1.137959    0.042047
      6          1           0        0.142793    2.267538    0.026043
      7          1           0        2.179964    0.367783    0.010261
      8          1           0       -1.272615   -1.756239    0.021526
      9          1           0       -2.163874    0.799003   -0.014409
 ---------------------------------------------------------------------

 SCF Done:  E(RAM1) =   1.86652929686     A.U. after   14 cycles

 Excitation energies and oscillator strengths:

 Excited State   1:      Singlet-A      5.6370 eV  219.95 nm  f=0.3062  <S**2>=0.000
      13 -> 14         0.68632
 This state for optimization and/or second-order correction.
 Total Energy, E(CIS) =   2.07368448559
 Copying the excited state density for this state as the 1-particle RhoCI density.

 Excited State   2:      Singlet-A      6.3065 eV  196.60 nm  f=0.0002  <S**2>=0.000
      10 -> 15         0.12498
      13 -> 15         0.67517

 Excited State   3:      Singlet-A      6.5990 eV  187.88 nm  f=0.0069  <S**2>=0.000
      12 -> 14         0.68543
      13 -> 16        -0.12074

 Excited State   4:      Singlet-A      6.7595 eV  183.42 nm  f=0.0034  <S**2>=0.000
      10 -> 16        -0.10851
      12 -> 14         0.12882
      13 -> 16         0.65156
      13 -> 17        -0.14737
      13 -> 19         0.12874

 Excited State   5:      Singlet-A      7.8492 eV  157.96 nm  f=0.0082  <S**2>=0.000
      11 -> 14         0.64983
      13 -> 17         0.22517

 Excited State   6:      Singlet-A      8.0659 eV  153.71 nm  f=0.0060  <S**2>=0.000
      10 -> 16        -0.11156
      11 -> 14        -0.21806
      13 -> 16         0.11630
      13 -> 17         0.57911
      13 -> 18        -0.23028
      13 -> 22        -0.16340

 Excited State   7:      Singlet-A      8.2602 eV  150.10 nm  f=0.0062  <S**2>=0.000
      13 -> 15         0.10421
      13 -> 17         0.24461
      13 -> 18         0.57260
      13 -> 19         0.14669
      13 -> 22         0.23240

 Excited State   8:      Singlet-A      8.7030 eV  142.46 nm  f=0.0247  <S**2>=0.000
       8 -> 15        -0.13241
      10 -> 14         0.24222
      12 -> 15         0.54833
      12 -> 16        -0.15705
      12 -> 17         0.11482
      12 -> 18        -0.17379

 Excited State   9:      Singlet-A      8.9988 eV  137.78 nm  f=0.0116  <S**2>=0.000
      10 -> 14        -0.23158
      10 -> 16         0.10619
      13 -> 18        -0.17447
      13 -> 19         0.58600

 Excited State  10:      Singlet-A      9.0066 eV  137.66 nm  f=0.0617  <S**2>=0.000
      10 -> 14         0.34813
      11 -> 15         0.15197
      11 -> 17        -0.14814
      11 -> 18        -0.16335
      12 -> 15         0.11984
      12 -> 16         0.34879
      12 -> 17        -0.15061
      12 -> 18         0.14881
      13 -> 19         0.20973
      13 -> 21         0.10602

 Excited State  11:      Singlet-A      9.0706 eV  136.69 nm  f=0.0905  <S**2>=0.000
       9 -> 15         0.11361
      10 -> 14         0.40942
      11 -> 15        -0.17289
      12 -> 15        -0.35060
      12 -> 17         0.27033
      13 -> 19         0.16418

 Excited State  12:      Singlet-A      9.6460 eV  128.53 nm  f=0.0109  <S**2>=0.000
      10 -> 15         0.13458
      13 -> 18        -0.24509
      13 -> 19        -0.12198
      13 -> 20        -0.17982
      13 -> 22         0.57627

 Excited State  13:      Singlet-A      9.7073 eV  127.72 nm  f=0.1569  <S**2>=0.000
       8 -> 16         0.12428
       9 -> 16         0.13498
      10 -> 14        -0.19517
      10 -> 15         0.17978
      11 -> 15        -0.11389
      12 -> 16         0.37217
      12 -> 17         0.26086
      12 -> 18        -0.18747
      12 -> 19         0.15420
      12 -> 20        -0.11200
      13 -> 20         0.20116

 Excited State  14:      Singlet-A      9.7820 eV  126.75 nm  f=0.1084  <S**2>=0.000
      10 -> 14         0.10302
      10 -> 15         0.26012
      12 -> 16        -0.11710
      12 -> 17        -0.16648
      13 -> 20         0.56787

 Excited State  15:      Singlet-A      9.9346 eV  124.80 nm  f=0.0199  <S**2>=0.000
      10 -> 15         0.50193
      11 -> 15        -0.23075
      12 -> 18         0.12141
      13 -> 15        -0.13307
      13 -> 20        -0.24348
      13 -> 22        -0.22960

 The electronic state is 1-A.
 Alpha  occ. eigenvalues --   -1.93501  -1.21790  -0.97937  -0.81284  -0.80113
 Alpha  occ. eigenvalues --   -0.68272  -0.66721  -0.51314  -0.49363  -0.41742
 Alpha  occ. eigenvalues --   -0.40710  -0.36560  -0.27023
 Alpha virt. eigenvalues --    0.14762   0.18302   0.21784   0.26855   0.28863
 Alpha virt. eigenvalues --    0.31362   0.32972   0.34291   0.35834   0.43626
 Alpha virt. eigenvalues --    0.47488

 Mulliken charges:
               1
     1  C   -0.097934
     2  C   -1.931757
     3  O    3.119611
     4  C   -1.871626
     5  C   -0.095997
     6  H    0.144720
     7  H    0.280785
     8  H    0.301461
     9  H    0.150738
 Sum of Mulliken charges =   0.00000

 Dipole moment (field-independent basis, Debye):
    X=              6.4763    Y=             -8.7764    Z=             -0.2703  Tot=             10.9106
 N-N= 1.039957690568D+02 E-N=-1.694823780078D+02  KE=-1.564951109954D+01
 Orbital energies and kinetic energies (alpha):
                                 1                 2
   1         O                -1.935012         -1.393805
   2         O                -1.217903         -1.087397
   3         O                -0.979365         -0.910723
   4         O                -0.812845         -0.684681
   5         O                -0.801127         -0.634476
   6         O                -0.682715         -0.573014
   7         O                -0.667213         -0.581382

 Normal termination of Gaussian 09 at Tue Dec 15 17:09:54 2015.
