 Gaussian 09, Revision D.01,
 Gaussian 09:  ES64L-G09RevD.01 24-Apr-2013

 ------------------------------------------------------------
 #P AM1(Input,print) CIS(Singlets,NStates=15) pop(full) force
 ------------------------------------------------------------

 -----------------
 AM1-Reparam Input
 -----------------
 Symbolic Z-matrix:
 Charge =  0 Multiplicity = 1

                         Standard orientation:
 ---------------------------------------------------------------------
 Center     Atomic      Atomic             Coordinates (Angstroms)
 Number     Number       Type             X           Y           Z
 ---------------------------------------------------------------------
      1          6           0       -1.137190    0.380335    0.010335
      2          6           0       -0.696027   -0.885175   -0.005211
      3          8           0        0.690219   -0.967181    0.003865
      4          6           0        1.061751    0.335255   -0.003555
      5          6           0        0.039693    1.178220   -0.013275
      6          1           0        0.091382    2.257813   -0.001811
      7          1           0        2.232895    0.449551    0.037523
      8          1           0       -1.277352   -1.790679   -0.025039
      9          1           0       -2.178041    0.768954    0.028640
 ---------------------------------------------------------------------

 SCF Done:  E(RAM1) =   1.41194069910     A.U. after   13 cycles

 Excitation energies and oscillator strengths:

 Excited State   1:      Singlet-A      5.6656 eV  218.84 nm  f=0.0022  <S**2>=0.000
      12 -> 15         0.11537
      13 -> 14         0.19598
      13 -> 15         0.65366
 This state for optimization and/or second-order correction.
 Total Energy, E(CIS) =   1.62014930231
 Copying the excited state density for this state as the 1-particle RhoCI density.

 Excited State   2:      Singlet-A      5.9989 eV  206.68 nm  f=0.3028  <S**2>=0.000
      13 -> 14         0.66474
      13 -> 15        -0.19624

 Excited State   3:      Singlet-A      6.4040 eV  193.61 nm  f=0.0004  <S**2>=0.000
      12 -> 16        -0.12316
      13 -> 16         0.66493
      13 -> 17        -0.10047
      13 -> 21         0.12442

 Excited State   4:      Singlet-A      7.4431 eV  166.58 nm  f=0.0003  <S**2>=0.000
      11 -> 14         0.58808
      11 -> 15        -0.12732
      12 -> 14         0.33777
      13 -> 22         0.10236

 Excited State   5:      Singlet-A      7.6118 eV  162.88 nm  f=0.0065  <S**2>=0.000
      13 -> 17         0.67262

 Excited State   6:      Singlet-A      7.9546 eV  155.87 nm  f=0.0002  <S**2>=0.000
      12 -> 15        -0.13108
      13 -> 19         0.49515
      13 -> 21        -0.12443
      13 -> 22        -0.43384

 Excited State   7:      Singlet-A      8.2831 eV  149.68 nm  f=0.0007  <S**2>=0.000
      11 -> 14         0.22922
      11 -> 15        -0.11763
      12 -> 14        -0.41903
      13 -> 18         0.48953

 Excited State   8:      Singlet-A      8.4650 eV  146.47 nm  f=0.0006  <S**2>=0.000
      10 -> 14         0.56329
      10 -> 15        -0.12413
      11 -> 15         0.10095
      12 -> 15        -0.24590
      13 -> 19        -0.20302
      13 -> 20        -0.14286
      13 -> 21        -0.11676

 Excited State   9:      Singlet-A      8.5255 eV  145.43 nm  f=0.0058  <S**2>=0.000
      10 -> 14         0.37396
      11 -> 15        -0.13134
      12 -> 15         0.37150
      13 -> 17        -0.11602
      13 -> 19         0.29320
      13 -> 20         0.10757
      13 -> 21         0.21549
      13 -> 22         0.12149

 Excited State  10:      Singlet-A      8.7010 eV  142.49 nm  f=0.0027  <S**2>=0.000
      11 -> 15        -0.13993
      12 -> 15         0.40074
      13 -> 15        -0.12569
      13 -> 19        -0.20794
      13 -> 20        -0.14210
      13 -> 21        -0.39855
      13 -> 22        -0.20388

 Excited State  11:      Singlet-A      8.8650 eV  139.86 nm  f=0.0014  <S**2>=0.000
      13 -> 19         0.26555
      13 -> 20        -0.28006
      13 -> 21        -0.34081
      13 -> 22         0.46511

 Excited State  12:      Singlet-A      9.0970 eV  136.29 nm  f=0.1002  <S**2>=0.000
       9 -> 15         0.17865
      11 -> 15         0.44081
      11 -> 16        -0.14962
      12 -> 14         0.24538
      13 -> 18         0.32418
      13 -> 20        -0.14872

 Excited State  13:      Singlet-A      9.1151 eV  136.02 nm  f=0.0661  <S**2>=0.000
      11 -> 15         0.15833
      12 -> 16        -0.32993
      13 -> 20         0.48508
      13 -> 21        -0.26356
      13 -> 22         0.11982

 Excited State  14:      Singlet-A      9.2842 eV  133.54 nm  f=0.3629  <S**2>=0.000
       9 -> 15        -0.10775
      11 -> 14        -0.25570
      11 -> 15        -0.25063
      11 -> 16         0.10455
      12 -> 14         0.34130
      12 -> 15        -0.20976
      13 -> 18         0.34646

 Excited State  15:      Singlet-A      9.4567 eV  131.11 nm  f=0.0148  <S**2>=0.000
      11 -> 15         0.11318
      11 -> 16        -0.15771
      12 -> 16         0.52571
      13 -> 16         0.16130
      13 -> 20         0.27758
      13 -> 21        -0.20619

 The electronic state is 1-A.
 Alpha  occ. eigenvalues --   -1.88634  -1.19954  -0.94372  -0.78204  -0.76886
 Alpha  occ. eigenvalues --   -0.66929  -0.61928  -0.47945  -0.47700  -0.39749
 Alpha  occ. eigenvalues --   -0.36923  -0.36228  -0.23748
 Alpha virt. eigenvalues --    0.18694   0.19254   0.23084   0.29546   0.29999
 Alpha virt. eigenvalues --    0.31194   0.34376   0.34936   0.36759   0.40964
 Alpha virt. eigenvalues --    0.45253

 Mulliken charges:
               1
     1  C   -0.042536
     2  C   -1.536801
     3  O    2.752058
     4  C   -1.501673
     5  C   -0.075585
     6  H    0.055893
     7  H    0.135990
     8  H    0.159075
     9  H    0.053579
 Sum of Mulliken charges =   0.00000

 Dipole moment (field-independent basis, Debye):
    X=              5.9324    Y=             -8.1885    Z=              0.1312  Tot=             10.1125
 N-N= 1.035387029326D+02 E-N=-1.700242252869D+02  KE=-1.584526090267D+01
 Orbital energies and kinetic energies (alpha):
                                 1                 2
   1         O                -1.886343         -1.376709
   2         O                -1.199543         -1.090817
   3         O                -0.943725         -0.883378
   4         O                -0.782043         -0.624568
   5         O                -0.768864         -0.681916
   6         O                -0.669289         -0.626086
   7         O                -0.619277         -0.549460

 Normal termination of Gaussian 09 at Tue Dec 15 17:08:05 2015.
