 Gaussian 09, Revision D.01,
 Gaussian 09:  ES64L-G09RevD.01 24-Apr-2013

 ------------------------------------------------------------
 #P AM1(Input,print) CIS(Singlets,NStates=15) pop(full) force
 ------------------------------------------------------------

 -----------------
 AM1-Reparam Input
 -----------------
 Symbolic Z-matrix:
 Charge =  0 Multiplicity = 1

                         Standard orientation:
 ---------------------------------------------------------------------
 Center     Atomic      Atomic             Coordinates (Angstroms)
 Number     Number       Type             X           Y           Z
 ---------------------------------------------------------------------
      1          6           0       -0.873396    0.885094    0.037995
      2          6           0       -1.056651   -0.514862   -0.031016
      3          8           0        0.187870   -1.157394    0.029963
      4          6           0        1.139993   -0.180627   -0.018536
      5          6           0        0.583327    1.030721   -0.014062
      6          1           0        1.102784    1.990162    0.006108
      7          1           0        2.125937   -0.480355   -0.009790
      8          1           0       -1.858154   -1.182478   -0.058149
      9          1           0       -1.633164    1.609865   -0.024166
 ---------------------------------------------------------------------

 SCF Done:  E(RAM1) =   2.04203596406     A.U. after   13 cycles

 Excitation energies and oscillator strengths:

 Excited State   1:      Singlet-A      5.2514 eV  236.10 nm  f=0.3555  <S**2>=0.000
      13 -> 14         0.69566
 This state for optimization and/or second-order correction.
 Total Energy, E(CIS) =   2.23502091122
 Copying the excited state density for this state as the 1-particle RhoCI density.

 Excited State   2:      Singlet-A      6.6983 eV  185.10 nm  f=0.0023  <S**2>=0.000
      12 -> 14         0.69119

 Excited State   3:      Singlet-A      6.8156 eV  181.91 nm  f=0.0106  <S**2>=0.000
      13 -> 15         0.65439
      13 -> 17         0.14954
      13 -> 18        -0.17097

 Excited State   4:      Singlet-A      6.9029 eV  179.61 nm  f=0.0045  <S**2>=0.000
      13 -> 16         0.61236
      13 -> 17         0.17876
      13 -> 18         0.26126

 Excited State   5:      Singlet-A      7.7706 eV  159.56 nm  f=0.0059  <S**2>=0.000
      10 -> 14         0.69347

 Excited State   6:      Singlet-A      7.9029 eV  156.88 nm  f=0.0005  <S**2>=0.000
      13 -> 16        -0.23007
      13 -> 17         0.12237
      13 -> 18         0.33254
      13 -> 19         0.50448
      13 -> 20         0.18165

 Excited State   7:      Singlet-A      8.6147 eV  143.92 nm  f=0.1190  <S**2>=0.000
      11 -> 14         0.69002

 Excited State   8:      Singlet-A      8.7515 eV  141.67 nm  f=0.0208  <S**2>=0.000
      11 -> 16         0.14303
      13 -> 15        -0.17147
      13 -> 17         0.61481
      13 -> 18        -0.19518

 Excited State   9:      Singlet-A      9.0348 eV  137.23 nm  f=0.0013  <S**2>=0.000
      11 -> 15        -0.10558
      11 -> 16        -0.10704
      13 -> 16         0.17750
      13 -> 17        -0.12589
      13 -> 18        -0.43953
      13 -> 19         0.46299

 Excited State  10:      Singlet-A      9.5590 eV  129.70 nm  f=0.0126  <S**2>=0.000
      13 -> 18        -0.18987
      13 -> 19        -0.10796
      13 -> 20         0.64922
      13 -> 21        -0.11946

 Excited State  11:      Singlet-A      9.5910 eV  129.27 nm  f=0.0229  <S**2>=0.000
      10 -> 15        -0.23891
      10 -> 17        -0.17557
      10 -> 18         0.10095
      12 -> 16         0.35714
      12 -> 17         0.16952
      12 -> 18         0.29475
      12 -> 19         0.25954
      13 -> 21        -0.11476

 Excited State  12:      Singlet-A      9.9220 eV  124.96 nm  f=0.0634  <S**2>=0.000
      13 -> 20         0.12171
      13 -> 21         0.67283

 Excited State  13:      Singlet-A      9.9960 eV  124.03 nm  f=0.1052  <S**2>=0.000
      10 -> 15        -0.17670
      10 -> 18         0.10379
      12 -> 15         0.60963
      12 -> 17         0.17128
      12 -> 18        -0.16003

 Excited State  14:      Singlet-A     10.3761 eV  119.49 nm  f=0.0238  <S**2>=0.000
      11 -> 15         0.50518
      11 -> 16         0.28698
      11 -> 17         0.12420
      12 -> 16        -0.18792
      12 -> 19         0.14058
      13 -> 16         0.12635

 Excited State  15:      Singlet-A     10.4762 eV  118.35 nm  f=0.1502  <S**2>=0.000
      10 -> 15         0.23829
      10 -> 16         0.27641
      10 -> 17         0.16701
      11 -> 15         0.20769
      12 -> 15         0.10756
      12 -> 16         0.41335
      12 -> 19        -0.19748

 The electronic state is 1-A.
 Alpha  occ. eigenvalues --   -1.93229  -1.18257  -0.95806  -0.81989  -0.79086
 Alpha  occ. eigenvalues --   -0.68979  -0.64020  -0.55183  -0.54075  -0.44568
 Alpha  occ. eigenvalues --   -0.43967  -0.41294  -0.29149
 Alpha virt. eigenvalues --    0.10383   0.19631   0.20705   0.25993   0.27260
 Alpha virt. eigenvalues --    0.28644   0.30136   0.31047   0.34151   0.43075
 Alpha virt. eigenvalues --    0.47449

 Mulliken charges:
               1
     1  C   -0.192901
     2  C   -2.001561
     3  O    3.186082
     4  C   -1.992732
     5  C   -0.220274
     6  H    0.256799
     7  H    0.366743
     8  H    0.345630
     9  H    0.252213
 Sum of Mulliken charges =   0.00000

 Dipole moment (field-independent basis, Debye):
    X=              2.1669    Y=            -10.2155    Z=              0.6630  Tot=             10.4638
 N-N= 1.038358530181D+02 E-N=-1.687369425963D+02  KE=-1.545864308636D+01
 Orbital energies and kinetic energies (alpha):
                                 1                 2
   1         O                -1.932289         -1.364177
   2         O                -1.182566         -1.055271
   3         O                -0.958061         -0.869566
   4         O                -0.819895         -0.609613
   5         O                -0.790857         -0.681407
   6         O                -0.689788         -0.570429
   7         O                -0.640203         -0.511418

 Normal termination of Gaussian 09 at Tue Dec 15 17:07:26 2015.
