 Gaussian 09, Revision D.01,
 Gaussian 09:  ES64L-G09RevD.01 24-Apr-2013

 ------------------------------------------------------------
 #P AM1(Input,print) CIS(Singlets,NStates=15) pop(full) force
 ------------------------------------------------------------

 -----------------
 AM1-Reparam Input
 -----------------
 Symbolic Z-matrix:
 Charge =  0 Multiplicity = 1

                         Standard orientation:
 ---------------------------------------------------------------------
 Center     Atomic      Atomic             Coordinates (Angstroms)
 Number     Number       Type             X           Y           Z
 ---------------------------------------------------------------------
      1          6           0        1.010083    0.697276   -0.032860
      2          6           0        0.930391   -0.687172    0.030939
      3          8           0       -0.399434   -1.105088   -0.013396
      4          6           0       -1.135891   -0.028866    0.008723
      5          6           0       -0.380748    1.193153    0.008364
      6          1           0       -0.733018    2.149220   -0.013539
      7          1           0       -2.233786   -0.150229    0.002140
      8          1           0        1.729140   -1.456914   -0.030691
      9          1           0        1.890128    1.252281    0.058256
 ---------------------------------------------------------------------

 SCF Done:  E(RAM1) =   1.78829746172     A.U. after   14 cycles

 Excitation energies and oscillator strengths:

 Excited State   1:      Singlet-A      5.6513 eV  219.39 nm  f=0.3552  <S**2>=0.000
      13 -> 14         0.69254
 This state for optimization and/or second-order correction.
 Total Energy, E(CIS) =   1.99597724727
 Copying the excited state density for this state as the 1-particle RhoCI density.

 Excited State   2:      Singlet-A      6.4317 eV  192.77 nm  f=0.0032  <S**2>=0.000
      11 -> 15        -0.11408
      13 -> 15         0.65941
      13 -> 17         0.19596

 Excited State   3:      Singlet-A      6.7415 eV  183.91 nm  f=0.0014  <S**2>=0.000
      12 -> 14         0.69964

 Excited State   4:      Singlet-A      6.9097 eV  179.43 nm  f=0.0016  <S**2>=0.000
      11 -> 16         0.13065
      13 -> 16         0.65761
      13 -> 18        -0.17763

 Excited State   5:      Singlet-A      7.7803 eV  159.36 nm  f=0.0051  <S**2>=0.000
      10 -> 14         0.66922
      11 -> 14        -0.20023

 Excited State   6:      Singlet-A      8.1786 eV  151.60 nm  f=0.0051  <S**2>=0.000
      11 -> 15         0.13542
      13 -> 15        -0.16189
      13 -> 17         0.51105
      13 -> 18         0.35187
      13 -> 21        -0.23218

 Excited State   7:      Singlet-A      8.4255 eV  147.15 nm  f=0.0124  <S**2>=0.000
      11 -> 16         0.14521
      13 -> 16         0.13567
      13 -> 17        -0.40742
      13 -> 18         0.46813
      13 -> 19        -0.10676
      13 -> 21        -0.22383

 Excited State   8:      Singlet-A      8.7015 eV  142.49 nm  f=0.0947  <S**2>=0.000
      10 -> 14         0.19531
      11 -> 14         0.63595
      12 -> 16         0.10751

 Excited State   9:      Singlet-A      9.0856 eV  136.46 nm  f=0.0001  <S**2>=0.000
      13 -> 18         0.14024
      13 -> 19         0.65223
      13 -> 21         0.13992

 Excited State  10:      Singlet-A      9.1279 eV  135.83 nm  f=0.0575  <S**2>=0.000
       8 -> 15         0.12362
       9 -> 15         0.13860
      10 -> 15        -0.13777
      10 -> 16        -0.16939
      10 -> 17        -0.17133
      10 -> 18         0.10959
      11 -> 14         0.12530
      12 -> 15         0.42988
      12 -> 16        -0.20366
      12 -> 17         0.14070
      12 -> 18         0.23100

 Excited State  11:      Singlet-A      9.5777 eV  129.45 nm  f=0.0038  <S**2>=0.000
      11 -> 15         0.57405
      11 -> 17         0.10287
      13 -> 15         0.14144
      13 -> 17        -0.10241
      13 -> 18        -0.17334
      13 -> 21        -0.22997

 Excited State  12:      Singlet-A      9.6434 eV  128.57 nm  f=0.0359  <S**2>=0.000
       9 -> 15        -0.13196
      10 -> 15         0.37694
      10 -> 17         0.18328
      11 -> 14        -0.10662
      12 -> 15         0.41834
      12 -> 16         0.19639
      12 -> 17         0.13266
      13 -> 21        -0.13043

 Excited State  13:      Singlet-A      9.7197 eV  127.56 nm  f=0.0093  <S**2>=0.000
      10 -> 15         0.13656
      11 -> 15         0.27826
      13 -> 18         0.23100
      13 -> 19        -0.14018
      13 -> 20         0.29752
      13 -> 21         0.47126

 Excited State  14:      Singlet-A      9.8343 eV  126.07 nm  f=0.1382  <S**2>=0.000
       9 -> 15         0.12595
       9 -> 16        -0.10589
      10 -> 15        -0.22791
      10 -> 16        -0.16326
      10 -> 17        -0.10482
      12 -> 16         0.56079

 Excited State  15:      Singlet-A      9.9488 eV  124.62 nm  f=0.0710  <S**2>=0.000
       8 -> 15        -0.12983
       8 -> 16         0.10031
       9 -> 15        -0.22018
       9 -> 16        -0.10373
      10 -> 15         0.21610
      10 -> 16        -0.23668
      10 -> 19         0.20237
      11 -> 16         0.15833
      12 -> 15        -0.18811
      12 -> 17         0.25644
      12 -> 19        -0.17796
      13 -> 20        -0.18225

 The electronic state is 1-A.
 Alpha  occ. eigenvalues --   -1.93286  -1.18844  -0.95941  -0.81496  -0.78994
 Alpha  occ. eigenvalues --   -0.67683  -0.66832  -0.52039  -0.49055  -0.42361
 Alpha  occ. eigenvalues --   -0.41769  -0.38862  -0.28231
 Alpha virt. eigenvalues --    0.12846   0.17762   0.20037   0.26414   0.28766
 Alpha virt. eigenvalues --    0.30179   0.32517   0.33898   0.37446   0.46095
 Alpha virt. eigenvalues --    0.50847

 Mulliken charges:
               1
     1  C   -0.031828
     2  C   -1.921085
     3  O    3.128168
     4  C   -1.958924
     5  C   -0.146190
     6  H    0.158967
     7  H    0.319888
     8  H    0.303075
     9  H    0.147930
 Sum of Mulliken charges =   0.00000

 Dipole moment (field-independent basis, Debye):
    X=             -3.5725    Y=             -9.5098    Z=             -0.5503  Tot=             10.1736
 N-N= 1.034175145645D+02 E-N=-1.685527713694D+02  KE=-1.559781514028D+01
 Orbital energies and kinetic energies (alpha):
                                 1                 2
   1         O                -1.932858         -1.405988
   2         O                -1.188443         -1.071497
   3         O                -0.959412         -0.889570
   4         O                -0.814962         -0.626713
   5         O                -0.789941         -0.685613
   6         O                -0.676825         -0.560606
   7         O                -0.668319         -0.583200

 Normal termination of Gaussian 09 at Tue Dec 15 17:09:55 2015.
