 Gaussian 09, Revision D.01,
 Gaussian 09:  ES64L-G09RevD.01 24-Apr-2013

 ------------------------------------------------------------
 #P AM1(Input,print) CIS(Singlets,NStates=15) pop(full) force
 ------------------------------------------------------------

 -----------------
 AM1-Reparam Input
 -----------------
 Symbolic Z-matrix:
 Charge =  0 Multiplicity = 1

                         Standard orientation:
 ---------------------------------------------------------------------
 Center     Atomic      Atomic             Coordinates (Angstroms)
 Number     Number       Type             X           Y           Z
 ---------------------------------------------------------------------
      1          6           0        0.793690    0.909031   -0.010062
      2          6           0        1.055359   -0.510029    0.011774
      3          8           0       -0.149891   -1.129275   -0.013064
      4          6           0       -1.121935   -0.230682   -0.006400
      5          6           0       -0.571771    1.008855    0.009104
      6          1           0       -1.136870    2.020088    0.001615
      7          1           0       -2.183792   -0.585309    0.049894
      8          1           0        1.969325   -1.125736    0.039170
      9          1           0        1.618412    1.662100   -0.012663
 ---------------------------------------------------------------------

 SCF Done:  E(RAM1) =   2.48368012846     A.U. after   13 cycles

 Excitation energies and oscillator strengths:

 Excited State   1:      Singlet-A      5.7342 eV  216.22 nm  f=0.3210  <S**2>=0.000
      13 -> 14         0.69087
 This state for optimization and/or second-order correction.
 Total Energy, E(CIS) =   2.69440828347
 Copying the excited state density for this state as the 1-particle RhoCI density.

 Excited State   2:      Singlet-A      6.7121 eV  184.72 nm  f=0.0046  <S**2>=0.000
      13 -> 15         0.61426
      13 -> 16         0.23375
      13 -> 17        -0.18886

 Excited State   3:      Singlet-A      7.0290 eV  176.39 nm  f=0.0013  <S**2>=0.000
      12 -> 14        -0.11131
      13 -> 15        -0.24316
      13 -> 16         0.59271
      13 -> 17        -0.11047
      13 -> 19         0.17400

 Excited State   4:      Singlet-A      7.1198 eV  174.14 nm  f=0.0005  <S**2>=0.000
       9 -> 14         0.13606
      12 -> 14         0.67929
      13 -> 16         0.11386

 Excited State   5:      Singlet-A      7.7804 eV  159.36 nm  f=0.0041  <S**2>=0.000
       9 -> 14        -0.10320
      10 -> 14         0.49769
      11 -> 14        -0.47837

 Excited State   6:      Singlet-A      8.3010 eV  149.36 nm  f=0.0004  <S**2>=0.000
      10 -> 16        -0.10397
      11 -> 16        -0.11361
      13 -> 16         0.11028
      13 -> 17         0.46134
      13 -> 18        -0.39437
      13 -> 21         0.28108

 Excited State   7:      Singlet-A      8.5338 eV  145.29 nm  f=0.0086  <S**2>=0.000
      13 -> 15         0.12493
      13 -> 17         0.44138
      13 -> 18         0.42965
      13 -> 21        -0.24189

 Excited State   8:      Singlet-A      8.7520 eV  141.66 nm  f=0.0812  <S**2>=0.000
      10 -> 14         0.47611
      11 -> 14         0.49758

 Excited State   9:      Singlet-A      9.1518 eV  135.47 nm  f=0.0011  <S**2>=0.000
      10 -> 16         0.11949
      11 -> 15         0.10223
      11 -> 16         0.13543
      13 -> 16        -0.10264
      13 -> 18        -0.14644
      13 -> 19         0.60871
      13 -> 21        -0.13798

 Excited State  10:      Singlet-A      9.3659 eV  132.38 nm  f=0.1426  <S**2>=0.000
       9 -> 15         0.15331
       9 -> 16        -0.10017
      10 -> 15        -0.20937
      10 -> 16        -0.15303
      10 -> 17         0.18151
      11 -> 15         0.20008
      11 -> 16         0.13281
      11 -> 17        -0.17580
      12 -> 15        -0.19227
      12 -> 16        -0.22195
      12 -> 17         0.23672
      12 -> 18        -0.21474
      13 -> 14         0.11378

 Excited State  11:      Singlet-A      9.4991 eV  130.52 nm  f=0.0694  <S**2>=0.000
      12 -> 15         0.62205
      12 -> 16        -0.14041
      12 -> 18        -0.15169

 Excited State  12:      Singlet-A      9.6005 eV  129.14 nm  f=0.0015  <S**2>=0.000
       9 -> 14        -0.17601
      13 -> 18         0.34407
      13 -> 19         0.19406
      13 -> 21         0.52790

 Excited State  13:      Singlet-A      9.8702 eV  125.61 nm  f=0.0161  <S**2>=0.000
       7 -> 15        -0.10022
      10 -> 15         0.37959
      11 -> 15         0.41624
      11 -> 16         0.19523
      12 -> 16         0.10297
      13 -> 15        -0.13498
      13 -> 16         0.12834
      13 -> 19        -0.11716
      13 -> 20        -0.12211
      13 -> 21         0.17620

 Excited State  14:      Singlet-A      9.9277 eV  124.89 nm  f=0.0740  <S**2>=0.000
      10 -> 15        -0.12466
      10 -> 16        -0.26466
      10 -> 19        -0.10739
      11 -> 16         0.37094
      11 -> 19         0.10130
      12 -> 16         0.33907
      12 -> 17        -0.14383
      13 -> 20         0.28146

 Excited State  15:      Singlet-A      9.9692 eV  124.37 nm  f=0.0366  <S**2>=0.000
       9 -> 14         0.48021
      10 -> 16         0.22532
      12 -> 16        -0.11969
      13 -> 20         0.37548
      13 -> 21         0.13495

 The electronic state is 1-A.
 Alpha  occ. eigenvalues --   -1.74609  -1.15720  -0.94146  -0.80428  -0.75549
 Alpha  occ. eigenvalues --   -0.66874  -0.65008  -0.55952  -0.49814  -0.43736
 Alpha  occ. eigenvalues --   -0.43624  -0.41655  -0.31276
 Alpha virt. eigenvalues --    0.11241   0.16440   0.18216   0.23339   0.25656
 Alpha virt. eigenvalues --    0.27595   0.29256   0.31398   0.41463   0.50076
 Alpha virt. eigenvalues --    0.55721

 Mulliken charges:
               1
     1  C   -0.046971
     2  C   -1.977092
     3  O    3.236112
     4  C   -1.956624
     5  C   -0.053805
     6  H    0.125376
     7  H    0.280750
     8  H    0.266244
     9  H    0.126011
 Sum of Mulliken charges =   0.00000

 Dipole moment (field-independent basis, Debye):
    X=             -1.7515    Y=             -9.4579    Z=             -0.0683  Tot=              9.6190
 N-N= 1.035607410500D+02 E-N=-1.683973766460D+02  KE=-1.498891758546D+01
 Orbital energies and kinetic energies (alpha):
                                 1                 2
   1         O                -1.746089         -1.254377
   2         O                -1.157197         -1.005554
   3         O                -0.941462         -0.835393
   4         O                -0.804282         -0.616708
   5         O                -0.755494         -0.676141
   6         O                -0.668736         -0.585629
   7         O                -0.650079         -0.525038

 Normal termination of Gaussian 09 at Tue Dec 15 17:06:12 2015.
