 Gaussian 09, Revision D.01,
 Gaussian 09:  ES64L-G09RevD.01 24-Apr-2013

 ------------------------------------------------------------
 #P AM1(Input,print) CIS(Singlets,NStates=15) pop(full) force
 ------------------------------------------------------------

 -----------------
 AM1-Reparam Input
 -----------------
 Symbolic Z-matrix:
 Charge =  0 Multiplicity = 1

                         Standard orientation:
 ---------------------------------------------------------------------
 Center     Atomic      Atomic             Coordinates (Angstroms)
 Number     Number       Type             X           Y           Z
 ---------------------------------------------------------------------
      1          6           0        0.406120    1.091959    0.018226
      2          6           0        1.107284   -0.035841   -0.014882
      3          8           0        0.368895   -1.105081    0.022608
      4          6           0       -1.010431   -0.604028   -0.009463
      5          6           0       -0.913724    0.696158   -0.028902
      6          1           0       -1.827221    1.383583    0.078202
      7          1           0       -1.730922   -1.319018   -0.010736
      8          1           0        2.231231   -0.249486   -0.051530
      9          1           0        0.840253    2.136077    0.013329
 ---------------------------------------------------------------------

 SCF Done:  E(RAM1) =   2.17232479617     A.U. after   14 cycles

 Excitation energies and oscillator strengths:

 Excited State   1:      Singlet-A      5.5495 eV  223.41 nm  f=0.1889  <S**2>=0.000
      13 -> 14         0.58959
      13 -> 15        -0.35566
 This state for optimization and/or second-order correction.
 Total Energy, E(CIS) =   2.37626607588
 Copying the excited state density for this state as the 1-particle RhoCI density.

 Excited State   2:      Singlet-A      5.6624 eV  218.96 nm  f=0.1346  <S**2>=0.000
      13 -> 14         0.36295
      13 -> 15         0.58445

 Excited State   3:      Singlet-A      7.1045 eV  174.51 nm  f=0.0023  <S**2>=0.000
      10 -> 16        -0.10546
      12 -> 14         0.13527
      13 -> 16         0.65239
      13 -> 17        -0.12394
      13 -> 21        -0.11198

 Excited State   4:      Singlet-A      7.2489 eV  171.04 nm  f=0.0010  <S**2>=0.000
      12 -> 14         0.67893
      13 -> 16        -0.13398

 Excited State   5:      Singlet-A      7.9242 eV  156.46 nm  f=0.0095  <S**2>=0.000
      11 -> 14        -0.30328
      13 -> 17         0.56101
      13 -> 18        -0.12874
      13 -> 19         0.12885
      13 -> 21        -0.12077
      13 -> 22         0.14323

 Excited State   6:      Singlet-A      8.0959 eV  153.14 nm  f=0.0011  <S**2>=0.000
      11 -> 14         0.60102
      13 -> 17         0.22277
      13 -> 18        -0.21402
      13 -> 19         0.10196

 Excited State   7:      Singlet-A      8.2331 eV  150.59 nm  f=0.0007  <S**2>=0.000
      11 -> 14         0.14223
      13 -> 16         0.10185
      13 -> 17         0.26227
      13 -> 18         0.56524
      13 -> 22        -0.24026

 Excited State   8:      Singlet-A      9.0100 eV  137.61 nm  f=0.0027  <S**2>=0.000
      13 -> 17        -0.17840
      13 -> 18         0.19597
      13 -> 19         0.57318
      13 -> 21        -0.20573
      13 -> 22         0.13385

 Excited State   9:      Singlet-A      9.0722 eV  136.66 nm  f=0.0366  <S**2>=0.000
       8 -> 15         0.10262
       9 -> 15         0.11414
      10 -> 14         0.34919
      11 -> 15        -0.31850
      12 -> 15         0.43074
      13 -> 20        -0.17427

 Excited State  10:      Singlet-A      9.1756 eV  135.12 nm  f=0.0134  <S**2>=0.000
      10 -> 14         0.43450
      11 -> 16        -0.14455
      12 -> 15        -0.35191
      12 -> 17         0.22430
      12 -> 18        -0.13515
      13 -> 20        -0.15962

 Excited State  11:      Singlet-A      9.5010 eV  130.50 nm  f=0.0260  <S**2>=0.000
      13 -> 18         0.24800
      13 -> 19        -0.32005
      13 -> 21        -0.32680
      13 -> 22         0.45978

 Excited State  12:      Singlet-A      9.5471 eV  129.87 nm  f=0.0587  <S**2>=0.000
       9 -> 15         0.15481
      10 -> 14         0.11786
      10 -> 15         0.20218
      11 -> 15         0.48388
      11 -> 17        -0.15376
      12 -> 15         0.13049
      13 -> 20        -0.28533

 Excited State  13:      Singlet-A      9.6158 eV  128.94 nm  f=0.0193  <S**2>=0.000
       7 -> 15        -0.11932
      10 -> 14        -0.11499
      10 -> 15         0.61288
      11 -> 15        -0.15402
      13 -> 15        -0.12012
      13 -> 21         0.10740

 Excited State  14:      Singlet-A      9.9789 eV  124.25 nm  f=0.0615  <S**2>=0.000
       9 -> 15         0.16014
      11 -> 15         0.21990
      11 -> 19        -0.11508
      12 -> 15         0.16554
      12 -> 16        -0.15677
      12 -> 17         0.28802
      12 -> 18        -0.18750
      12 -> 19        -0.10743
      13 -> 20         0.42674
      13 -> 21         0.10821

 Excited State  15:      Singlet-A     10.0269 eV  123.65 nm  f=0.2433  <S**2>=0.000
      10 -> 14         0.28743
      10 -> 15         0.10749
      11 -> 16         0.15893
      11 -> 17        -0.10726
      12 -> 16         0.21632
      12 -> 17        -0.13738
      12 -> 18         0.17713
      13 -> 19        -0.10937
      13 -> 20         0.37101
      13 -> 21        -0.18917
      13 -> 22        -0.19075

 The electronic state is 1-A.
 Alpha  occ. eigenvalues --   -1.94418  -1.21398  -0.93809  -0.80407  -0.78296
 Alpha  occ. eigenvalues --   -0.68865  -0.66992  -0.55378  -0.52622  -0.44401
 Alpha  occ. eigenvalues --   -0.42437  -0.39826  -0.28134
 Alpha virt. eigenvalues --    0.13647   0.14594   0.22059   0.25511   0.27480
 Alpha virt. eigenvalues --    0.30187   0.30991   0.32902   0.34118   0.39382
 Alpha virt. eigenvalues --    0.43084

 Mulliken charges:
               1
     1  C   -0.257309
     2  C   -1.882264
     3  O    3.203960
     4  C   -1.840490
     5  C   -0.057479
     6  H    0.148062
     7  H    0.241811
     8  H    0.278180
     9  H    0.165530
 Sum of Mulliken charges =   0.00000

 Dipole moment (field-independent basis, Debye):
    X=              4.3301    Y=            -10.5516    Z=              0.4314  Tot=             11.4137
 N-N= 1.044634478981D+02 E-N=-1.698851839743D+02  KE=-1.535737617484D+01
 Orbital energies and kinetic energies (alpha):
                                 1                 2
   1         O                -1.944175         -1.361747
   2         O                -1.213984         -1.066173
   3         O                -0.938091         -0.892763
   4         O                -0.804071         -0.570250
   5         O                -0.782965         -0.671163
   6         O                -0.688652         -0.579069
   7         O                -0.669922         -0.538774

 Normal termination of Gaussian 09 at Tue Dec 15 17:08:41 2015.
