 Gaussian 09, Revision D.01,
 Gaussian 09:  ES64L-G09RevD.01 24-Apr-2013

 ------------------------------------------------------------
 #P AM1(Input,print) CIS(Singlets,NStates=15) pop(full) force
 ------------------------------------------------------------

 -----------------
 AM1-Reparam Input
 -----------------
 Symbolic Z-matrix:
 Charge =  0 Multiplicity = 1

                         Standard orientation:
 ---------------------------------------------------------------------
 Center     Atomic      Atomic             Coordinates (Angstroms)
 Number     Number       Type             X           Y           Z
 ---------------------------------------------------------------------
      1          6           0       -0.619851    1.030034    0.007988
      2          6           0       -1.102430   -0.219413   -0.030448
      3          8           0       -0.134311   -1.166405    0.029321
      4          6           0        1.027502   -0.459811   -0.018884
      5          6           0        0.840039    0.864140    0.005937
      6          1           0        1.535831    1.716008   -0.021504
      7          1           0        1.951865   -1.049190   -0.017593
      8          1           0       -2.137643   -0.600521   -0.033458
      9          1           0       -1.147130    1.975245    0.050430
 ---------------------------------------------------------------------

 SCF Done:  E(RAM1) =   1.84747282252     A.U. after   14 cycles

 Excitation energies and oscillator strengths:

 Excited State   1:      Singlet-A      5.5106 eV  224.99 nm  f=0.3458  <S**2>=0.000
      13 -> 14         0.69400
 This state for optimization and/or second-order correction.
 Total Energy, E(CIS) =   2.04998498519
 Copying the excited state density for this state as the 1-particle RhoCI density.

 Excited State   2:      Singlet-A      6.1731 eV  200.84 nm  f=0.0003  <S**2>=0.000
      13 -> 15         0.66635
      13 -> 18         0.10272
      13 -> 19        -0.12416

 Excited State   3:      Singlet-A      6.3178 eV  196.24 nm  f=0.0020  <S**2>=0.000
      13 -> 15         0.10119
      13 -> 16         0.66786
      13 -> 17        -0.13309

 Excited State   4:      Singlet-A      6.4903 eV  191.03 nm  f=0.0005  <S**2>=0.000
      12 -> 14         0.70237

 Excited State   5:      Singlet-A      7.8360 eV  158.22 nm  f=0.0069  <S**2>=0.000
      11 -> 14         0.56403
      13 -> 17        -0.31543
      13 -> 18         0.21230
      13 -> 21         0.11429

 Excited State   6:      Singlet-A      7.8715 eV  157.51 nm  f=0.0015  <S**2>=0.000
      11 -> 14        -0.31360
      13 -> 18         0.54871
      13 -> 19        -0.11631
      13 -> 21         0.23537

 Excited State   7:      Singlet-A      8.1132 eV  152.82 nm  f=0.0065  <S**2>=0.000
      11 -> 14         0.25580
      13 -> 16         0.11347
      13 -> 17         0.59893
      13 -> 18         0.20832

 Excited State   8:      Singlet-A      8.6837 eV  142.78 nm  f=0.1120  <S**2>=0.000
       8 -> 16         0.14628
      11 -> 17         0.16536
      12 -> 15         0.52238
      12 -> 16        -0.20663
      12 -> 18         0.26799

 Excited State   9:      Singlet-A      8.8065 eV  140.79 nm  f=0.0012  <S**2>=0.000
      10 -> 14         0.11424
      13 -> 18         0.15367
      13 -> 19         0.66229

 Excited State  10:      Singlet-A      8.8290 eV  140.43 nm  f=0.0291  <S**2>=0.000
       8 -> 15        -0.12153
      10 -> 14         0.57999
      12 -> 15        -0.12274
      12 -> 16        -0.25200
      13 -> 19        -0.12687
      13 -> 22        -0.10102

 Excited State  11:      Singlet-A      9.3909 eV  132.03 nm  f=0.0698  <S**2>=0.000
      10 -> 14         0.28911
      11 -> 15         0.15935
      12 -> 15         0.23740
      12 -> 16         0.52833
      12 -> 17        -0.11144

 Excited State  12:      Singlet-A      9.5105 eV  130.37 nm  f=0.0108  <S**2>=0.000
      12 -> 16         0.10722
      13 -> 18        -0.24576
      13 -> 20        -0.15643
      13 -> 21         0.60054

 Excited State  13:      Singlet-A      9.5773 eV  129.46 nm  f=0.1417  <S**2>=0.000
       9 -> 15         0.11379
      11 -> 15        -0.14264
      11 -> 16        -0.22876
      11 -> 17         0.24025
      12 -> 15        -0.26217
      12 -> 16         0.18356
      12 -> 18         0.33185
      12 -> 21         0.11578
      13 -> 20        -0.21523
      13 -> 21        -0.16227

 Excited State  14:      Singlet-A      9.6036 eV  129.10 nm  f=0.1062  <S**2>=0.000
      10 -> 15         0.11949
      11 -> 16        -0.10159
      11 -> 17         0.10268
      12 -> 15        -0.11985
      12 -> 18         0.15436
      13 -> 20         0.61661
      13 -> 21         0.10533

 Excited State  15:      Singlet-A      9.8577 eV  125.77 nm  f=0.0876  <S**2>=0.000
       8 -> 15        -0.19309
       9 -> 15        -0.12184
       9 -> 16        -0.19100
      10 -> 14        -0.16868
      10 -> 15        -0.13714
      11 -> 15         0.42412
      11 -> 19        -0.21821
      12 -> 17        -0.30321

 The electronic state is 1-A.
 Alpha  occ. eigenvalues --   -1.94128  -1.20926  -0.97355  -0.80478  -0.79956
 Alpha  occ. eigenvalues --   -0.68661  -0.66537  -0.50672  -0.49059  -0.41820
 Alpha  occ. eigenvalues --   -0.41144  -0.36681  -0.26344
 Alpha virt. eigenvalues --    0.14279   0.18777   0.19234   0.27840   0.28637
 Alpha virt. eigenvalues --    0.31357   0.32872   0.35586   0.36482   0.45703
 Alpha virt. eigenvalues --    0.49590

 Mulliken charges:
               1
     1  C   -0.111595
     2  C   -1.897301
     3  O    3.113398
     4  C   -1.897332
     5  C   -0.099666
     6  H    0.145429
     7  H    0.301228
     8  H    0.299414
     9  H    0.146425
 Sum of Mulliken charges =   0.00000

 Dipole moment (field-independent basis, Debye):
    X=             -1.2365    Y=            -10.6593    Z=              0.7149  Tot=             10.7545
 N-N= 1.040647454166D+02 E-N=-1.697135725305D+02  KE=-1.564577264076D+01
 Orbital energies and kinetic energies (alpha):
                                 1                 2
   1         O                -1.941277         -1.414954
   2         O                -1.209259         -1.083658
   3         O                -0.973551         -0.905078
   4         O                -0.804783         -0.609881
   5         O                -0.799557         -0.697815
   6         O                -0.686615         -0.573820
   7         O                -0.665368         -0.576811

 Normal termination of Gaussian 09 at Tue Dec 15 17:09:51 2015.
