 Gaussian 09, Revision D.01,
 Gaussian 09:  ES64L-G09RevD.01 24-Apr-2013

 ------------------------------------------------------------
 #P AM1(Input,print) CIS(Singlets,NStates=15) pop(full) force
 ------------------------------------------------------------

 -----------------
 AM1-Reparam Input
 -----------------
 Symbolic Z-matrix:
 Charge =  0 Multiplicity = 1

                         Standard orientation:
 ---------------------------------------------------------------------
 Center     Atomic      Atomic             Coordinates (Angstroms)
 Number     Number       Type             X           Y           Z
 ---------------------------------------------------------------------
      1          6           0       -1.113238    0.442806   -0.004783
      2          6           0       -0.750595   -0.836111    0.021280
      3          8           0        0.627596   -1.017490   -0.014962
      4          6           0        1.104850    0.268298    0.003039
      5          6           0        0.107970    1.210609   -0.013149
      6          1           0        0.178041    2.208215    0.024157
      7          1           0        2.205136    0.340432    0.057520
      8          1           0       -1.369346   -1.803414   -0.005826
      9          1           0       -2.128520    0.881079    0.005513
 ---------------------------------------------------------------------

 SCF Done:  E(RAM1) =   1.85520830505     A.U. after   14 cycles

 Excitation energies and oscillator strengths:

 Excited State   1:      Singlet-A      5.6215 eV  220.55 nm  f=0.3382  <S**2>=0.000
      13 -> 14         0.69211
 This state for optimization and/or second-order correction.
 Total Energy, E(CIS) =   2.06179519569
 Copying the excited state density for this state as the 1-particle RhoCI density.

 Excited State   2:      Singlet-A      6.1816 eV  200.57 nm  f=0.0000  <S**2>=0.000
      10 -> 15         0.10759
      13 -> 15         0.66757
      13 -> 16        -0.11564
      13 -> 18        -0.11484

 Excited State   3:      Singlet-A      6.3405 eV  195.54 nm  f=0.0016  <S**2>=0.000
      10 -> 16        -0.10580
      13 -> 15         0.11882
      13 -> 16         0.66152
      13 -> 17        -0.14598

 Excited State   4:      Singlet-A      6.6609 eV  186.14 nm  f=0.0014  <S**2>=0.000
      12 -> 14         0.70144

 Excited State   5:      Singlet-A      7.8346 eV  158.25 nm  f=0.0085  <S**2>=0.000
      11 -> 14         0.65915
      13 -> 17        -0.22220

 Excited State   6:      Singlet-A      8.0197 eV  154.60 nm  f=0.0007  <S**2>=0.000
      10 -> 16        -0.10143
      11 -> 14         0.16350
      13 -> 16         0.10219
      13 -> 17         0.46887
      13 -> 18        -0.40651
      13 -> 22        -0.21932

 Excited State   7:      Singlet-A      8.1749 eV  151.66 nm  f=0.0103  <S**2>=0.000
      10 -> 15         0.10363
      11 -> 14         0.16590
      13 -> 17         0.43299
      13 -> 18         0.48882
      13 -> 22         0.13158

 Excited State   8:      Singlet-A      8.6607 eV  143.16 nm  f=0.0835  <S**2>=0.000
       8 -> 15        -0.15364
      10 -> 14        -0.25165
      11 -> 17         0.14903
      12 -> 15         0.50871
      12 -> 16        -0.13414
      12 -> 17         0.14425
      12 -> 18        -0.19343

 Excited State   9:      Singlet-A      8.8741 eV  139.71 nm  f=0.0598  <S**2>=0.000
       8 -> 16        -0.12641
      10 -> 14         0.54707
      12 -> 15         0.10002
      12 -> 16        -0.32210
      12 -> 18        -0.12097
      13 -> 21         0.10907

 Excited State  10:      Singlet-A      8.9171 eV  139.04 nm  f=0.0036  <S**2>=0.000
      13 -> 19         0.67253
      13 -> 20         0.11496

 Excited State  11:      Singlet-A      9.3792 eV  132.19 nm  f=0.0599  <S**2>=0.000
      10 -> 14         0.23968
      11 -> 15         0.21481
      12 -> 15         0.38698
      12 -> 16         0.40089
      12 -> 17        -0.18359

 Excited State  12:      Singlet-A      9.6023 eV  129.12 nm  f=0.1749  <S**2>=0.000
       9 -> 15         0.11735
      10 -> 14         0.15401
      11 -> 15        -0.19651
      11 -> 16        -0.27771
      11 -> 17         0.24186
      12 -> 15        -0.13662
      12 -> 16         0.36542
      12 -> 17         0.13466
      12 -> 18        -0.22883
      12 -> 19        -0.11530

 Excited State  13:      Singlet-A      9.6471 eV  128.52 nm  f=0.0159  <S**2>=0.000
      10 -> 16         0.33118
      11 -> 16        -0.11263
      13 -> 17         0.10787
      13 -> 18        -0.22213
      13 -> 20         0.28099
      13 -> 22         0.45092

 Excited State  14:      Singlet-A      9.7609 eV  127.02 nm  f=0.0279  <S**2>=0.000
      10 -> 15         0.57332
      11 -> 15        -0.15412
      13 -> 15        -0.11185
      13 -> 20        -0.26811

 Excited State  15:      Singlet-A      9.7940 eV  126.59 nm  f=0.0556  <S**2>=0.000
       8 -> 15         0.15447
       9 -> 16        -0.19326
      10 -> 14        -0.14675
      10 -> 15         0.15149
      10 -> 16         0.15506
      11 -> 15         0.31490
      11 -> 16        -0.29600
      11 -> 19         0.18264
      12 -> 17        -0.17865
      12 -> 18        -0.13329
      13 -> 20        -0.19460
      13 -> 22        -0.13545

 The electronic state is 1-A.
 Alpha  occ. eigenvalues --   -1.92739  -1.21326  -0.95975  -0.80745  -0.79534
 Alpha  occ. eigenvalues --   -0.67680  -0.66297  -0.49933  -0.49097  -0.41113
 Alpha  occ. eigenvalues --   -0.40647  -0.36734  -0.26404
 Alpha virt. eigenvalues --    0.14938   0.18468   0.19235   0.27844   0.29757
 Alpha virt. eigenvalues --    0.31657   0.34013   0.35196   0.36444   0.44734
 Alpha virt. eigenvalues --    0.48189

 Mulliken charges:
               1
     1  C   -0.069903
     2  C   -1.881434
     3  O    3.106620
     4  C   -1.897012
     5  C   -0.131231
     6  H    0.150518
     7  H    0.291622
     8  H    0.291933
     9  H    0.138887
 Sum of Mulliken charges =   0.00000

 Dipole moment (field-independent basis, Debye):
    X=              5.5882    Y=             -9.6859    Z=             -0.2741  Tot=             11.1857
 N-N= 1.037562158635D+02 E-N=-1.692119860865D+02  KE=-1.562554278118D+01
 Orbital energies and kinetic energies (alpha):
                                 1                 2
   1         O                -1.927388         -1.390389
   2         O                -1.213258         -1.096800
   3         O                -0.959752         -0.905416
   4         O                -0.807451         -0.655862
   5         O                -0.795344         -0.643385
   6         O                -0.676805         -0.571269
   7         O                -0.662972         -0.588176

 Normal termination of Gaussian 09 at Tue Dec 15 17:10:01 2015.
