 Gaussian 09, Revision D.01,
 Gaussian 09:  ES64L-G09RevD.01 24-Apr-2013

 ------------------------------------------------------------
 #P AM1(Input,print) CIS(Singlets,NStates=15) pop(full) force
 ------------------------------------------------------------

 -----------------
 AM1-Reparam Input
 -----------------
 Symbolic Z-matrix:
 Charge =  0 Multiplicity = 1

                         Standard orientation:
 ---------------------------------------------------------------------
 Center     Atomic      Atomic             Coordinates (Angstroms)
 Number     Number       Type             X           Y           Z
 ---------------------------------------------------------------------
      1          6           0       -0.970438    0.756641   -0.000216
      2          6           0       -0.964119   -0.659446    0.018662
      3          8           0        0.356775   -1.098251   -0.032885
      4          6           0        1.120594   -0.024233    0.048534
      5          6           0        0.427731    1.087000   -0.030332
      6          1           0        0.845592    2.120693   -0.014245
      7          1           0        2.155566   -0.269430    0.017029
      8          1           0       -1.711403   -1.383731    0.010699
      9          1           0       -1.826562    1.358707    0.029712
 ---------------------------------------------------------------------

 SCF Done:  E(RAM1) =   1.39616284932     A.U. after   13 cycles

 Excitation energies and oscillator strengths:

 Excited State   1:      Singlet-A      5.9544 eV  208.22 nm  f=0.3119  <S**2>=0.000
      13 -> 14         0.69250
 This state for optimization and/or second-order correction.
 Total Energy, E(CIS) =   1.61498336321
 Copying the excited state density for this state as the 1-particle RhoCI density.

 Excited State   2:      Singlet-A      6.1067 eV  203.03 nm  f=0.0007  <S**2>=0.000
      12 -> 15         0.12034
      13 -> 15         0.67308
      13 -> 17        -0.10474

 Excited State   3:      Singlet-A      6.8243 eV  181.68 nm  f=0.0023  <S**2>=0.000
      12 -> 16        -0.12834
      13 -> 16         0.62424
      13 -> 17        -0.22252
      13 -> 20         0.12328

 Excited State   4:      Singlet-A      7.4282 eV  166.91 nm  f=0.0010  <S**2>=0.000
      11 -> 14         0.66133
      12 -> 14        -0.18870

 Excited State   5:      Singlet-A      7.7072 eV  160.87 nm  f=0.0067  <S**2>=0.000
      12 -> 16        -0.14060
      13 -> 16         0.19856
      13 -> 17         0.63146
      13 -> 22         0.10100

 Excited State   6:      Singlet-A      8.0829 eV  153.39 nm  f=0.0031  <S**2>=0.000
      12 -> 15        -0.14593
      13 -> 18        -0.16300
      13 -> 19        -0.33274
      13 -> 22         0.54649

 Excited State   7:      Singlet-A      8.3305 eV  148.83 nm  f=0.0289  <S**2>=0.000
      10 -> 14        -0.22073
      11 -> 14         0.18613
      12 -> 14         0.55059
      13 -> 18        -0.29084
      13 -> 19         0.10251

 Excited State   8:      Singlet-A      8.4119 eV  147.39 nm  f=0.0050  <S**2>=0.000
      10 -> 14         0.64721
      12 -> 14         0.18768
      13 -> 18        -0.10292
      13 -> 19         0.11382

 Excited State   9:      Singlet-A      8.6687 eV  143.02 nm  f=0.0044  <S**2>=0.000
      12 -> 15        -0.14487
      12 -> 16        -0.16159
      13 -> 18         0.20491
      13 -> 19         0.46787
      13 -> 20        -0.21758
      13 -> 21        -0.28038
      13 -> 22         0.20407

 Excited State  10:      Singlet-A      8.8281 eV  140.44 nm  f=0.0013  <S**2>=0.000
      13 -> 18         0.13126
      13 -> 19         0.24716
      13 -> 20         0.27466
      13 -> 21         0.46851
      13 -> 22         0.30324

 Excited State  11:      Singlet-A      8.9624 eV  138.34 nm  f=0.0145  <S**2>=0.000
       7 -> 15        -0.10167
      12 -> 15         0.59700
      13 -> 15        -0.13355
      13 -> 16         0.10926
      13 -> 20        -0.22419
      13 -> 22         0.13391

 Excited State  12:      Singlet-A      9.1730 eV  135.16 nm  f=0.0978  <S**2>=0.000
      12 -> 14         0.20204
      12 -> 15        -0.13530
      12 -> 16        -0.18361
      13 -> 18         0.35212
      13 -> 19        -0.23279
      13 -> 20        -0.34407
      13 -> 21         0.26579

 Excited State  13:      Singlet-A      9.3842 eV  132.12 nm  f=0.1073  <S**2>=0.000
      11 -> 15        -0.13385
      11 -> 16         0.11383
      12 -> 14         0.20937
      12 -> 16         0.12679
      13 -> 18         0.39048
      13 -> 19        -0.13234
      13 -> 20         0.34610
      13 -> 21        -0.28678

 Excited State  14:      Singlet-A      9.5557 eV  129.75 nm  f=0.1914  <S**2>=0.000
       8 -> 15        -0.18753
      11 -> 15         0.59013
      11 -> 19        -0.10937
      12 -> 14         0.15973
      13 -> 18         0.11344

 Excited State  15:      Singlet-A      9.7201 eV  127.55 nm  f=0.0028  <S**2>=0.000
      12 -> 15        -0.10764
      12 -> 16         0.56464
      12 -> 20         0.12414
      13 -> 16         0.18518
      13 -> 20        -0.23694

 The electronic state is 1-A.
 Alpha  occ. eigenvalues --   -1.89974  -1.18653  -0.96531  -0.79144  -0.77302
 Alpha  occ. eigenvalues --   -0.67895  -0.62265  -0.49932  -0.48245  -0.40991
 Alpha  occ. eigenvalues --   -0.38045  -0.36777  -0.24976
 Alpha virt. eigenvalues --    0.17165   0.20154   0.24104   0.28295   0.30371
 Alpha virt. eigenvalues --    0.30983   0.33279   0.33653   0.35076   0.40788
 Alpha virt. eigenvalues --    0.46098

 Mulliken charges:
               1
     1  C   -0.048387
     2  C   -1.570631
     3  O    2.783636
     4  C   -1.525185
     5  C   -0.074467
     6  H    0.061336
     7  H    0.151160
     8  H    0.155150
     9  H    0.067389
 Sum of Mulliken charges =   0.00000

 Dipole moment (field-independent basis, Debye):
    X=              3.4683    Y=             -8.8874    Z=             -0.7938  Tot=              9.5731
 N-N= 1.037053243764D+02 E-N=-1.701201583194D+02  KE=-1.588358288467D+01
 Orbital energies and kinetic energies (alpha):
                                 1                 2
   1         O                -1.899740         -1.391644
   2         O                -1.186528         -1.070204
   3         O                -0.965305         -0.877302
   4         O                -0.791441         -0.640107
   5         O                -0.773017         -0.702586
   6         O                -0.678949         -0.621692
   7         O                -0.622650         -0.541815

 Normal termination of Gaussian 09 at Tue Dec 15 17:07:56 2015.
