 Gaussian 09, Revision D.01,
 Gaussian 09:  ES64L-G09RevD.01 24-Apr-2013

 -------------------------------------------------------
 #P B3LYP/3-21G CIS(Singlets,NStates=15) pop(full) force
 -------------------------------------------------------

 --------
 FuranDFT
 --------
 Symbolic Z-matrix:
 Charge =  0 Multiplicity = 1

                         Standard orientation:
 ---------------------------------------------------------------------
 Center     Atomic      Atomic             Coordinates (Angstroms)
 Number     Number       Type             X           Y           Z
 ---------------------------------------------------------------------
      1          6           0        0.962296    0.749562    0.007155
      2          6           0        0.974707   -0.643081   -0.023719
      3          8           0       -0.345927   -1.140192    0.028641
      4          6           0       -1.173187   -0.023624   -0.018379
      5          6           0       -0.399275    1.114596   -0.003523
      6          1           0       -0.804527    2.105082    0.016803
      7          1           0       -2.203463   -0.163177   -0.018833
      8          1           0        1.747143   -1.331401   -0.043330
      9          1           0        1.841019    1.326315    0.047029
 ---------------------------------------------------------------------

 SCF Done:  E(RB3LYP) =  -228.747249136     A.U. after   14 cycles

 Excitation energies and oscillator strengths:

 Excited State   1:      Singlet-A      6.8566 eV  180.83 nm  f=0.1826  <S**2>=0.000
      17 -> 19         0.20376
      18 -> 19         0.62940
      18 -> 20         0.17688
 This state for optimization and/or second-order correction.
 Total Energy, E(CIS) =  -228.495275530
 Copying the excited state density for this state as the 1-particle RhoCI density.

 Excited State   2:      Singlet-A      7.0358 eV  176.22 nm  f=0.0392  <S**2>=0.000
      17 -> 19         0.48219
      18 -> 19        -0.26283
      18 -> 20         0.42839

 Excited State   3:      Singlet-A      8.4101 eV  147.42 nm  f=0.0061  <S**2>=0.000
      16 -> 19         0.69807

 Excited State   4:      Singlet-A      8.4783 eV  146.24 nm  f=0.0008  <S**2>=0.000
      18 -> 21         0.69980

 Excited State   5:      Singlet-A      9.0869 eV  136.44 nm  f=0.0010  <S**2>=0.000
      18 -> 22         0.69640

 Excited State   6:      Singlet-A      9.4499 eV  131.20 nm  f=0.4847  <S**2>=0.000
      17 -> 19        -0.40749
      17 -> 20        -0.15743
      17 -> 21         0.11315
      18 -> 20         0.46783

 Excited State   7:      Singlet-A      9.5719 eV  129.53 nm  f=0.1757  <S**2>=0.000
      15 -> 19        -0.15439
      17 -> 20         0.63760
      18 -> 20         0.12435

 Excited State   8:      Singlet-A      9.7399 eV  127.29 nm  f=0.0119  <S**2>=0.000
      15 -> 19         0.65489
      16 -> 20        -0.12658
      17 -> 20         0.15896
      18 -> 23        -0.11714

 Excited State   9:      Singlet-A      9.8927 eV  125.33 nm  f=0.0244  <S**2>=0.000
      14 -> 19         0.10481
      17 -> 21         0.55829
      18 -> 23        -0.32151
      18 -> 24         0.19035
      18 -> 25         0.10850

 Excited State  10:      Singlet-A     10.0105 eV  123.85 nm  f=0.0048  <S**2>=0.000
      14 -> 19        -0.21673
      17 -> 21         0.39882
      17 -> 22        -0.11043
      18 -> 23         0.47296
      18 -> 24        -0.15299
      18 -> 25        -0.12600

 Excited State  11:      Singlet-A     10.1695 eV  121.92 nm  f=0.0034  <S**2>=0.000
      14 -> 19         0.59617
      15 -> 19         0.11011
      16 -> 20         0.20212
      17 -> 22        -0.10134
      18 -> 23         0.14149
      18 -> 24        -0.21963

 Excited State  12:      Singlet-A     10.3390 eV  119.92 nm  f=0.0005  <S**2>=0.000
      14 -> 19         0.14020
      17 -> 22         0.34455
      18 -> 23         0.29532
      18 -> 24         0.49718
      18 -> 25        -0.11273

 Excited State  13:      Singlet-A     10.4418 eV  118.74 nm  f=0.0032  <S**2>=0.000
      17 -> 22         0.58294
      18 -> 24        -0.37176

 Excited State  14:      Singlet-A     10.5935 eV  117.04 nm  f=0.0032  <S**2>=0.000
      12 -> 19         0.10420
      14 -> 19        -0.22819
      15 -> 19         0.11437
      16 -> 20         0.63979

 Excited State  15:      Singlet-A     10.6803 eV  116.09 nm  f=0.0167  <S**2>=0.000
      17 -> 22         0.10787
      18 -> 23         0.19682
      18 -> 25         0.65531

 The electronic state is 1-A.
 Alpha  occ. eigenvalues --  -19.11167 -10.17556 -10.17395 -10.12766 -10.12521
 Alpha  occ. eigenvalues --   -1.10094  -0.80359  -0.74091  -0.59437  -0.58379
 Alpha  occ. eigenvalues --   -0.54003  -0.45401  -0.43347  -0.42031  -0.40465
 Alpha  occ. eigenvalues --   -0.35978  -0.27889  -0.22736
 Alpha virt. eigenvalues --    0.00880   0.07875   0.13530   0.14649   0.18717
 Alpha virt. eigenvalues --    0.19254   0.20887   0.22065   0.33592   0.40977
 Alpha virt. eigenvalues --    0.46076   0.67925   0.70292   0.71215   0.74137

 Mulliken charges:
               1
     1  C   -0.239206
     2  C    0.054139
     3  O   -0.467786
     4  C    0.080759
     5  C   -0.251397
     6  H    0.187928
     7  H    0.222133
     8  H    0.220185
     9  H    0.193245
 Sum of Mulliken charges =   0.00000

 Dipole moment (field-independent basis, Debye):
    X=              0.2619    Y=              0.7845    Z=             -0.0123  Tot=              0.8272
 Quadrupole moment (field-independent basis, Debye-Ang):
   XX=            -23.4111   YY=            -28.0695   ZZ=            -31.8418
   XY=             -1.2855   XZ=              0.0433   YZ=              0.2103

 Normal termination of Gaussian 09 at Tue Dec 15 16:28:57 2015.
