 Gaussian 09, Revision D.01,
 Gaussian 09:  ES64L-G09RevD.01 24-Apr-2013

 ------------------------------------------------------------
 #P AM1(Input,print) CIS(Singlets,NStates=15) pop(full) force
 ------------------------------------------------------------

 -----------------
 AM1-Reparam Input
 -----------------
 Symbolic Z-matrix:
 Charge =  0 Multiplicity = 1

                         Standard orientation:
 ---------------------------------------------------------------------
 Center     Atomic      Atomic             Coordinates (Angstroms)
 Number     Number       Type             X           Y           Z
 ---------------------------------------------------------------------
      1          6           0       -0.997617    0.663434    0.002578
      2          6           0       -0.876975   -0.703491   -0.019168
      3          8           0        0.403608   -1.045229    0.013682
      4          6           0        1.141382    0.032805   -0.004873
      5          6           0        0.313001    1.104345   -0.014920
      6          1           0        0.565638    2.173084    0.016866
      7          1           0        2.267236   -0.017053    0.024764
      8          1           0       -1.574377   -1.494734   -0.004473
      9          1           0       -1.966114    1.117970    0.071685
 ---------------------------------------------------------------------

 SCF Done:  E(RAM1) =   1.69924021179     A.U. after   14 cycles

 Excitation energies and oscillator strengths:

 Excited State   1:      Singlet-A      5.6219 eV  220.54 nm  f=0.3194  <S**2>=0.000
      10 -> 17         0.10113
      13 -> 14         0.69050
 This state for optimization and/or second-order correction.
 Total Energy, E(CIS) =   1.90584229020
 Copying the excited state density for this state as the 1-particle RhoCI density.

 Excited State   2:      Singlet-A      6.4948 eV  190.90 nm  f=0.0079  <S**2>=0.000
      13 -> 15         0.58896
      13 -> 16         0.25708
      13 -> 17         0.25790

 Excited State   3:      Singlet-A      6.8216 eV  181.75 nm  f=0.0003  <S**2>=0.000
      11 -> 15        -0.12699
      13 -> 15        -0.27622
      13 -> 16         0.57548
      13 -> 18        -0.12633
      13 -> 19        -0.12690
      13 -> 21         0.13145

 Excited State   4:      Singlet-A      7.1800 eV  172.68 nm  f=0.0009  <S**2>=0.000
      12 -> 14         0.68138
      13 -> 21        -0.11944

 Excited State   5:      Singlet-A      7.7155 eV  160.70 nm  f=0.0044  <S**2>=0.000
      10 -> 14        -0.11517
      11 -> 16         0.11217
      12 -> 14         0.12384
      13 -> 16        -0.16793
      13 -> 17         0.38923
      13 -> 19         0.15005
      13 -> 20         0.25240
      13 -> 21         0.41862

 Excited State   6:      Singlet-A      8.0252 eV  154.49 nm  f=0.0185  <S**2>=0.000
      10 -> 14        -0.18022
      13 -> 15        -0.15640
      13 -> 17         0.46042
      13 -> 20        -0.17946
      13 -> 21        -0.40300

 Excited State   7:      Singlet-A      8.1351 eV  152.41 nm  f=0.0029  <S**2>=0.000
      10 -> 14         0.61806
      11 -> 14        -0.23655
      13 -> 17         0.21298

 Excited State   8:      Singlet-A      8.5650 eV  144.76 nm  f=0.0021  <S**2>=0.000
      11 -> 15        -0.10954
      13 -> 16         0.14547
      13 -> 18         0.58284
      13 -> 19         0.31232

 Excited State   9:      Singlet-A      8.7390 eV  141.87 nm  f=0.0805  <S**2>=0.000
      10 -> 14         0.22691
      11 -> 14         0.60378
      13 -> 18        -0.10287
      13 -> 19         0.18946

 Excited State  10:      Singlet-A      8.7692 eV  141.39 nm  f=0.0157  <S**2>=0.000
      11 -> 14        -0.20286
      13 -> 18        -0.34526
      13 -> 19         0.54623
      13 -> 20        -0.13574

 Excited State  11:      Singlet-A      9.2761 eV  133.66 nm  f=0.0835  <S**2>=0.000
      13 -> 19         0.13004
      13 -> 20         0.58500
      13 -> 21        -0.34321

 Excited State  12:      Singlet-A      9.3697 eV  132.32 nm  f=0.0245  <S**2>=0.000
       8 -> 15         0.12297
       9 -> 16         0.10104
      10 -> 15        -0.24997
      10 -> 16        -0.11590
      10 -> 17        -0.27266
      10 -> 21         0.11924
      12 -> 16         0.32169
      12 -> 17         0.19657
      12 -> 18        -0.12468
      12 -> 21         0.21675

 Excited State  13:      Singlet-A      9.5932 eV  129.24 nm  f=0.0010  <S**2>=0.000
      10 -> 15         0.11701
      11 -> 15         0.56893
      11 -> 16         0.19085
      11 -> 17         0.15694
      12 -> 15        -0.13872
      13 -> 15        -0.11920
      13 -> 16         0.14453

 Excited State  14:      Singlet-A      9.6664 eV  128.26 nm  f=0.1027  <S**2>=0.000
      11 -> 14         0.10760
      11 -> 15         0.14207
      12 -> 15         0.58974
      12 -> 17         0.10018
      12 -> 18         0.21464
      12 -> 20        -0.14521

 Excited State  15:      Singlet-A     10.0069 eV  123.90 nm  f=0.1511  <S**2>=0.000
       8 -> 16         0.18906
       9 -> 15         0.13246
      10 -> 15         0.12382
      10 -> 19         0.18282
      11 -> 16        -0.15513
      12 -> 16         0.36513
      12 -> 17        -0.24210
      12 -> 18         0.11328
      12 -> 19        -0.30540

 The electronic state is 1-A.
 Alpha  occ. eigenvalues --   -1.93715  -1.23775  -1.00345  -0.82930  -0.80345
 Alpha  occ. eigenvalues --   -0.68973  -0.65186  -0.55218  -0.51863  -0.44131
 Alpha  occ. eigenvalues --   -0.42684  -0.41407  -0.29648
 Alpha virt. eigenvalues --    0.12434   0.17120   0.18736   0.23625   0.26130
 Alpha virt. eigenvalues --    0.27806   0.28082   0.29097   0.39772   0.48146
 Alpha virt. eigenvalues --    0.53629

 Mulliken charges:
               1
     1  C   -0.111397
     2  C   -1.976412
     3  O    3.188122
     4  C   -1.971307
     5  C   -0.127305
     6  H    0.179231
     7  H    0.329468
     8  H    0.304683
     9  H    0.184916
 Sum of Mulliken charges =   0.00000

 Dipole moment (field-independent basis, Debye):
    X=              3.5089    Y=             -8.7007    Z=              0.5114  Tot=              9.3956
 N-N= 1.048273895927D+02 E-N=-1.708384888314D+02  KE=-1.581339690609D+01
 Orbital energies and kinetic energies (alpha):
                                 1                 2
   1         O                -1.937154         -1.431245
   2         O                -1.237747         -1.104841
   3         O                -1.003449         -0.911237
   4         O                -0.829303         -0.632990
   5         O                -0.803448         -0.702268
   6         O                -0.689734         -0.588476
   7         O                -0.651863         -0.523406

 Normal termination of Gaussian 09 at Tue Dec 15 17:06:56 2015.
