 Gaussian 09, Revision D.01,
 Gaussian 09:  ES64L-G09RevD.01 24-Apr-2013

 ------------------------------------------------------------
 #P AM1(Input,print) CIS(Singlets,NStates=15) pop(full) force
 ------------------------------------------------------------

 -----------------
 AM1-Reparam Input
 -----------------
 Symbolic Z-matrix:
 Charge =  0 Multiplicity = 1

                         Standard orientation:
 ---------------------------------------------------------------------
 Center     Atomic      Atomic             Coordinates (Angstroms)
 Number     Number       Type             X           Y           Z
 ---------------------------------------------------------------------
      1          6           0        0.426935    1.086993    0.006452
      2          6           0        1.158484   -0.062068    0.034016
      3          8           0        0.323832   -1.092775   -0.013920
      4          6           0       -0.987586   -0.654582   -0.000887
      5          6           0       -0.950789    0.774502   -0.023468
      6          1           0       -1.781889    1.417671    0.030627
      7          1           0       -1.744242   -1.345937    0.070045
      8          1           0        2.197984   -0.256572   -0.078761
      9          1           0        0.855220    2.057965   -0.007227
 ---------------------------------------------------------------------

 SCF Done:  E(RAM1) =  0.213201384137E-01 A.U. after   14 cycles

 Excitation energies and oscillator strengths:

 Excited State   1:      Singlet-A      4.2766 eV  289.91 nm  f=0.1020  <S**2>=0.000
      12 -> 15         0.20170
      13 -> 14         0.66752
 This state for optimization and/or second-order correction.
 Total Energy, E(CIS) =  0.178482803469
 Copying the excited state density for this state as the 1-particle RhoCI density.

 Excited State   2:      Singlet-A      4.5719 eV  271.19 nm  f=0.0014  <S**2>=0.000
      13 -> 15         0.20221
      13 -> 16         0.65604

 Excited State   3:      Singlet-A      4.8787 eV  254.14 nm  f=0.0091  <S**2>=0.000
      12 -> 14        -0.39917
      13 -> 15         0.53744
      13 -> 16        -0.21434

 Excited State   4:      Singlet-A      5.6678 eV  218.75 nm  f=0.0019  <S**2>=0.000
      12 -> 17         0.12623
      12 -> 18         0.18489
      13 -> 17         0.31065
      13 -> 18         0.49090
      13 -> 21         0.16944
      13 -> 22        -0.13118
      13 -> 23        -0.17002

 Excited State   5:      Singlet-A      5.9139 eV  209.65 nm  f=0.0148  <S**2>=0.000
       7 -> 16        -0.16234
      12 -> 15         0.17910
      12 -> 16         0.58823
      13 -> 17         0.12215
      13 -> 23        -0.11464

 Excited State   6:      Singlet-A      5.9780 eV  207.40 nm  f=0.0208  <S**2>=0.000
      12 -> 14         0.13500
      12 -> 16        -0.22168
      12 -> 17        -0.12167
      12 -> 19        -0.15074
      12 -> 22        -0.13858
      12 -> 23         0.10241
      13 -> 15         0.10111
      13 -> 17         0.31035
      13 -> 18        -0.18947
      13 -> 19         0.32291
      13 -> 21        -0.11546
      13 -> 22         0.17958
      13 -> 23        -0.18000

 Excited State   7:      Singlet-A      6.0490 eV  204.97 nm  f=0.3242  <S**2>=0.000
      12 -> 14         0.51118
      13 -> 15         0.36433
      13 -> 19        -0.11307

 Excited State   8:      Singlet-A      6.3650 eV  194.79 nm  f=0.1536  <S**2>=0.000
      12 -> 15         0.63301
      12 -> 16        -0.18383
      13 -> 14        -0.18294

 Excited State   9:      Singlet-A      6.5943 eV  188.02 nm  f=0.0052  <S**2>=0.000
      13 -> 17        -0.34853
      13 -> 18         0.26927
      13 -> 19         0.49898

 Excited State  10:      Singlet-A      6.8109 eV  182.04 nm  f=0.0030  <S**2>=0.000
       9 -> 14        -0.17531
      10 -> 15        -0.24605
      11 -> 14         0.59844

 Excited State  11:      Singlet-A      7.1083 eV  174.42 nm  f=0.0005  <S**2>=0.000
      12 -> 17        -0.28573
      12 -> 18         0.30323
      12 -> 19         0.34763
      12 -> 20        -0.26990
      12 -> 23         0.16428
      13 -> 18        -0.12588
      13 -> 21         0.10972
      13 -> 22        -0.20437

 Excited State  12:      Singlet-A      7.1958 eV  172.30 nm  f=0.0041  <S**2>=0.000
       9 -> 14         0.12358
      10 -> 14         0.56731
      11 -> 15        -0.34023

 Excited State  13:      Singlet-A      7.4262 eV  166.96 nm  f=0.0011  <S**2>=0.000
       9 -> 15        -0.10801
      12 -> 17        -0.25898
      12 -> 19        -0.22959
      12 -> 20        -0.22406
      12 -> 23         0.13793
      13 -> 17        -0.11851
      13 -> 18         0.23040
      13 -> 19        -0.25486
      13 -> 20        -0.12172
      13 -> 21        -0.14579
      13 -> 22         0.28527

 Excited State  14:      Singlet-A      7.4614 eV  166.17 nm  f=0.0019  <S**2>=0.000
      12 -> 17         0.24342
      12 -> 18         0.37815
      12 -> 19        -0.11172
      12 -> 22        -0.21350
      13 -> 17        -0.25740
      13 -> 18        -0.14227
      13 -> 21         0.15268
      13 -> 23        -0.12748
      13 -> 24        -0.22486

 Excited State  15:      Singlet-A      7.6356 eV  162.38 nm  f=0.0005  <S**2>=0.000
      12 -> 17         0.19664
      12 -> 19         0.28926
      12 -> 22         0.11627
      12 -> 23         0.11998
      13 -> 20         0.18743
      13 -> 22         0.48212
      13 -> 23         0.13596

 The electronic state is 1-A.
 Alpha  occ. eigenvalues --   -1.56810  -1.23216  -1.10068  -0.83042  -0.81791
 Alpha  occ. eigenvalues --   -0.68985  -0.60687  -0.57895  -0.51401  -0.49842
 Alpha  occ. eigenvalues --   -0.49528  -0.39272  -0.33920
 Alpha virt. eigenvalues --    0.02558   0.06104   0.09186   0.14386   0.14801
 Alpha virt. eigenvalues --    0.15948   0.18323   0.18494   0.19304   0.20744
 Alpha virt. eigenvalues --    0.22611

 Mulliken charges:
               1
     1  C   -0.221334
     2  C   -0.092504
     3  O   -0.072059
     4  C   -0.121366
     5  C   -0.183397
     6  H    0.160762
     7  H    0.190425
     8  H    0.190579
     9  H    0.148894
 Sum of Mulliken charges =   0.00000

 Dipole moment (field-independent basis, Debye):
    X=             -0.0467    Y=              0.2485    Z=              0.0083  Tot=              0.2530
 N-N= 1.035036131089D+02 E-N=-1.710589311566D+02  KE=-1.657652981418D+01
 Orbital energies and kinetic energies (alpha):
                                 1                 2
   1         O                -1.568100         -1.310253
   2         O                -1.232157         -1.052274
   3         O                -1.100683         -0.961900
   4         O                -0.830416         -0.723737
   5         O                -0.817907         -0.717198
   6         O                -0.689851         -0.604451
   7         O                -0.606873         -0.490578

 Normal termination of Gaussian 09 at Tue Dec 15 16:13:49 2015.
