 Gaussian 09, Revision D.01,
 Gaussian 09:  ES64L-G09RevD.01 24-Apr-2013

 ------------------------------------------------------------
 #P AM1(Input,print) CIS(Singlets,NStates=15) pop(full) force
 ------------------------------------------------------------

 -----------------
 AM1-Reparam Input
 -----------------
 Symbolic Z-matrix:
 Charge =  0 Multiplicity = 1

                         Standard orientation:
 ---------------------------------------------------------------------
 Center     Atomic      Atomic             Coordinates (Angstroms)
 Number     Number       Type             X           Y           Z
 ---------------------------------------------------------------------
      1          6           0        1.007904    0.735301   -0.010651
      2          6           0        0.916886   -0.666669   -0.015906
      3          8           0       -0.356045   -1.062698    0.009082
      4          6           0       -1.117933   -0.040962   -0.017816
      5          6           0       -0.431617    1.100602    0.019935
      6          1           0       -0.735326    2.120375   -0.047185
      7          1           0       -2.221389   -0.217233    0.035419
      8          1           0        1.722424   -1.466074    0.028507
      9          1           0        1.831221    1.294886    0.057225
 ---------------------------------------------------------------------

 SCF Done:  E(RAM1) =   1.83612840341     A.U. after   14 cycles

 Excitation energies and oscillator strengths:

 Excited State   1:      Singlet-A      5.5450 eV  223.60 nm  f=0.3589  <S**2>=0.000
      13 -> 14         0.69342
 This state for optimization and/or second-order correction.
 Total Energy, E(CIS) =   2.03990373528
 Copying the excited state density for this state as the 1-particle RhoCI density.

 Excited State   2:      Singlet-A      6.2475 eV  198.45 nm  f=0.0020  <S**2>=0.000
      11 -> 15         0.10307
      13 -> 15         0.67577
      13 -> 18         0.14154

 Excited State   3:      Singlet-A      6.4050 eV  193.57 nm  f=0.0003  <S**2>=0.000
      12 -> 14         0.69884

 Excited State   4:      Singlet-A      6.5706 eV  188.70 nm  f=0.0029  <S**2>=0.000
      11 -> 16        -0.11241
      13 -> 16         0.65340
      13 -> 17        -0.19225

 Excited State   5:      Singlet-A      7.8723 eV  157.49 nm  f=0.0066  <S**2>=0.000
      10 -> 14         0.58345
      11 -> 14        -0.23246
      13 -> 17         0.24545
      13 -> 18         0.13062

 Excited State   6:      Singlet-A      7.9428 eV  156.10 nm  f=0.0004  <S**2>=0.000
      10 -> 14        -0.27161
      11 -> 14         0.10693
      13 -> 16         0.12856
      13 -> 17         0.33854
      13 -> 18         0.44792
      13 -> 21        -0.23499

 Excited State   7:      Singlet-A      8.2910 eV  149.54 nm  f=0.0167  <S**2>=0.000
      10 -> 14        -0.10367
      13 -> 15         0.12180
      13 -> 17         0.50935
      13 -> 18        -0.41980

 Excited State   8:      Singlet-A      8.6660 eV  143.07 nm  f=0.0534  <S**2>=0.000
       8 -> 15         0.11617
      10 -> 14        -0.16771
      11 -> 14        -0.43024
      12 -> 15         0.44683
      12 -> 17         0.11649
      12 -> 18         0.16638

 Excited State   9:      Singlet-A      8.8450 eV  140.17 nm  f=0.1771  <S**2>=0.000
       8 -> 16         0.11652
      10 -> 14         0.18252
      11 -> 14         0.43153
      12 -> 15         0.30671
      12 -> 16        -0.30290
      12 -> 18         0.17856

 Excited State  10:      Singlet-A      8.9338 eV  138.78 nm  f=0.0045  <S**2>=0.000
      13 -> 19         0.67038
      13 -> 21        -0.10408

 Excited State  11:      Singlet-A      9.1608 eV  135.34 nm  f=0.0083  <S**2>=0.000
       9 -> 15        -0.16736
      10 -> 15        -0.21821
      10 -> 17         0.12077
      10 -> 18        -0.11074
      11 -> 14         0.14382
      12 -> 15         0.38402
      12 -> 16         0.33147
      12 -> 17        -0.25461

 Excited State  12:      Singlet-A      9.5733 eV  129.51 nm  f=0.0141  <S**2>=0.000
      11 -> 15         0.15595
      11 -> 16         0.14310
      13 -> 18         0.26503
      13 -> 19         0.13119
      13 -> 20         0.27610
      13 -> 21         0.50652

 Excited State  13:      Singlet-A      9.6968 eV  127.86 nm  f=0.1139  <S**2>=0.000
       8 -> 16        -0.12984
       9 -> 15         0.10904
      10 -> 15         0.23435
      10 -> 16         0.11149
      10 -> 17        -0.12974
      11 -> 14         0.12820
      11 -> 15         0.27308
      12 -> 16         0.38771
      12 -> 17         0.15746
      12 -> 18         0.17506
      12 -> 19         0.16976
      13 -> 20        -0.11342

 Excited State  14:      Singlet-A      9.7363 eV  127.34 nm  f=0.0646  <S**2>=0.000
      11 -> 15         0.51532
      11 -> 16         0.11532
      12 -> 16        -0.21704
      12 -> 17        -0.10616
      12 -> 18        -0.11593
      12 -> 19        -0.10765
      13 -> 20        -0.20845
      13 -> 21        -0.13402

 Excited State  15:      Singlet-A      9.9264 eV  124.90 nm  f=0.0294  <S**2>=0.000
       8 -> 16        -0.10233
       9 -> 16         0.18002
      10 -> 16        -0.31575
      10 -> 19        -0.17084
      11 -> 16         0.38821
      12 -> 17         0.19836
      13 -> 20         0.17038
      13 -> 21        -0.14906

 The electronic state is 1-A.
 Alpha  occ. eigenvalues --   -1.96659  -1.20842  -0.98468  -0.82432  -0.78927
 Alpha  occ. eigenvalues --   -0.70383  -0.67021  -0.52679  -0.49202  -0.43269
 Alpha  occ. eigenvalues --   -0.42761  -0.38212  -0.28310
 Alpha virt. eigenvalues --    0.12319   0.16668   0.18554   0.26347   0.27827
 Alpha virt. eigenvalues --    0.29818   0.32074   0.33558   0.40022   0.48158
 Alpha virt. eigenvalues --    0.53615

 Mulliken charges:
               1
     1  C   -0.090240
     2  C   -1.947281
     3  O    3.135331
     4  C   -1.934193
     5  C   -0.117376
     6  H    0.157820
     7  H    0.325904
     8  H    0.312657
     9  H    0.157377
 Sum of Mulliken charges =   0.00000

 Dipole moment (field-independent basis, Debye):
    X=             -3.4103    Y=             -8.9900    Z=              0.5204  Tot=              9.6291
 N-N= 1.046248731660D+02 E-N=-1.705000944351D+02  KE=-1.569413025687D+01
 Orbital energies and kinetic energies (alpha):
                                 1                 2
   1         O                -1.966589         -1.462129
   2         O                -1.208415         -1.074680
   3         O                -0.984677         -0.894801
   4         O                -0.824320         -0.625998
   5         O                -0.789269         -0.691034
   6         O                -0.703827         -0.573707
   7         O                -0.670215         -0.581535

 Normal termination of Gaussian 09 at Tue Dec 15 17:10:01 2015.
