 Gaussian 09, Revision D.01,
 Gaussian 09:  ES64L-G09RevD.01 24-Apr-2013

 ------------------------------------------------------------
 #P AM1(Input,print) CIS(Singlets,NStates=15) pop(full) force
 ------------------------------------------------------------

 -----------------
 AM1-Reparam Input
 -----------------
 Symbolic Z-matrix:
 Charge =  0 Multiplicity = 1

                         Standard orientation:
 ---------------------------------------------------------------------
 Center     Atomic      Atomic             Coordinates (Angstroms)
 Number     Number       Type             X           Y           Z
 ---------------------------------------------------------------------
      1          6           0        0.675878    0.981242   -0.020475
      2          6           0        1.064960   -0.289038    0.002296
      3          8           0        0.104754   -1.110560   -0.010340
      4          6           0       -1.089262   -0.452070    0.017828
      5          6           0       -0.756986    0.920529   -0.005822
      6          1           0       -1.513018    1.690538    0.009793
      7          1           0       -1.987048   -0.944526   -0.002989
      8          1           0        2.122285   -0.706192    0.045864
      9          1           0        1.172203    1.880684    0.067091
 ---------------------------------------------------------------------

 SCF Done:  E(RAM1) =   2.04259051829     A.U. after   13 cycles

 Excitation energies and oscillator strengths:

 Excited State   1:      Singlet-A      5.4128 eV  229.06 nm  f=0.3509  <S**2>=0.000
      13 -> 14         0.69444
 This state for optimization and/or second-order correction.
 Total Energy, E(CIS) =   2.24150562669
 Copying the excited state density for this state as the 1-particle RhoCI density.

 Excited State   2:      Singlet-A      6.5676 eV  188.78 nm  f=0.0087  <S**2>=0.000
      13 -> 15         0.65393
      13 -> 17         0.22441

 Excited State   3:      Singlet-A      6.7767 eV  182.96 nm  f=0.0016  <S**2>=0.000
      12 -> 14         0.69444

 Excited State   4:      Singlet-A      7.1669 eV  173.00 nm  f=0.0089  <S**2>=0.000
      13 -> 16         0.63776
      13 -> 17        -0.12988
      13 -> 18        -0.23767

 Excited State   5:      Singlet-A      7.6661 eV  161.73 nm  f=0.0065  <S**2>=0.000
      10 -> 14         0.66942
      11 -> 14        -0.19651

 Excited State   6:      Singlet-A      7.9343 eV  156.26 nm  f=0.0043  <S**2>=0.000
      13 -> 15        -0.13524
      13 -> 16         0.21703
      13 -> 17         0.29181
      13 -> 18         0.42548
      13 -> 19         0.36197
      13 -> 21        -0.10612

 Excited State   7:      Singlet-A      8.5940 eV  144.27 nm  f=0.1320  <S**2>=0.000
      10 -> 14         0.19628
      11 -> 14         0.66789

 Excited State   8:      Singlet-A      8.6568 eV  143.22 nm  f=0.0145  <S**2>=0.000
      13 -> 15        -0.17194
      13 -> 17         0.55986
      13 -> 18        -0.23219
      13 -> 19        -0.28103

 Excited State   9:      Singlet-A      9.4870 eV  130.69 nm  f=0.0242  <S**2>=0.000
       9 -> 15        -0.11897
      10 -> 15        -0.11049
      10 -> 16        -0.25924
      10 -> 18         0.12207
      12 -> 15         0.38223
      12 -> 16        -0.12075
      12 -> 17         0.25040
      12 -> 18         0.25846
      12 -> 19         0.17103

 Excited State  10:      Singlet-A      9.5607 eV  129.68 nm  f=0.0010  <S**2>=0.000
      11 -> 15         0.10088
      11 -> 16         0.25260
      13 -> 18        -0.33373
      13 -> 19         0.48616
      13 -> 20        -0.18073

 Excited State  11:      Singlet-A      9.7766 eV  126.82 nm  f=0.0810  <S**2>=0.000
      10 -> 15         0.30062
      10 -> 16         0.13976
      10 -> 17         0.16050
      11 -> 15        -0.19946
      12 -> 15         0.46634
      12 -> 16         0.12795
      12 -> 18        -0.14317
      12 -> 19        -0.13694

 Excited State  12:      Singlet-A      9.8827 eV  125.46 nm  f=0.0002  <S**2>=0.000
      13 -> 18        -0.18402
      13 -> 20         0.49606
      13 -> 21        -0.44500

 Excited State  13:      Singlet-A     10.0288 eV  123.63 nm  f=0.0017  <S**2>=0.000
       7 -> 15        -0.12517
      10 -> 15         0.14836
      11 -> 15         0.56628
      11 -> 16         0.15050
      11 -> 17         0.10323
      12 -> 15         0.10213
      13 -> 15        -0.12457
      13 -> 20         0.15541

 Excited State  14:      Singlet-A     10.1467 eV  122.19 nm  f=0.0844  <S**2>=0.000
      10 -> 16        -0.12064
      11 -> 16         0.16177
      12 -> 16         0.21235
      13 -> 20         0.38310
      13 -> 21         0.46930

 Excited State  15:      Singlet-A     10.1768 eV  121.83 nm  f=0.1570  <S**2>=0.000
      10 -> 16        -0.33083
      12 -> 16         0.49750
      12 -> 18        -0.14159
      13 -> 20        -0.17361
      13 -> 21        -0.20112

 The electronic state is 1-A.
 Alpha  occ. eigenvalues --   -1.96472  -1.20679  -0.96996  -0.83417  -0.78583
 Alpha  occ. eigenvalues --   -0.69444  -0.67160  -0.56820  -0.53648  -0.45263
 Alpha  occ. eigenvalues --   -0.44830  -0.42663  -0.31096
 Alpha virt. eigenvalues --    0.09482   0.15834   0.20485   0.24526   0.26761
 Alpha virt. eigenvalues --    0.27564   0.29392   0.30406   0.38964   0.46942
 Alpha virt. eigenvalues --    0.52551

 Mulliken charges:
               1
     1  C   -0.239132
     2  C   -2.038309
     3  O    3.190163
     4  C   -2.039406
     5  C   -0.169651
     6  H    0.258951
     7  H    0.368949
     8  H    0.406612
     9  H    0.261823
 Sum of Mulliken charges =   0.00000

 Dipole moment (field-independent basis, Debye):
    X=              1.8190    Y=             -8.9442    Z=             -0.1058  Tot=              9.1279
 N-N= 1.050857708989D+02 E-N=-1.707871450377D+02  KE=-1.555779184467D+01
 Orbital energies and kinetic energies (alpha):
                                 1                 2
   1         O                -1.964722         -1.435255
   2         O                -1.206791         -1.063271
   3         O                -0.969963         -0.864463
   4         O                -0.834165         -0.603214
   5         O                -0.785828         -0.685853
   6         O                -0.694445         -0.574365
   7         O                -0.671596         -0.523745

 Normal termination of Gaussian 09 at Tue Dec 15 17:07:29 2015.
