 Gaussian 09, Revision D.01,
 Gaussian 09:  ES64L-G09RevD.01 24-Apr-2013

 ------------------------------------------------------------
 #P AM1(Input,print) CIS(Singlets,NStates=15) pop(full) force
 ------------------------------------------------------------

 -----------------
 AM1-Reparam Input
 -----------------
 Symbolic Z-matrix:
 Charge =  0 Multiplicity = 1

                         Standard orientation:
 ---------------------------------------------------------------------
 Center     Atomic      Atomic             Coordinates (Angstroms)
 Number     Number       Type             X           Y           Z
 ---------------------------------------------------------------------
      1          6           0        0.559627    1.015389   -0.006607
      2          6           0        1.137285   -0.187972   -0.011430
      3          8           0        0.185658   -1.112927   -0.013445
      4          6           0       -1.030920   -0.500435    0.009945
      5          6           0       -0.857226    0.843068    0.026187
      6          1           0       -1.665486    1.532788   -0.070999
      7          1           0       -1.887181   -1.162659   -0.006423
      8          1           0        2.129413   -0.494770    0.098703
      9          1           0        1.085399    2.007760   -0.022291
 ---------------------------------------------------------------------

 SCF Done:  E(RAM1) =   1.80781972820     A.U. after   14 cycles

 Excitation energies and oscillator strengths:

 Excited State   1:      Singlet-A      5.4513 eV  227.44 nm  f=0.3392  <S**2>=0.000
      13 -> 14         0.69037
 This state for optimization and/or second-order correction.
 Total Energy, E(CIS) =   2.00815161811
 Copying the excited state density for this state as the 1-particle RhoCI density.

 Excited State   2:      Singlet-A      6.7462 eV  183.78 nm  f=0.0108  <S**2>=0.000
      13 -> 15         0.67576
      13 -> 17        -0.13871

 Excited State   3:      Singlet-A      6.9176 eV  179.23 nm  f=0.0001  <S**2>=0.000
      13 -> 16         0.66246
      13 -> 19         0.16225

 Excited State   4:      Singlet-A      7.4614 eV  166.17 nm  f=0.0007  <S**2>=0.000
      12 -> 14         0.69936

 Excited State   5:      Singlet-A      8.1609 eV  151.92 nm  f=0.0016  <S**2>=0.000
      11 -> 14        -0.25523
      13 -> 16        -0.11786
      13 -> 17        -0.38505
      13 -> 18         0.45416
      13 -> 21         0.21211

 Excited State   6:      Singlet-A      8.2150 eV  150.92 nm  f=0.0057  <S**2>=0.000
      10 -> 14        -0.20539
      11 -> 14         0.61207
      13 -> 17        -0.11863
      13 -> 18         0.22972

 Excited State   7:      Singlet-A      9.0419 eV  137.12 nm  f=0.0083  <S**2>=0.000
      10 -> 16        -0.13215
      13 -> 15         0.12508
      13 -> 17         0.53116
      13 -> 18         0.39881

 Excited State   8:      Singlet-A      9.1701 eV  135.21 nm  f=0.1031  <S**2>=0.000
      10 -> 14         0.64689
      11 -> 14         0.21157

 Excited State   9:      Singlet-A      9.5615 eV  129.67 nm  f=0.0015  <S**2>=0.000
      10 -> 15         0.11517
      13 -> 16        -0.12365
      13 -> 19         0.66204

 Excited State  10:      Singlet-A      9.7726 eV  126.87 nm  f=0.0521  <S**2>=0.000
       8 -> 15        -0.10712
       9 -> 16        -0.14316
      10 -> 15        -0.12380
      11 -> 15         0.28885
      11 -> 17        -0.14977
      11 -> 18        -0.18452
      12 -> 15        -0.14052
      12 -> 16        -0.26592
      12 -> 17         0.29867
      12 -> 18        -0.25814
      13 -> 14        -0.10903

 Excited State  11:      Singlet-A     10.0721 eV  123.10 nm  f=0.1202  <S**2>=0.000
      11 -> 15        -0.11042
      12 -> 15         0.52894
      12 -> 16        -0.38441
      12 -> 19        -0.11749

 Excited State  12:      Singlet-A     10.3436 eV  119.87 nm  f=0.0261  <S**2>=0.000
      13 -> 18        -0.20757
      13 -> 19        -0.11199
      13 -> 20        -0.38213
      13 -> 21         0.50805

 Excited State  13:      Singlet-A     10.4012 eV  119.20 nm  f=0.1316  <S**2>=0.000
      11 -> 15         0.31717
      11 -> 16         0.39132
      12 -> 15         0.24394
      12 -> 16         0.33753
      13 -> 21        -0.12102

 Excited State  14:      Singlet-A     10.5905 eV  117.07 nm  f=0.0678  <S**2>=0.000
      10 -> 15         0.31886
      10 -> 16        -0.10167
      11 -> 15         0.10783
      13 -> 20         0.48206
      13 -> 21         0.31748

 Excited State  15:      Singlet-A     10.6479 eV  116.44 nm  f=0.0481  <S**2>=0.000
      10 -> 15         0.48861
      10 -> 16         0.13213
      11 -> 15         0.11123
      12 -> 15        -0.12266
      12 -> 16        -0.17148
      13 -> 16         0.10207
      13 -> 20        -0.24600
      13 -> 21        -0.22738

 The electronic state is 1-A.
 Alpha  occ. eigenvalues --   -2.01178  -1.27752  -1.02144  -0.90555  -0.85054
 Alpha  occ. eigenvalues --   -0.76866  -0.75795  -0.64744  -0.61975  -0.53165
 Alpha  occ. eigenvalues --   -0.52191  -0.49954  -0.37325
 Alpha virt. eigenvalues --    0.03876   0.11119   0.11550   0.18877   0.20113
 Alpha virt. eigenvalues --    0.22291   0.25047   0.26393   0.29992   0.37697
 Alpha virt. eigenvalues --    0.43504

 Mulliken charges:
               1
     1  C   -0.171660
     2  C   -1.895809
     3  O    3.176019
     4  C   -1.899345
     5  C   -0.100625
     6  H    0.152414
     7  H    0.282166
     8  H    0.288210
     9  H    0.168630
 Sum of Mulliken charges =   0.00000

 Dipole moment (field-independent basis, Debye):
    X=              1.6795    Y=            -10.0001    Z=             -0.0704  Tot=             10.1404
 N-N= 1.060924187339D+02 E-N=-1.712989423821D+02  KE=-1.569628025566D+01
 Orbital energies and kinetic energies (alpha):
                                 1                 2
   1         O                -2.011779         -1.400699
   2         O                -1.277522         -1.043437
   3         O                -1.021443         -0.885381
   4         O                -0.905549         -0.594209
   5         O                -0.850540         -0.706824
   6         O                -0.768656         -0.596725
   7         O                -0.757952         -0.549909

 Normal termination of Gaussian 09 at Tue Dec 15 17:08:58 2015.
