 Gaussian 09, Revision D.01,
 Gaussian 09:  ES64L-G09RevD.01 24-Apr-2013

 ------------------------------------------------------------
 #P AM1(Input,print) CIS(Singlets,NStates=15) pop(full) force
 ------------------------------------------------------------

 -----------------
 AM1-Reparam Input
 -----------------
 Symbolic Z-matrix:
 Charge =  0 Multiplicity = 1

                         Standard orientation:
 ---------------------------------------------------------------------
 Center     Atomic      Atomic             Coordinates (Angstroms)
 Number     Number       Type             X           Y           Z
 ---------------------------------------------------------------------
      1          6           0        0.959612    0.811778    0.014553
      2          6           0        0.988970   -0.599361   -0.004518
      3          8           0       -0.284980   -1.155866    0.008552
      4          6           0       -1.119805   -0.053989   -0.024754
      5          6           0       -0.525720    1.073199    0.000333
      6          1           0       -0.919785    2.022008   -0.017033
      7          1           0       -2.191863   -0.412602    0.069901
      8          1           0        1.864087   -1.278295   -0.035103
      9          1           0        1.709057    1.526061    0.000133
 ---------------------------------------------------------------------

 SCF Done:  E(RAM1) =   1.77520643407     A.U. after   14 cycles

 Excitation energies and oscillator strengths:

 Excited State   1:      Singlet-A      5.0920 eV  243.49 nm  f=0.3873  <S**2>=0.000
      13 -> 14         0.69789
 This state for optimization and/or second-order correction.
 Total Energy, E(CIS) =   1.96233270494
 Copying the excited state density for this state as the 1-particle RhoCI density.

 Excited State   2:      Singlet-A      6.2085 eV  199.70 nm  f=0.0001  <S**2>=0.000
      13 -> 15         0.68255

 Excited State   3:      Singlet-A      6.6171 eV  187.37 nm  f=0.0003  <S**2>=0.000
      12 -> 14         0.70224

 Excited State   4:      Singlet-A      6.8422 eV  181.21 nm  f=0.0017  <S**2>=0.000
      13 -> 16         0.66061
      13 -> 17        -0.19028

 Excited State   5:      Singlet-A      8.2201 eV  150.83 nm  f=0.0070  <S**2>=0.000
      11 -> 14         0.69396

 Excited State   6:      Singlet-A      8.2391 eV  150.48 nm  f=0.0005  <S**2>=0.000
      13 -> 16         0.14499
      13 -> 17         0.56931
      13 -> 18        -0.29570
      13 -> 22         0.18855

 Excited State   7:      Singlet-A      8.9905 eV  137.91 nm  f=0.0147  <S**2>=0.000
      13 -> 17         0.28313
      13 -> 18         0.61769

 Excited State   8:      Singlet-A      9.0420 eV  137.12 nm  f=0.0747  <S**2>=0.000
       9 -> 15         0.10977
      10 -> 14         0.46794
      12 -> 15         0.44831
      12 -> 17         0.14244

 Excited State   9:      Singlet-A      9.3867 eV  132.08 nm  f=0.2133  <S**2>=0.000
      10 -> 14         0.46229
      12 -> 15        -0.41925
      12 -> 16         0.18494
      12 -> 17        -0.11967
      13 -> 20         0.14986

 Excited State  10:      Singlet-A      9.5327 eV  130.06 nm  f=0.0013  <S**2>=0.000
      13 -> 19         0.68351

 Excited State  11:      Singlet-A      9.9758 eV  124.28 nm  f=0.0101  <S**2>=0.000
      11 -> 15         0.18940
      11 -> 18        -0.17625
      12 -> 15         0.27550
      12 -> 16         0.43319
      12 -> 17        -0.33039

 Excited State  12:      Singlet-A     10.3102 eV  120.25 nm  f=0.0580  <S**2>=0.000
      13 -> 17         0.12323
      13 -> 20        -0.20703
      13 -> 21         0.57929
      13 -> 22        -0.27819

 Excited State  13:      Singlet-A     10.3927 eV  119.30 nm  f=0.1083  <S**2>=0.000
      10 -> 14        -0.17777
      11 -> 15        -0.11741
      13 -> 20         0.62122
      13 -> 21         0.17286
      13 -> 22        -0.10352

 Excited State  14:      Singlet-A     10.6006 eV  116.96 nm  f=0.0359  <S**2>=0.000
      12 -> 16         0.12147
      13 -> 17        -0.12174
      13 -> 21         0.29294
      13 -> 22         0.57207

 Excited State  15:      Singlet-A     10.6792 eV  116.10 nm  f=0.0837  <S**2>=0.000
       9 -> 16        -0.13894
      11 -> 15        -0.14061
      11 -> 16        -0.14339
      11 -> 18         0.13569
      12 -> 16         0.42138
      12 -> 17         0.29463
      12 -> 19         0.20109
      13 -> 20        -0.11756
      13 -> 22        -0.15534

 The electronic state is 1-A.
 Alpha  occ. eigenvalues --   -1.89485  -1.15975  -0.91079  -0.81414  -0.77287
 Alpha  occ. eigenvalues --   -0.69760  -0.66342  -0.55049  -0.54062  -0.46152
 Alpha  occ. eigenvalues --   -0.45470  -0.40008  -0.27849
 Alpha virt. eigenvalues --    0.10909   0.16626   0.19870   0.28664   0.29731
 Alpha virt. eigenvalues --    0.31989   0.32426   0.34204   0.36601   0.41765
 Alpha virt. eigenvalues --    0.44342

 Mulliken charges:
               1
     1  C   -0.211573
     2  C   -2.021497
     3  O    3.279102
     4  C   -1.937115
     5  C   -0.154330
     6  H    0.198518
     7  H    0.311095
     8  H    0.334062
     9  H    0.201737
 Sum of Mulliken charges =   0.00000

 Dipole moment (field-independent basis, Debye):
    X=             -3.4118    Y=            -11.3772    Z=              0.4023  Tot=             11.8846
 N-N= 1.032182223645D+02 E-N=-1.682519364384D+02  KE=-1.543547123469D+01
 Orbital energies and kinetic energies (alpha):
                                 1                 2
   1         O                -1.894847         -1.339445
   2         O                -1.159749         -1.054620
   3         O                -0.910790         -0.886003
   4         O                -0.814136         -0.573956
   5         O                -0.772871         -0.671668
   6         O                -0.697598         -0.597057
   7         O                -0.663418         -0.531245

 Normal termination of Gaussian 09 at Tue Dec 15 17:09:47 2015.
