 Gaussian 09, Revision D.01,
 Gaussian 09:  ES64L-G09RevD.01 24-Apr-2013

 ------------------------------------------------------------
 #P AM1(Input,print) CIS(Singlets,NStates=15) pop(full) force
 ------------------------------------------------------------

 -----------------
 AM1-Reparam Input
 -----------------
 Symbolic Z-matrix:
 Charge =  0 Multiplicity = 1

                         Standard orientation:
 ---------------------------------------------------------------------
 Center     Atomic      Atomic             Coordinates (Angstroms)
 Number     Number       Type             X           Y           Z
 ---------------------------------------------------------------------
      1          6           0        0.906798    0.776835   -0.013504
      2          6           0        1.034385   -0.574751    0.020855
      3          8           0       -0.305036   -1.109669   -0.002194
      4          6           0       -1.147473   -0.105361   -0.002074
      5          6           0       -0.458687    1.060529   -0.015200
      6          1           0       -0.909003    2.133576    0.071905
      7          1           0       -2.221451   -0.316488    0.014679
      8          1           0        1.834847   -1.276483   -0.028184
      9          1           0        1.725766    1.393239    0.018693
 ---------------------------------------------------------------------

 SCF Done:  E(RAM1) =  -5.26148618447     A.U. after   14 cycles

 Excitation energies and oscillator strengths:

 Excited State   1:      Singlet-A      6.2759 eV  197.56 nm  f=0.0089  <S**2>=0.000
      13 -> 15         0.68032
      13 -> 16         0.11070
 This state for optimization and/or second-order correction.
 Total Energy, E(CIS) =  -5.03085262661
 Copying the excited state density for this state as the 1-particle RhoCI density.

 Excited State   2:      Singlet-A      6.8429 eV  181.19 nm  f=0.2171  <S**2>=0.000
      13 -> 14         0.65271
      13 -> 15        -0.10519
      13 -> 16         0.15208

 Excited State   3:      Singlet-A      7.2402 eV  171.24 nm  f=0.0322  <S**2>=0.000
      13 -> 14        -0.16437
      13 -> 16         0.65793

 Excited State   4:      Singlet-A      7.6119 eV  162.88 nm  f=0.0112  <S**2>=0.000
       9 -> 14        -0.12179
      12 -> 14         0.68012

 Excited State   5:      Singlet-A      7.9460 eV  156.03 nm  f=0.0032  <S**2>=0.000
      11 -> 14         0.69265

 Excited State   6:      Singlet-A      8.6577 eV  143.21 nm  f=0.0065  <S**2>=0.000
      11 -> 15        -0.12686
      12 -> 15         0.64387
      12 -> 19         0.11669
      13 -> 17         0.14231

 Excited State   7:      Singlet-A      8.9194 eV  139.01 nm  f=0.0023  <S**2>=0.000
      10 -> 14         0.14558
      10 -> 15         0.16273
      13 -> 17         0.36708
      13 -> 18         0.22327
      13 -> 19         0.37963
      13 -> 20        -0.20541
      13 -> 21        -0.23856

 Excited State   8:      Singlet-A      9.0375 eV  137.19 nm  f=0.0331  <S**2>=0.000
      10 -> 14        -0.31054
      12 -> 15         0.15035
      13 -> 17        -0.37825
      13 -> 18         0.42815
      13 -> 19         0.12546

 Excited State   9:      Singlet-A      9.3081 eV  133.20 nm  f=0.0075  <S**2>=0.000
      10 -> 15         0.45498
      10 -> 16        -0.10930
      13 -> 17        -0.24160
      13 -> 18        -0.31967
      13 -> 19         0.29090
      13 -> 20         0.11852

 Excited State  10:      Singlet-A      9.4880 eV  130.67 nm  f=0.0646  <S**2>=0.000
      10 -> 14        -0.16888
      10 -> 15         0.13360
      11 -> 15         0.51060
      11 -> 16         0.31769
      12 -> 16         0.11181
      13 -> 20         0.13322

 Excited State  11:      Singlet-A      9.5259 eV  130.15 nm  f=0.0098  <S**2>=0.000
      10 -> 15         0.41402
      10 -> 16         0.27476
      13 -> 18         0.11136
      13 -> 19        -0.38760
      13 -> 20        -0.17943

 Excited State  12:      Singlet-A      9.5478 eV  129.86 nm  f=0.0133  <S**2>=0.000
      10 -> 15         0.11300
      11 -> 15        -0.14339
      11 -> 16        -0.10439
      13 -> 17         0.16112
      13 -> 18         0.28533
      13 -> 20         0.53376
      13 -> 21         0.12803
      13 -> 23         0.11425

 Excited State  13:      Singlet-A      9.9438 eV  124.68 nm  f=0.0086  <S**2>=0.000
       8 -> 15        -0.10099
       9 -> 15         0.15906
      10 -> 14        -0.20540
      11 -> 15        -0.22214
      12 -> 16         0.51861
      12 -> 20         0.10301
      12 -> 21         0.10313
      12 -> 22         0.12086
      13 -> 17         0.11803

 Excited State  14:      Singlet-A      9.9978 eV  124.01 nm  f=0.0426  <S**2>=0.000
       9 -> 14        -0.19993
      10 -> 14         0.36412
      11 -> 15        -0.10898
      11 -> 16         0.41072
      11 -> 19        -0.10568
      12 -> 16         0.15378
      13 -> 17        -0.21230
      13 -> 18         0.10881

 Excited State  15:      Singlet-A     10.2126 eV  121.40 nm  f=0.0019  <S**2>=0.000
       9 -> 14         0.62555
      11 -> 16         0.17832
      12 -> 14         0.10322

 The electronic state is 1-A.
 Alpha  occ. eigenvalues --   -3.88423  -1.36454  -1.02029  -1.00401  -1.00052
 Alpha  occ. eigenvalues --   -0.88913  -0.81793  -0.65774  -0.59777  -0.57293
 Alpha  occ. eigenvalues --   -0.54654  -0.53023  -0.44781
 Alpha virt. eigenvalues --    0.00625   0.01842   0.05404   0.11722   0.11942
 Alpha virt. eigenvalues --    0.13019   0.15138   0.18646   0.19534   0.22619
 Alpha virt. eigenvalues --    0.25832

 Mulliken charges:
               1
     1  C   -0.401159
     2  C   -1.284661
     3  O    2.703189
     4  C   -1.315054
     5  C   -0.500483
     6  H    0.254817
     7  H    0.172442
     8  H    0.149704
     9  H    0.221204
 Sum of Mulliken charges =   0.00000

 Dipole moment (field-independent basis, Debye):
    X=             -3.1599    Y=             -9.3451    Z=              0.0017  Tot=              9.8649
 N-N= 1.022232285322D+02 E-N=-1.655010646927D+02  KE=-2.280104460481D+01
 Orbital energies and kinetic energies (alpha):
                                 1                 2
   1         O                -3.884226         -3.068036
   2         O                -1.364539         -1.199298
   3         O                -1.020294         -0.907714
   4         O                -1.004013         -0.922119
   5         O                -1.000517         -0.903652
   6         O                -0.889129         -0.801042
   7         O                -0.817931         -0.658883

 Normal termination of Gaussian 09 at Fri Dec 11 13:41:34 2015.
