 Gaussian 09, Revision D.01,
 Gaussian 09:  ES64L-G09RevD.01 24-Apr-2013

 ------------------------------------------------------------
 #P AM1(Input,print) CIS(Singlets,NStates=15) pop(full) force
 ------------------------------------------------------------

 -----------------
 AM1-Reparam Input
 -----------------
 Symbolic Z-matrix:
 Charge =  0 Multiplicity = 1

                         Standard orientation:
 ---------------------------------------------------------------------
 Center     Atomic      Atomic             Coordinates (Angstroms)
 Number     Number       Type             X           Y           Z
 ---------------------------------------------------------------------
      1          6           0       -0.539353    1.061019   -0.012649
      2          6           0       -1.170045   -0.182549    0.028961
      3          8           0       -0.201308   -1.090727   -0.017120
      4          6           0        1.014732   -0.522020   -0.001889
      5          6           0        0.911592    0.780923   -0.009582
      6          1           0        1.622497    1.557458    0.076031
      7          1           0        1.845513   -1.197540    0.044122
      8          1           0       -2.155868   -0.461706    0.015911
      9          1           0       -1.003236    2.003364   -0.028147
 ---------------------------------------------------------------------

 SCF Done:  E(RAM1) =  -4.07941223664     A.U. after   14 cycles

 Excitation energies and oscillator strengths:

 Excited State   1:      Singlet-A      6.3472 eV  195.34 nm  f=0.3151  <S**2>=0.000
      13 -> 14         0.69185
 This state for optimization and/or second-order correction.
 Total Energy, E(CIS) =  -3.84615684492
 Copying the excited state density for this state as the 1-particle RhoCI density.

 Excited State   2:      Singlet-A      7.5980 eV  163.18 nm  f=0.0014  <S**2>=0.000
      11 -> 14        -0.30019
      12 -> 14         0.63090

 Excited State   3:      Singlet-A      8.0290 eV  154.42 nm  f=0.0012  <S**2>=0.000
      13 -> 15         0.62019
      13 -> 16        -0.29868

 Excited State   4:      Singlet-A      8.0903 eV  153.25 nm  f=0.0048  <S**2>=0.000
      13 -> 15         0.29624
      13 -> 16         0.62770

 Excited State   5:      Singlet-A      8.7241 eV  142.12 nm  f=0.0034  <S**2>=0.000
       8 -> 14        -0.10011
      10 -> 14         0.66034
      11 -> 14        -0.19827

 Excited State   6:      Singlet-A      9.1940 eV  134.85 nm  f=0.0422  <S**2>=0.000
       9 -> 14         0.19039
      11 -> 14         0.12648
      13 -> 17         0.65693

 Excited State   7:      Singlet-A      9.5909 eV  129.27 nm  f=0.0067  <S**2>=0.000
      10 -> 14         0.18999
      11 -> 14         0.58171
      12 -> 14         0.29891
      13 -> 17        -0.14364

 Excited State   8:      Singlet-A     10.3247 eV  120.08 nm  f=0.0010  <S**2>=0.000
      13 -> 18        -0.33789
      13 -> 19         0.59729

 Excited State   9:      Singlet-A     10.4618 eV  118.51 nm  f=0.0019  <S**2>=0.000
       9 -> 15        -0.10290
      13 -> 18         0.59786
      13 -> 19         0.33818

 Excited State  10:      Singlet-A     10.6555 eV  116.36 nm  f=0.0588  <S**2>=0.000
       9 -> 14         0.61608
      11 -> 16        -0.10206
      12 -> 16        -0.18718
      13 -> 17        -0.17667

 Excited State  11:      Singlet-A     11.0861 eV  111.84 nm  f=0.0398  <S**2>=0.000
       9 -> 14        -0.14100
      10 -> 16         0.18997
      11 -> 15        -0.32659
      12 -> 15         0.46926
      12 -> 19        -0.25196

 Excited State  12:      Singlet-A     11.4402 eV  108.38 nm  f=0.0147  <S**2>=0.000
       8 -> 14         0.64648
      12 -> 16         0.19415
      12 -> 17        -0.11959

 Excited State  13:      Singlet-A     11.6029 eV  106.86 nm  f=0.2086  <S**2>=0.000
       8 -> 14        -0.19322
       9 -> 14         0.11899
      10 -> 15        -0.24611
      11 -> 16        -0.19497
      12 -> 15         0.15079
      12 -> 16         0.53173

 Excited State  14:      Singlet-A     11.8013 eV  105.06 nm  f=0.0036  <S**2>=0.000
      10 -> 16         0.45437
      11 -> 15        -0.16454
      12 -> 15        -0.40852
      12 -> 19        -0.15297

 Excited State  15:      Singlet-A     12.0430 eV  102.95 nm  f=0.0184  <S**2>=0.000
       9 -> 16         0.13432
      13 -> 20         0.66342

 The electronic state is 1-A.
 Alpha  occ. eigenvalues --   -3.75080  -1.18795  -0.91054  -0.89242  -0.86579
 Alpha  occ. eigenvalues --   -0.77416  -0.76044  -0.62169  -0.56366  -0.53949
 Alpha  occ. eigenvalues --   -0.53227  -0.49876  -0.38217
 Alpha virt. eigenvalues --    0.06473   0.15865   0.16744   0.19016   0.25260
 Alpha virt. eigenvalues --    0.26571   0.32219   0.34920   0.42947   0.48398
 Alpha virt. eigenvalues --    0.50032

 Mulliken charges:
               1
     1  C   -0.089729
     2  C   -1.384699
     3  O    2.929306
     4  C   -1.348687
     5  C   -0.027661
     6  H   -0.030840
     7  H   -0.012891
     8  H   -0.009280
     9  H   -0.025518
 Sum of Mulliken charges =   0.00000

 Dipole moment (field-independent basis, Debye):
    X=             -1.3868    Y=            -10.0828    Z=             -0.3540  Tot=             10.1839
 N-N= 1.049540534037D+02 E-N=-1.718068648190D+02  KE=-2.169979403316D+01
 Orbital energies and kinetic energies (alpha):
                                 1                 2
   1         O                -3.750796         -2.957990
   2         O                -1.187951         -1.037073
   3         O                -0.910539         -0.754645
   4         O                -0.892422         -0.798667
   5         O                -0.865787         -0.805559
   6         O                -0.774160         -0.698225
   7         O                -0.760437         -0.768101

 Normal termination of Gaussian 09 at Fri Dec 11 13:41:22 2015.
