 Gaussian 09, Revision D.01,
 Gaussian 09:  ES64L-G09RevD.01 24-Apr-2013

 ------------------------------------------------------------
 #P AM1(Input,print) CIS(Singlets,NStates=15) pop(full) force
 ------------------------------------------------------------

 -----------------
 AM1-Reparam Input
 -----------------
 Symbolic Z-matrix:
 Charge =  0 Multiplicity = 1

                         Standard orientation:
 ---------------------------------------------------------------------
 Center     Atomic      Atomic             Coordinates (Angstroms)
 Number     Number       Type             X           Y           Z
 ---------------------------------------------------------------------
      1          6           0        0.804052    0.840071    0.001280
      2          6           0        1.027364   -0.520018   -0.011118
      3          8           0       -0.188200   -1.107461    0.028342
      4          6           0       -1.102251   -0.202701   -0.025629
      5          6           0       -0.527351    1.054121   -0.014606
      6          1           0       -1.063821    1.971322    0.073959
      7          1           0       -2.176746   -0.569906    0.004219
      8          1           0        1.924076   -1.135306   -0.049914
      9          1           0        1.611208    1.564739    0.045441
 ---------------------------------------------------------------------

 SCF Done:  E(RAM1) =   2.57955600166     A.U. after   13 cycles

 Excitation energies and oscillator strengths:

 Excited State   1:      Singlet-A      5.5017 eV  225.36 nm  f=0.3290  <S**2>=0.000
      13 -> 14         0.69470
 This state for optimization and/or second-order correction.
 Total Energy, E(CIS) =   2.78173803667
 Copying the excited state density for this state as the 1-particle RhoCI density.

 Excited State   2:      Singlet-A      6.4974 eV  190.82 nm  f=0.0018  <S**2>=0.000
      10 -> 15         0.11322
      13 -> 15         0.66809
      13 -> 18        -0.10517

 Excited State   3:      Singlet-A      6.8846 eV  180.09 nm  f=0.0038  <S**2>=0.000
      12 -> 14         0.53071
      13 -> 16        -0.42526

 Excited State   4:      Singlet-A      6.9665 eV  177.97 nm  f=0.0014  <S**2>=0.000
      11 -> 14         0.21945
      12 -> 14         0.40462
      13 -> 16         0.50715

 Excited State   5:      Singlet-A      7.3215 eV  169.34 nm  f=0.0037  <S**2>=0.000
      10 -> 14        -0.33414
      11 -> 14         0.57301
      12 -> 14        -0.17759
      13 -> 16        -0.13561

 Excited State   6:      Singlet-A      8.3142 eV  149.12 nm  f=0.0003  <S**2>=0.000
      13 -> 17         0.66467
      13 -> 21         0.12799

 Excited State   7:      Singlet-A      8.4802 eV  146.20 nm  f=0.1045  <S**2>=0.000
      10 -> 14         0.60897
      11 -> 14         0.32368
      12 -> 14        -0.10305

 Excited State   8:      Singlet-A      9.2556 eV  133.96 nm  f=0.0247  <S**2>=0.000
       7 -> 15        -0.12289
      10 -> 15         0.27214
      10 -> 16        -0.15648
      11 -> 15         0.32620
      12 -> 15        -0.19901
      12 -> 17         0.10564
      13 -> 18         0.44281

 Excited State   9:      Singlet-A      9.3267 eV  132.94 nm  f=0.0418  <S**2>=0.000
       9 -> 15         0.13365
      10 -> 15         0.28331
      10 -> 16         0.12335
      11 -> 16        -0.27131
      11 -> 17        -0.10926
      11 -> 18         0.16047
      12 -> 15         0.30934
      12 -> 17        -0.25367
      13 -> 18         0.19891

 Excited State  10:      Singlet-A      9.5973 eV  129.19 nm  f=0.1609  <S**2>=0.000
      10 -> 15        -0.14744
      10 -> 16         0.17663
      11 -> 15         0.50604
      12 -> 15         0.26293
      12 -> 16        -0.17445
      13 -> 18        -0.13347
      13 -> 19         0.14235

 Excited State  11:      Singlet-A      9.6841 eV  128.03 nm  f=0.0069  <S**2>=0.000
      10 -> 15         0.27833
      10 -> 16         0.28792
      11 -> 15        -0.17875
      11 -> 16         0.20168
      12 -> 15        -0.13254
      12 -> 16        -0.25615
      13 -> 17        -0.10559
      13 -> 19         0.36507

 Excited State  12:      Singlet-A      9.7923 eV  126.61 nm  f=0.1342  <S**2>=0.000
      10 -> 16         0.27257
      11 -> 15         0.10437
      12 -> 15        -0.18906
      12 -> 16         0.52250
      12 -> 19         0.17264
      13 -> 18        -0.10387
      13 -> 19         0.14379

 Excited State  13:      Singlet-A      9.9670 eV  124.39 nm  f=0.0003  <S**2>=0.000
      10 -> 15         0.38883
      11 -> 15         0.15278
      13 -> 15        -0.19366
      13 -> 18        -0.37866
      13 -> 19        -0.32507

 Excited State  14:      Singlet-A     10.2954 eV  120.43 nm  f=0.0100  <S**2>=0.000
       8 -> 15         0.15945
       8 -> 16        -0.11183
       9 -> 15         0.16063
      10 -> 17         0.10293
      11 -> 16         0.21330
      12 -> 15         0.28366
      12 -> 16         0.27525
      12 -> 17         0.35232
      12 -> 20        -0.10768

 Excited State  15:      Singlet-A     10.5543 eV  117.47 nm  f=0.0019  <S**2>=0.000
       9 -> 14        -0.26606
      10 -> 16         0.37346
      11 -> 16         0.18233
      13 -> 16         0.15090
      13 -> 18         0.22672
      13 -> 19        -0.36245

 The electronic state is 1-A.
 Alpha  occ. eigenvalues --   -1.86550  -1.14843  -0.87625  -0.80275  -0.74895
 Alpha  occ. eigenvalues --   -0.66562  -0.64836  -0.56757  -0.54939  -0.45095
 Alpha  occ. eigenvalues --   -0.44777  -0.43802  -0.32508
 Alpha virt. eigenvalues --    0.08849   0.14593   0.17253   0.24591   0.26409
 Alpha virt. eigenvalues --    0.28601   0.34562   0.39911   0.51458   0.58524
 Alpha virt. eigenvalues --    0.63433

 Mulliken charges:
               1
     1  C   -0.149361
     2  C   -2.017602
     3  O    3.426216
     4  C   -2.037180
     5  C   -0.201587
     6  H    0.198082
     7  H    0.298023
     8  H    0.282726
     9  H    0.200683
 Sum of Mulliken charges =   0.00000

 Dipole moment (field-independent basis, Debye):
    X=             -2.0827    Y=            -10.1084    Z=              0.7681  Tot=             10.3492
 N-N= 1.047586902064D+02 E-N=-1.708867122447D+02  KE=-1.440230766931D+01
 Orbital energies and kinetic energies (alpha):
                                 1                 2
   1         O                -1.865496         -1.293025
   2         O                -1.148429         -0.979188
   3         O                -0.876249         -0.773832
   4         O                -0.802754         -0.539133
   5         O                -0.748947         -0.617870
   6         O                -0.665618         -0.564373
   7         O                -0.648365         -0.506891

 Normal termination of Gaussian 09 at Tue Dec 15 17:07:35 2015.
