 Gaussian 09, Revision D.01,
 Gaussian 09:  ES64L-G09RevD.01 24-Apr-2013

 ------------------------------------------------------------
 #P AM1(Input,print) CIS(Singlets,NStates=15) pop(full) force
 ------------------------------------------------------------

 -----------------
 AM1-Reparam Input
 -----------------
 Symbolic Z-matrix:
 Charge =  0 Multiplicity = 1

                         Standard orientation:
 ---------------------------------------------------------------------
 Center     Atomic      Atomic             Coordinates (Angstroms)
 Number     Number       Type             X           Y           Z
 ---------------------------------------------------------------------
      1          6           0       -0.758455    0.927988   -0.011958
      2          6           0       -1.090365   -0.318593    0.029877
      3          8           0        0.016607   -1.170386   -0.037171
      4          6           0        1.068205   -0.332823    0.042094
      5          6           0        0.758371    0.984817   -0.009150
      6          1           0        1.365174    1.773344   -0.016099
      7          1           0        2.037449   -0.902824   -0.007160
      8          1           0       -2.057556   -0.851726    0.034843
      9          1           0       -1.344462    1.775963   -0.019400
 ---------------------------------------------------------------------

 SCF Done:  E(RAM1) =   2.10540868571     A.U. after   14 cycles

 Excitation energies and oscillator strengths:

 Excited State   1:      Singlet-A      4.9409 eV  250.94 nm  f=0.3580  <S**2>=0.000
      13 -> 14         0.69690
 This state for optimization and/or second-order correction.
 Total Energy, E(CIS) =   2.28698290534
 Copying the excited state density for this state as the 1-particle RhoCI density.

 Excited State   2:      Singlet-A      5.9973 eV  206.73 nm  f=0.0015  <S**2>=0.000
      13 -> 15         0.62795
      13 -> 16        -0.12708
      13 -> 17        -0.26108
      13 -> 18        -0.10467

 Excited State   3:      Singlet-A      6.3489 eV  195.28 nm  f=0.0010  <S**2>=0.000
      12 -> 14         0.69688

 Excited State   4:      Singlet-A      6.4497 eV  192.23 nm  f=0.0043  <S**2>=0.000
      13 -> 15         0.16664
      13 -> 16         0.62628
      13 -> 18         0.24539

 Excited State   5:      Singlet-A      7.3111 eV  169.58 nm  f=0.0013  <S**2>=0.000
      13 -> 15         0.19788
      13 -> 16        -0.18080
      13 -> 17         0.45773
      13 -> 18         0.29610
      13 -> 19        -0.32728

 Excited State   6:      Singlet-A      8.0041 eV  154.90 nm  f=0.0208  <S**2>=0.000
      10 -> 14         0.62217
      11 -> 14         0.10425
      13 -> 17        -0.17398
      13 -> 18         0.20913

 Excited State   7:      Singlet-A      8.0679 eV  153.68 nm  f=0.0157  <S**2>=0.000
      10 -> 14         0.29704
      13 -> 15         0.12208
      13 -> 17         0.42189
      13 -> 18        -0.36183
      13 -> 19         0.25100

 Excited State   8:      Singlet-A      8.5456 eV  145.09 nm  f=0.0040  <S**2>=0.000
      13 -> 16        -0.14103
      13 -> 18         0.38187
      13 -> 19         0.55976

 Excited State   9:      Singlet-A      8.6682 eV  143.03 nm  f=0.0967  <S**2>=0.000
      10 -> 14        -0.10911
      11 -> 14         0.66041
      12 -> 16        -0.11265

 Excited State  10:      Singlet-A      9.1405 eV  135.64 nm  f=0.2146  <S**2>=0.000
       9 -> 15         0.11766
      10 -> 18         0.11571
      12 -> 15         0.45405
      12 -> 16        -0.26644
      12 -> 17        -0.28053
      12 -> 18        -0.21799
      12 -> 19         0.13035

 Excited State  11:      Singlet-A      9.5451 eV  129.89 nm  f=0.0057  <S**2>=0.000
      13 -> 20         0.64726
      13 -> 21        -0.24441

 Excited State  12:      Singlet-A      9.7907 eV  126.63 nm  f=0.0538  <S**2>=0.000
      12 -> 15        -0.10371
      12 -> 16        -0.13439
      13 -> 20         0.22497
      13 -> 21         0.62170

 Excited State  13:      Singlet-A      9.8285 eV  126.15 nm  f=0.0686  <S**2>=0.000
      11 -> 14         0.13768
      12 -> 15         0.36873
      12 -> 16         0.47023
      12 -> 18         0.18776
      13 -> 21         0.17699

 Excited State  14:      Singlet-A     10.0300 eV  123.61 nm  f=0.0784  <S**2>=0.000
       9 -> 16        -0.11359
      10 -> 16         0.13029
      10 -> 18         0.13083
      11 -> 15         0.15531
      12 -> 15        -0.21952
      12 -> 16         0.30831
      12 -> 17        -0.29286
      12 -> 18        -0.16691
      12 -> 19         0.34494

 Excited State  15:      Singlet-A     10.1016 eV  122.74 nm  f=0.0031  <S**2>=0.000
       7 -> 15         0.14570
      10 -> 15        -0.11293
      11 -> 15         0.62637
      13 -> 15         0.11670

 The electronic state is 1-A.
 Alpha  occ. eigenvalues --   -1.93892  -1.19242  -0.95644  -0.82781  -0.78149
 Alpha  occ. eigenvalues --   -0.69152  -0.64420  -0.53833  -0.52909  -0.44966
 Alpha  occ. eigenvalues --   -0.44099  -0.39480  -0.26910
 Alpha virt. eigenvalues --    0.10956   0.17655   0.19396   0.26339   0.27746
 Alpha virt. eigenvalues --    0.29912   0.32283   0.33294   0.34757   0.44110
 Alpha virt. eigenvalues --    0.47555

 Mulliken charges:
               1
     1  C   -0.185740
     2  C   -1.943837
     3  O    3.164424
     4  C   -1.974515
     5  C   -0.267366
     6  H    0.246157
     7  H    0.358598
     8  H    0.358200
     9  H    0.244079
 Sum of Mulliken charges =   0.00000

 Dipole moment (field-independent basis, Debye):
    X=              0.0595    Y=            -11.3777    Z=             -1.0789  Tot=             11.4289
 N-N= 1.042921686755D+02 E-N=-1.695766693756D+02  KE=-1.548733001006D+01
 Orbital energies and kinetic energies (alpha):
                                 1                 2
   1         O                -1.938925         -1.376299
   2         O                -1.192424         -1.071014
   3         O                -0.956437         -0.882313
   4         O                -0.827807         -0.602473
   5         O                -0.781485         -0.662132
   6         O                -0.691519         -0.572151
   7         O                -0.644201         -0.518319

 Normal termination of Gaussian 09 at Tue Dec 15 17:07:11 2015.
