 Gaussian 09, Revision D.01,
 Gaussian 09:  ES64L-G09RevD.01 24-Apr-2013

 ------------------------------------------------------------
 #P AM1(Input,print) CIS(Singlets,NStates=15) pop(full) force
 ------------------------------------------------------------

 -----------------
 AM1-Reparam Input
 -----------------
 Symbolic Z-matrix:
 Charge =  0 Multiplicity = 1

                         Standard orientation:
 ---------------------------------------------------------------------
 Center     Atomic      Atomic             Coordinates (Angstroms)
 Number     Number       Type             X           Y           Z
 ---------------------------------------------------------------------
      1          6           0        0.997475    0.685063   -0.014824
      2          6           0        0.940449   -0.633211   -0.000099
      3          8           0       -0.343307   -1.080257   -0.024714
      4          6           0       -1.184418   -0.037306    0.038479
      5          6           0       -0.389944    1.104132    0.005761
      6          1           0       -0.719698    2.168621   -0.062461
      7          1           0       -2.209550   -0.159561   -0.029901
      8          1           0        1.684739   -1.406406    0.074416
      9          1           0        1.809589    1.327340    0.039754
 ---------------------------------------------------------------------

 SCF Done:  E(RAM1) =   2.04019093594     A.U. after   13 cycles

 Excitation energies and oscillator strengths:

 Excited State   1:      Singlet-A      5.2559 eV  235.90 nm  f=0.3514  <S**2>=0.000
      13 -> 14         0.69562
 This state for optimization and/or second-order correction.
 Total Energy, E(CIS) =   2.23334069901
 Copying the excited state density for this state as the 1-particle RhoCI density.

 Excited State   2:      Singlet-A      6.5863 eV  188.25 nm  f=0.0003  <S**2>=0.000
      12 -> 14         0.69689

 Excited State   3:      Singlet-A      6.7837 eV  182.77 nm  f=0.0125  <S**2>=0.000
      13 -> 15         0.64395
      13 -> 17         0.24316

 Excited State   4:      Singlet-A      6.8917 eV  179.90 nm  f=0.0069  <S**2>=0.000
      13 -> 16         0.63545
      13 -> 18         0.27153

 Excited State   5:      Singlet-A      7.7632 eV  159.71 nm  f=0.0072  <S**2>=0.000
      10 -> 14         0.47339
      11 -> 14        -0.23861
      13 -> 15         0.13250
      13 -> 16        -0.11124
      13 -> 17        -0.22108
      13 -> 18         0.20987
      13 -> 19         0.27157

 Excited State   6:      Singlet-A      7.7841 eV  159.28 nm  f=0.0025  <S**2>=0.000
      10 -> 14         0.40839
      11 -> 14        -0.20825
      13 -> 15        -0.10590
      13 -> 16         0.15469
      13 -> 17         0.22965
      13 -> 18        -0.25721
      13 -> 19        -0.32890
      13 -> 20         0.12185

 Excited State   7:      Singlet-A      8.7162 eV  142.25 nm  f=0.1248  <S**2>=0.000
      10 -> 14         0.31373
      11 -> 14         0.61260

 Excited State   8:      Singlet-A      8.8167 eV  140.62 nm  f=0.0158  <S**2>=0.000
      11 -> 16         0.10148
      13 -> 15        -0.16289
      13 -> 17         0.53940
      13 -> 18         0.12145
      13 -> 19         0.35333
      13 -> 20        -0.10447

 Excited State   9:      Singlet-A      9.1744 eV  135.14 nm  f=0.0002  <S**2>=0.000
      11 -> 16        -0.12097
      13 -> 16         0.17700
      13 -> 17        -0.13388
      13 -> 18        -0.42673
      13 -> 19         0.42807
      13 -> 20         0.21259

 Excited State  10:      Singlet-A      9.4427 eV  131.30 nm  f=0.0211  <S**2>=0.000
      10 -> 15         0.12939
      10 -> 16         0.15336
      10 -> 17         0.11565
      10 -> 18         0.10072
      12 -> 15        -0.28922
      12 -> 16         0.22954
      12 -> 17        -0.28490
      12 -> 18         0.30658
      12 -> 19         0.21317

 Excited State  11:      Singlet-A      9.5234 eV  130.19 nm  f=0.0223  <S**2>=0.000
      13 -> 18         0.28135
      13 -> 20         0.60889
      13 -> 21        -0.18830

 Excited State  12:      Singlet-A      9.9150 eV  125.05 nm  f=0.0579  <S**2>=0.000
      10 -> 16        -0.16419
      11 -> 16         0.12531
      12 -> 15         0.28366
      12 -> 16         0.53223
      12 -> 17         0.12403
      12 -> 18         0.18321
      13 -> 21         0.12675

 Excited State  13:      Singlet-A      9.9405 eV  124.73 nm  f=0.0543  <S**2>=0.000
      13 -> 20         0.19520
      13 -> 21         0.64496

 Excited State  14:      Singlet-A     10.1539 eV  122.10 nm  f=0.1789  <S**2>=0.000
       8 -> 15        -0.12695
      10 -> 15         0.20695
      10 -> 17         0.11648
      11 -> 15        -0.17761
      12 -> 15         0.45509
      12 -> 16        -0.19412
      12 -> 19         0.27511

 Excited State  15:      Singlet-A     10.4237 eV  118.94 nm  f=0.0093  <S**2>=0.000
       9 -> 14         0.16037
      10 -> 15         0.33936
      10 -> 16         0.12769
      11 -> 15         0.38434
      11 -> 16         0.32451
      13 -> 16         0.12025
      13 -> 18        -0.10858

 The electronic state is 1-A.
 Alpha  occ. eigenvalues --   -1.94843  -1.19917  -0.96872  -0.82708  -0.79258
 Alpha  occ. eigenvalues --   -0.69073  -0.65718  -0.56384  -0.54203  -0.45162
 Alpha  occ. eigenvalues --   -0.44946  -0.41497  -0.29882
 Alpha virt. eigenvalues --    0.09898   0.18779   0.20001   0.25540   0.26663
 Alpha virt. eigenvalues --    0.27987   0.29167   0.30666   0.36322   0.44724
 Alpha virt. eigenvalues --    0.50005

 Mulliken charges:
               1
     1  C   -0.178754
     2  C   -1.999865
     3  O    3.194260
     4  C   -2.028606
     5  C   -0.252303
     6  H    0.264437
     7  H    0.376161
     8  H    0.370033
     9  H    0.254636
 Sum of Mulliken charges =   0.00000

 Dipole moment (field-independent basis, Debye):
    X=             -2.4956    Y=             -9.2610    Z=             -0.6081  Tot=              9.6106
 N-N= 1.045921992493D+02 E-N=-1.699768752968D+02  KE=-1.551791001667D+01
 Orbital energies and kinetic energies (alpha):
                                 1                 2
   1         O                -1.948428         -1.401439
   2         O                -1.199170         -1.059112
   3         O                -0.968721         -0.869801
   4         O                -0.827076         -0.605934
   5         O                -0.792582         -0.689119
   6         O                -0.690728         -0.567852
   7         O                -0.657175         -0.522262

 Normal termination of Gaussian 09 at Tue Dec 15 17:07:27 2015.
