 Gaussian 09, Revision D.01,
 Gaussian 09:  ES64L-G09RevD.01 24-Apr-2013

 ------------------------------------------------------------
 #P AM1(Input,print) CIS(Singlets,NStates=15) pop(full) force
 ------------------------------------------------------------

 -----------------
 AM1-Reparam Input
 -----------------
 Symbolic Z-matrix:
 Charge =  0 Multiplicity = 1

                         Standard orientation:
 ---------------------------------------------------------------------
 Center     Atomic      Atomic             Coordinates (Angstroms)
 Number     Number       Type             X           Y           Z
 ---------------------------------------------------------------------
      1          6           0       -0.970438    0.756641   -0.000216
      2          6           0       -0.964119   -0.659446    0.018662
      3          8           0        0.356775   -1.098251   -0.032885
      4          6           0        1.120594   -0.024233    0.048534
      5          6           0        0.427731    1.087000   -0.030332
      6          1           0        0.845592    2.120693   -0.014245
      7          1           0        2.155566   -0.269430    0.017029
      8          1           0       -1.711403   -1.383731    0.010699
      9          1           0       -1.826562    1.358707    0.029712
 ---------------------------------------------------------------------

 SCF Done:  E(RAM1) =   1.74254972026     A.U. after   14 cycles

 Excitation energies and oscillator strengths:

 Excited State   1:      Singlet-A      5.4437 eV  227.76 nm  f=0.3605  <S**2>=0.000
      13 -> 14         0.69396
 This state for optimization and/or second-order correction.
 Total Energy, E(CIS) =   1.94260226659
 Copying the excited state density for this state as the 1-particle RhoCI density.

 Excited State   2:      Singlet-A      6.9202 eV  179.16 nm  f=0.0012  <S**2>=0.000
      10 -> 15         0.10830
      13 -> 15         0.67821
      13 -> 18        -0.11092

 Excited State   3:      Singlet-A      7.0358 eV  176.22 nm  f=0.0006  <S**2>=0.000
      12 -> 14         0.70027

 Excited State   4:      Singlet-A      7.5227 eV  164.81 nm  f=0.0047  <S**2>=0.000
      13 -> 16         0.66061
      13 -> 17        -0.13874
      13 -> 19         0.13234

 Excited State   5:      Singlet-A      7.9996 eV  154.99 nm  f=0.0070  <S**2>=0.000
      11 -> 14         0.69691

 Excited State   6:      Singlet-A      8.9216 eV  138.97 nm  f=0.0008  <S**2>=0.000
      13 -> 16        -0.12182
      13 -> 17        -0.24762
      13 -> 18         0.57381
      13 -> 22         0.27282

 Excited State   7:      Singlet-A      9.1706 eV  135.20 nm  f=0.0088  <S**2>=0.000
      13 -> 15         0.10840
      13 -> 17         0.60968
      13 -> 18         0.25063
      13 -> 19         0.14960

 Excited State   8:      Singlet-A      9.2932 eV  133.41 nm  f=0.0908  <S**2>=0.000
      10 -> 14         0.66905
      12 -> 15        -0.12563

 Excited State   9:      Singlet-A      9.8579 eV  125.77 nm  f=0.0938  <S**2>=0.000
       8 -> 15        -0.11838
      10 -> 14         0.12073
      11 -> 17        -0.12216
      12 -> 15         0.54390
      12 -> 16        -0.21472
      12 -> 18        -0.22342

 Excited State  10:      Singlet-A      9.9006 eV  125.23 nm  f=0.0055  <S**2>=0.000
      10 -> 16         0.13858
      13 -> 16        -0.10966
      13 -> 18        -0.10957
      13 -> 19         0.65686

 Excited State  11:      Singlet-A     10.1112 eV  122.62 nm  f=0.0794  <S**2>=0.000
       9 -> 15        -0.13271
      11 -> 15        -0.28073
      11 -> 16        -0.10273
      11 -> 17         0.16444
      11 -> 18         0.14634
      12 -> 15         0.37394
      12 -> 16         0.26304
      12 -> 17        -0.25615
      12 -> 18         0.14980

 Excited State  12:      Singlet-A     10.6319 eV  116.62 nm  f=0.0382  <S**2>=0.000
      13 -> 18        -0.22284
      13 -> 20         0.40751
      13 -> 22         0.50667

 Excited State  13:      Singlet-A     10.7897 eV  114.91 nm  f=0.0631  <S**2>=0.000
      10 -> 15        -0.15438
      13 -> 18         0.13934
      13 -> 20         0.53206
      13 -> 22        -0.37655

 Excited State  14:      Singlet-A     10.9243 eV  113.49 nm  f=0.0973  <S**2>=0.000
       8 -> 16         0.14225
       9 -> 15         0.11154
      10 -> 15        -0.23290
      11 -> 15         0.21954
      11 -> 16         0.12772
      11 -> 17        -0.10017
      12 -> 16         0.43264
      12 -> 17         0.16043
      12 -> 19         0.16840
      13 -> 21         0.13228

 Excited State  15:      Singlet-A     11.0114 eV  112.60 nm  f=0.1189  <S**2>=0.000
      10 -> 15         0.38401
      11 -> 15        -0.13357
      11 -> 16         0.36970
      11 -> 19         0.13994
      12 -> 16         0.23937
      12 -> 18        -0.19383

 The electronic state is 1-A.
 Alpha  occ. eigenvalues --   -1.91611  -1.17332  -0.93181  -0.82534  -0.78179
 Alpha  occ. eigenvalues --   -0.70317  -0.68032  -0.56591  -0.55517  -0.46767
 Alpha  occ. eigenvalues --   -0.45148  -0.42003  -0.30519
 Alpha virt. eigenvalues --    0.10474   0.17296   0.20947   0.27046   0.28719
 Alpha virt. eigenvalues --    0.30249   0.32636   0.34172   0.35130   0.42738
 Alpha virt. eigenvalues --    0.46412

 Mulliken charges:
               1
     1  C   -0.140937
     2  C   -2.035073
     3  O    3.294176
     4  C   -1.994860
     5  C   -0.191136
     6  H    0.211515
     7  H    0.328022
     8  H    0.323423
     9  H    0.204869
 Sum of Mulliken charges =   0.00000

 Dipole moment (field-independent basis, Debye):
    X=              4.0135    Y=             -9.9598    Z=             -0.9570  Tot=             10.7806
 N-N= 1.039460344992D+02 E-N=-1.693418850177D+02  KE=-1.551044526810D+01
 Orbital energies and kinetic energies (alpha):
                                 1                 2
   1         O                -1.916115         -1.377121
   2         O                -1.173322         -1.047871
   3         O                -0.931813         -0.878530
   4         O                -0.825342         -0.585282
   5         O                -0.781795         -0.694330
   6         O                -0.703171         -0.586176
   7         O                -0.680316         -0.537585

 Normal termination of Gaussian 09 at Tue Dec 15 17:09:35 2015.
