 Gaussian 09, Revision D.01,
 Gaussian 09:  ES64L-G09RevD.01 24-Apr-2013

 ------------------------------------------------------------
 #P AM1(Input,print) CIS(Singlets,NStates=15) pop(full) force
 ------------------------------------------------------------

 -----------------
 AM1-Reparam Input
 -----------------
 Symbolic Z-matrix:
 Charge =  0 Multiplicity = 1

                         Standard orientation:
 ---------------------------------------------------------------------
 Center     Atomic      Atomic             Coordinates (Angstroms)
 Number     Number       Type             X           Y           Z
 ---------------------------------------------------------------------
      1          6           0       -0.539353    1.061019   -0.012649
      2          6           0       -1.170045   -0.182549    0.028961
      3          8           0       -0.201308   -1.090727   -0.017120
      4          6           0        1.014732   -0.522020   -0.001889
      5          6           0        0.911592    0.780923   -0.009582
      6          1           0        1.622497    1.557458    0.076031
      7          1           0        1.845513   -1.197540    0.044122
      8          1           0       -2.155868   -0.461706    0.015911
      9          1           0       -1.003236    2.003364   -0.028147
 ---------------------------------------------------------------------

 SCF Done:  E(RAM1) =  -5.04513286123     A.U. after   14 cycles

 Excitation energies and oscillator strengths:

 Excited State   1:      Singlet-A      6.6195 eV  187.30 nm  f=0.1231  <S**2>=0.000
      12 -> 14         0.53436
      13 -> 14        -0.44627
 This state for optimization and/or second-order correction.
 Total Energy, E(CIS) =  -4.80187150746
 Copying the excited state density for this state as the 1-particle RhoCI density.

 Excited State   2:      Singlet-A      6.7468 eV  183.77 nm  f=0.1945  <S**2>=0.000
      12 -> 14         0.45464
      13 -> 14         0.52346

 Excited State   3:      Singlet-A      7.3184 eV  169.42 nm  f=0.0040  <S**2>=0.000
      13 -> 15         0.68159

 Excited State   4:      Singlet-A      7.6713 eV  161.62 nm  f=0.0021  <S**2>=0.000
      13 -> 16         0.66340
      13 -> 17        -0.15638
      13 -> 21         0.11330

 Excited State   5:      Singlet-A      8.0951 eV  153.16 nm  f=0.0061  <S**2>=0.000
      11 -> 14         0.69798

 Excited State   6:      Singlet-A      9.0314 eV  137.28 nm  f=0.0125  <S**2>=0.000
      12 -> 15        -0.13093
      13 -> 16         0.14577
      13 -> 17         0.63262
      13 -> 18         0.14985

 Excited State   7:      Singlet-A      9.1299 eV  135.80 nm  f=0.1595  <S**2>=0.000
       9 -> 15        -0.16268
      10 -> 14         0.15716
      12 -> 15         0.59871
      12 -> 16        -0.13046
      13 -> 17         0.15131

 Excited State   8:      Singlet-A      9.4651 eV  130.99 nm  f=0.0110  <S**2>=0.000
      10 -> 14         0.37009
      12 -> 15        -0.17563
      12 -> 17         0.10675
      13 -> 18        -0.16363
      13 -> 19        -0.15761
      13 -> 20         0.44939

 Excited State   9:      Singlet-A      9.5558 eV  129.75 nm  f=0.0059  <S**2>=0.000
      13 -> 17        -0.14052
      13 -> 18         0.61562
      13 -> 20         0.13037
      13 -> 21         0.18959
      13 -> 22         0.12268

 Excited State  10:      Singlet-A      9.6360 eV  128.67 nm  f=0.0196  <S**2>=0.000
      10 -> 14         0.14354
      12 -> 15         0.11521
      12 -> 16         0.58483
      12 -> 17        -0.12055
      12 -> 19         0.15299
      12 -> 21         0.13752
      13 -> 20         0.11456

 Excited State  11:      Singlet-A      9.9086 eV  125.13 nm  f=0.0432  <S**2>=0.000
      10 -> 16         0.10408
      13 -> 19         0.65466
      13 -> 20         0.14666

 Excited State  12:      Singlet-A     10.1851 eV  121.73 nm  f=0.0258  <S**2>=0.000
      10 -> 15         0.15149
      11 -> 15        -0.27673
      11 -> 17         0.18039
      12 -> 16        -0.11981
      12 -> 17        -0.23206
      12 -> 18         0.11736
      13 -> 18        -0.15368
      13 -> 20         0.13479
      13 -> 21         0.42191
      13 -> 22         0.10963

 Excited State  13:      Singlet-A     10.2611 eV  120.83 nm  f=0.0847  <S**2>=0.000
      11 -> 15        -0.16913
      11 -> 16        -0.17047
      11 -> 17         0.30026
      12 -> 16        -0.10744
      12 -> 18         0.36228
      13 -> 18         0.14357
      13 -> 21        -0.35063

 Excited State  14:      Singlet-A     10.3105 eV  120.25 nm  f=0.0516  <S**2>=0.000
       9 -> 16         0.11346
      10 -> 14         0.11698
      11 -> 15         0.10422
      11 -> 16        -0.16861
      11 -> 17         0.10610
      11 -> 18         0.10812
      12 -> 17         0.37953
      12 -> 18         0.24589
      13 -> 20        -0.28477
      13 -> 21         0.23893

 Excited State  15:      Singlet-A     10.4170 eV  119.02 nm  f=0.1859  <S**2>=0.000
       8 -> 16         0.13049
       9 -> 15        -0.15634
       9 -> 16        -0.12336
      11 -> 15         0.40118
      11 -> 16         0.20960
      11 -> 19         0.17668
      12 -> 17        -0.22343
      12 -> 18         0.30396
      13 -> 21         0.10431

 The electronic state is 1-A.
 Alpha  occ. eigenvalues --   -3.72118  -1.16350  -0.85245  -0.84260  -0.83958
 Alpha  occ. eigenvalues --   -0.76846  -0.65169  -0.47258  -0.46061  -0.41809
 Alpha  occ. eigenvalues --   -0.38128  -0.33287  -0.26543
 Alpha virt. eigenvalues --    0.19212   0.23435   0.25264   0.31011   0.32757
 Alpha virt. eigenvalues --    0.34056   0.35298   0.38972   0.42681   0.46951
 Alpha virt. eigenvalues --    0.55054

 Mulliken charges:
               1
     1  C   -0.262491
     2  C   -1.522398
     3  O    2.746601
     4  C   -1.454649
     5  C   -0.172588
     6  H    0.127515
     7  H    0.185887
     8  H    0.214874
     9  H    0.137250
 Sum of Mulliken charges =   0.00000

 Dipole moment (field-independent basis, Debye):
    X=             -1.3669    Y=             -9.7629    Z=             -0.2724  Tot=              9.8619
 N-N= 1.020065002109D+02 E-N=-1.688056297099D+02  KE=-2.295701659812D+01
 Orbital energies and kinetic energies (alpha):
                                 1                 2
   1         O                -3.721180         -3.120633
   2         O                -1.163496         -1.212994
   3         O                -0.852446         -0.941836
   4         O                -0.842595         -0.909183
   5         O                -0.839577         -0.931894
   6         O                -0.768460         -0.788769
   7         O                -0.651686         -0.716543

 Normal termination of Gaussian 09 at Fri Dec 11 13:41:18 2015.
