 Gaussian 09, Revision D.01,
 Gaussian 09:  ES64L-G09RevD.01 24-Apr-2013

 ------------------------------------------------------------
 #P AM1(Input,print) CIS(Singlets,NStates=15) pop(full) force
 ------------------------------------------------------------

 -----------------
 AM1-Reparam Input
 -----------------
 Symbolic Z-matrix:
 Charge =  0 Multiplicity = 1

                         Standard orientation:
 ---------------------------------------------------------------------
 Center     Atomic      Atomic             Coordinates (Angstroms)
 Number     Number       Type             X           Y           Z
 ---------------------------------------------------------------------
      1          6           0        0.657691    0.968838    0.044262
      2          6           0        1.142680   -0.235774   -0.032656
      3          8           0        0.098969   -1.115651    0.020825
      4          6           0       -1.072876   -0.403624   -0.016764
      5          6           0       -0.822255    0.845673   -0.004951
      6          1           0       -1.530414    1.715047   -0.027783
      7          1           0       -1.984058   -1.063644    0.006417
      8          1           0        2.122164   -0.697798   -0.032013
      9          1           0        1.169120    1.920926   -0.052563
 ---------------------------------------------------------------------

 SCF Done:  E(RAM1) =   1.44016566688     A.U. after   13 cycles

 Excitation energies and oscillator strengths:

 Excited State   1:      Singlet-A      5.4838 eV  226.09 nm  f=0.2818  <S**2>=0.000
      13 -> 14         0.65460
      13 -> 15        -0.22355
 This state for optimization and/or second-order correction.
 Total Energy, E(CIS) =   1.64169210783
 Copying the excited state density for this state as the 1-particle RhoCI density.

 Excited State   2:      Singlet-A      5.5603 eV  222.98 nm  f=0.0351  <S**2>=0.000
      13 -> 14         0.22414
      13 -> 15         0.63902
      13 -> 21         0.10195

 Excited State   3:      Singlet-A      5.8069 eV  213.51 nm  f=0.0023  <S**2>=0.000
      13 -> 16         0.66638
      13 -> 21        -0.12209

 Excited State   4:      Singlet-A      7.0059 eV  176.97 nm  f=0.0011  <S**2>=0.000
      12 -> 14         0.68018
      13 -> 22         0.10056

 Excited State   5:      Singlet-A      7.1833 eV  172.60 nm  f=0.0041  <S**2>=0.000
      12 -> 14         0.10479
      13 -> 15         0.11110
      13 -> 17         0.56438
      13 -> 19         0.31650
      13 -> 21        -0.15878
      13 -> 22        -0.14607

 Excited State   6:      Singlet-A      7.2651 eV  170.66 nm  f=0.0008  <S**2>=0.000
      12 -> 14        -0.11143
      13 -> 16         0.13265
      13 -> 17         0.38195
      13 -> 19        -0.37455
      13 -> 21         0.28186
      13 -> 22         0.29466

 Excited State   7:      Singlet-A      8.0091 eV  154.80 nm  f=0.0250  <S**2>=0.000
      11 -> 14         0.30889
      13 -> 18         0.61554

 Excited State   8:      Singlet-A      8.1777 eV  151.61 nm  f=0.0005  <S**2>=0.000
      13 -> 19         0.40816
      13 -> 20        -0.12052
      13 -> 21         0.54014

 Excited State   9:      Singlet-A      8.4058 eV  147.50 nm  f=0.0008  <S**2>=0.000
      10 -> 14         0.63982
      13 -> 20         0.25064

 Excited State  10:      Singlet-A      8.4969 eV  145.92 nm  f=0.0004  <S**2>=0.000
      10 -> 14        -0.11995
      13 -> 19         0.26983
      13 -> 20         0.13687
      13 -> 21        -0.16489
      13 -> 22         0.59536

 Excited State  11:      Singlet-A      8.5923 eV  144.30 nm  f=0.0523  <S**2>=0.000
      10 -> 14        -0.24346
      13 -> 20         0.58484
      13 -> 21         0.15944
      13 -> 22        -0.13364
      13 -> 23         0.13357

 Excited State  12:      Singlet-A      8.9811 eV  138.05 nm  f=0.1008  <S**2>=0.000
       8 -> 15        -0.15861
      11 -> 14        -0.29680
      12 -> 15         0.50752
      12 -> 16        -0.15679
      13 -> 18         0.21789

 Excited State  13:      Singlet-A      9.1655 eV  135.27 nm  f=0.1764  <S**2>=0.000
       8 -> 16         0.11467
      11 -> 14        -0.40844
      12 -> 15        -0.15706
      12 -> 16         0.41686
      12 -> 19         0.12919
      12 -> 21        -0.10137
      13 -> 18         0.21117

 Excited State  14:      Singlet-A      9.3426 eV  132.71 nm  f=0.0090  <S**2>=0.000
      11 -> 15         0.62355
      11 -> 16         0.16767

 Excited State  15:      Singlet-A      9.5354 eV  130.03 nm  f=0.2138  <S**2>=0.000
      11 -> 14         0.32621
      11 -> 15        -0.10205
      12 -> 15         0.35628
      12 -> 16         0.41948
      12 -> 20         0.10149

 The electronic state is 1-A.
 Alpha  occ. eigenvalues --   -1.90266  -1.19305  -0.97855  -0.79151  -0.77028
 Alpha  occ. eigenvalues --   -0.67513  -0.63055  -0.50830  -0.47922  -0.40531
 Alpha  occ. eigenvalues --   -0.38564  -0.36144  -0.22720
 Alpha virt. eigenvalues --    0.17226   0.20152   0.21439   0.28922   0.29583
 Alpha virt. eigenvalues --    0.30769   0.33558   0.34026   0.34805   0.40076
 Alpha virt. eigenvalues --    0.45583

 Mulliken charges:
               1
     1  C   -0.123318
     2  C   -1.504123
     3  O    2.771923
     4  C   -1.489734
     5  C   -0.086346
     6  H    0.063716
     7  H    0.145539
     8  H    0.153614
     9  H    0.068730
 Sum of Mulliken charges =   0.00000

 Dipole moment (field-independent basis, Debye):
    X=              0.6631    Y=             -9.7746    Z=              0.4667  Tot=              9.8082
 N-N= 1.039342195838D+02 E-N=-1.704969984020D+02  KE=-1.587345028733D+01
 Orbital energies and kinetic energies (alpha):
                                 1                 2
   1         O                -1.902658         -1.394398
   2         O                -1.193053         -1.062228
   3         O                -0.978551         -0.891504
   4         O                -0.791507         -0.626421
   5         O                -0.770279         -0.710606
   6         O                -0.675133         -0.611261
   7         O                -0.630553         -0.550839

 Normal termination of Gaussian 09 at Tue Dec 15 17:07:56 2015.
