 Gaussian 09, Revision D.01,
 Gaussian 09:  ES64L-G09RevD.01 24-Apr-2013

 ------------------------------------------------------------
 #P AM1(Input,print) CIS(Singlets,NStates=15) pop(full) force
 ------------------------------------------------------------

 -----------------
 AM1-Reparam Input
 -----------------
 Symbolic Z-matrix:
 Charge =  0 Multiplicity = 1

                         Standard orientation:
 ---------------------------------------------------------------------
 Center     Atomic      Atomic             Coordinates (Angstroms)
 Number     Number       Type             X           Y           Z
 ---------------------------------------------------------------------
      1          6           0        0.233851    1.154702    0.003250
      2          6           0        1.135344    0.102583   -0.003083
      3          8           0        0.513178   -1.038706   -0.012188
      4          6           0       -0.894355   -0.752286    0.020260
      5          6           0       -1.039467    0.578183   -0.021205
      6          1           0       -1.994764    1.099424   -0.005095
      7          1           0       -1.506241   -1.562490    0.034581
      8          1           0        2.247521    0.079366    0.026829
      9          1           0        0.535823    2.194256    0.045854
 ---------------------------------------------------------------------

 SCF Done:  E(RAM1) =   1.84322717761     A.U. after   13 cycles

 Excitation energies and oscillator strengths:

 Excited State   1:      Singlet-A      5.7442 eV  215.84 nm  f=0.3049  <S**2>=0.000
      11 -> 17        -0.10886
      13 -> 14         0.68675
 This state for optimization and/or second-order correction.
 Total Energy, E(CIS) =   2.05432197413
 Copying the excited state density for this state as the 1-particle RhoCI density.

 Excited State   2:      Singlet-A      6.2481 eV  198.43 nm  f=0.0026  <S**2>=0.000
      10 -> 15        -0.12166
      13 -> 15         0.66492
      13 -> 17         0.17086

 Excited State   3:      Singlet-A      6.9119 eV  179.38 nm  f=0.0015  <S**2>=0.000
      12 -> 14         0.69904

 Excited State   4:      Singlet-A      7.1405 eV  173.64 nm  f=0.0033  <S**2>=0.000
      10 -> 16         0.11846
      13 -> 16         0.65814
      13 -> 19         0.10785

 Excited State   5:      Singlet-A      7.6889 eV  161.25 nm  f=0.0064  <S**2>=0.000
      11 -> 14         0.69238

 Excited State   6:      Singlet-A      8.1070 eV  152.94 nm  f=0.0096  <S**2>=0.000
      10 -> 15         0.11060
      11 -> 14        -0.10126
      13 -> 15        -0.15488
      13 -> 17         0.63546
      13 -> 18         0.11748
      13 -> 19        -0.10894

 Excited State   7:      Singlet-A      8.3952 eV  147.69 nm  f=0.0017  <S**2>=0.000
      10 -> 16         0.10520
      13 -> 16         0.10367
      13 -> 17        -0.14442
      13 -> 18         0.60833
      13 -> 21        -0.28167

 Excited State   8:      Singlet-A      8.9097 eV  139.16 nm  f=0.0196  <S**2>=0.000
       8 -> 16         0.10107
      10 -> 14         0.41318
      11 -> 15         0.19081
      11 -> 16         0.18947
      11 -> 17         0.22891
      12 -> 15         0.16737
      12 -> 16        -0.17404
      12 -> 17         0.15133
      12 -> 18         0.22993

 Excited State   9:      Singlet-A      9.0446 eV  137.08 nm  f=0.0314  <S**2>=0.000
       8 -> 15         0.12022
      10 -> 14        -0.24390
      11 -> 15        -0.22886
      12 -> 15         0.56456
      12 -> 19        -0.10447

 Excited State  10:      Singlet-A      9.1343 eV  135.74 nm  f=0.0008  <S**2>=0.000
      10 -> 16        -0.10231
      13 -> 17         0.11374
      13 -> 19         0.64899
      13 -> 20        -0.12628

 Excited State  11:      Singlet-A      9.2857 eV  133.52 nm  f=0.0664  <S**2>=0.000
       9 -> 15        -0.21592
      10 -> 14         0.42168
      11 -> 15        -0.37935
      11 -> 17        -0.18390
      12 -> 17         0.12627
      12 -> 18        -0.11826

 Excited State  12:      Singlet-A      9.6428 eV  128.58 nm  f=0.0041  <S**2>=0.000
       6 -> 15         0.10198
      10 -> 15         0.55875
      13 -> 15         0.13465
      13 -> 18        -0.17917
      13 -> 19         0.10538
      13 -> 21        -0.27942

 Excited State  13:      Singlet-A      9.7250 eV  127.49 nm  f=0.0298  <S**2>=0.000
      10 -> 15         0.32535
      13 -> 18         0.21434
      13 -> 19        -0.11746
      13 -> 20        -0.39374
      13 -> 21         0.39935

 Excited State  14:      Singlet-A      9.8670 eV  125.66 nm  f=0.2488  <S**2>=0.000
       8 -> 15        -0.11563
       9 -> 15        -0.14103
       9 -> 16        -0.10396
      10 -> 14        -0.17883
      11 -> 15        -0.14476
      11 -> 16         0.28093
      11 -> 19         0.23244
      12 -> 15        -0.17605
      12 -> 16         0.28026
      12 -> 17         0.22405
      12 -> 18         0.23651
      12 -> 19         0.14079

 Excited State  15:      Singlet-A      9.9328 eV  124.82 nm  f=0.0625  <S**2>=0.000
       9 -> 15         0.12036
      10 -> 14         0.17836
      11 -> 15         0.16990
      11 -> 18        -0.10505
      12 -> 15         0.16215
      12 -> 16         0.54374
      12 -> 18        -0.13425
      12 -> 20        -0.13679

 The electronic state is 1-A.
 Alpha  occ. eigenvalues --   -1.94496  -1.22110  -0.98106  -0.81391  -0.80417
 Alpha  occ. eigenvalues --   -0.69086  -0.66932  -0.52646  -0.49285  -0.42433
 Alpha  occ. eigenvalues --   -0.40476  -0.38106  -0.28016
 Alpha virt. eigenvalues --    0.14434   0.17136   0.22333   0.26099   0.28625
 Alpha virt. eigenvalues --    0.30452   0.32906   0.35363   0.35976   0.44716
 Alpha virt. eigenvalues --    0.49348

 Mulliken charges:
               1
     1  C   -0.180359
     2  C   -1.953372
     3  O    3.133294
     4  C   -1.909156
     5  C   -0.006294
     6  H    0.144428
     7  H    0.289254
     8  H    0.321003
     9  H    0.161203
 Sum of Mulliken charges =   0.00000

 Dipole moment (field-independent basis, Debye):
    X=              5.0449    Y=             -9.0701    Z=             -0.1708  Tot=             10.3801
 N-N= 1.042484494206D+02 E-N=-1.698600823183D+02  KE=-1.568039221828D+01
 Orbital energies and kinetic energies (alpha):
                                 1                 2
   1         O                -1.944957         -1.413829
   2         O                -1.221097         -1.087528
   3         O                -0.981057         -0.909538
   4         O                -0.813907         -0.630753
   5         O                -0.804168         -0.685211
   6         O                -0.690862         -0.573434
   7         O                -0.669318         -0.578921

 Normal termination of Gaussian 09 at Tue Dec 15 17:09:55 2015.
