 Gaussian 09, Revision D.01,
 Gaussian 09:  ES64L-G09RevD.01 24-Apr-2013

 ------------------------------------------------------------
 #P AM1(Input,print) CIS(Singlets,NStates=15) pop(full) force
 ------------------------------------------------------------

 -----------------
 AM1-Reparam Input
 -----------------
 Symbolic Z-matrix:
 Charge =  0 Multiplicity = 1

                         Standard orientation:
 ---------------------------------------------------------------------
 Center     Atomic      Atomic             Coordinates (Angstroms)
 Number     Number       Type             X           Y           Z
 ---------------------------------------------------------------------
      1          6           0       -0.589631    1.054575   -0.016792
      2          6           0       -1.111765   -0.243624    0.022295
      3          8           0       -0.166484   -1.104616   -0.019738
      4          6           0        1.022811   -0.500155    0.018573
      5          6           0        0.862725    0.830863    0.001271
      6          1           0        1.536019    1.614345    0.031805
      7          1           0        1.917824   -1.073725   -0.032990
      8          1           0       -2.131600   -0.546810    0.034210
      9          1           0       -1.095214    1.993169   -0.027213
 ---------------------------------------------------------------------

 SCF Done:  E(RAM1) =   1.82523890206     A.U. after   14 cycles

 Excitation energies and oscillator strengths:

 Excited State   1:      Singlet-A      5.5978 eV  221.49 nm  f=0.3594  <S**2>=0.000
      13 -> 14         0.69416
 This state for optimization and/or second-order correction.
 Total Energy, E(CIS) =   2.03095264344
 Copying the excited state density for this state as the 1-particle RhoCI density.

 Excited State   2:      Singlet-A      6.4597 eV  191.93 nm  f=0.0005  <S**2>=0.000
      12 -> 14         0.69995

 Excited State   3:      Singlet-A      6.5591 eV  189.03 nm  f=0.0043  <S**2>=0.000
      10 -> 15        -0.10096
      13 -> 15         0.65751
      13 -> 17         0.20694

 Excited State   4:      Singlet-A      6.8321 eV  181.47 nm  f=0.0022  <S**2>=0.000
      10 -> 16         0.11157
      13 -> 16         0.65937
      13 -> 18        -0.17367
      13 -> 19         0.10099

 Excited State   5:      Singlet-A      7.8380 eV  158.18 nm  f=0.0047  <S**2>=0.000
      11 -> 14         0.69589

 Excited State   6:      Singlet-A      8.0631 eV  153.77 nm  f=0.0000  <S**2>=0.000
      13 -> 15        -0.11577
      13 -> 16         0.12172
      13 -> 17         0.22597
      13 -> 18         0.55391
      13 -> 21        -0.28754

 Excited State   7:      Singlet-A      8.4729 eV  146.33 nm  f=0.0103  <S**2>=0.000
      10 -> 15         0.10086
      13 -> 15        -0.14608
      13 -> 17         0.61250
      13 -> 18        -0.24592

 Excited State   8:      Singlet-A      8.8069 eV  140.78 nm  f=0.0712  <S**2>=0.000
      10 -> 14         0.56804
      11 -> 17         0.12979
      12 -> 16         0.23140
      12 -> 17        -0.13489
      12 -> 18        -0.16506

 Excited State   9:      Singlet-A      9.0011 eV  137.74 nm  f=0.0741  <S**2>=0.000
       8 -> 15         0.10841
      10 -> 14         0.33943
      11 -> 16        -0.10076
      11 -> 17        -0.12783
      12 -> 15         0.39574
      12 -> 16        -0.20898
      12 -> 18         0.27942
      12 -> 21        -0.10535

 Excited State  10:      Singlet-A      9.1128 eV  136.05 nm  f=0.0006  <S**2>=0.000
      13 -> 16        -0.10373
      13 -> 19         0.67327

 Excited State  11:      Singlet-A      9.4937 eV  130.60 nm  f=0.0191  <S**2>=0.000
      10 -> 14        -0.16503
      11 -> 15         0.21079
      11 -> 17         0.10148
      12 -> 15         0.44907
      12 -> 16         0.37252
      12 -> 17         0.15744
      12 -> 18        -0.11965

 Excited State  12:      Singlet-A      9.5786 eV  129.44 nm  f=0.0209  <S**2>=0.000
      13 -> 18         0.27225
      13 -> 20        -0.43776
      13 -> 21         0.45537

 Excited State  13:      Singlet-A      9.7169 eV  127.60 nm  f=0.1673  <S**2>=0.000
       9 -> 15         0.13387
       9 -> 16        -0.11168
      11 -> 15        -0.30817
      11 -> 16        -0.20090
      11 -> 17        -0.19111
      12 -> 15        -0.14716
      12 -> 16         0.43202
      12 -> 18         0.15479
      12 -> 19         0.16268

 Excited State  14:      Singlet-A      9.8774 eV  125.52 nm  f=0.0607  <S**2>=0.000
      10 -> 15        -0.28665
      13 -> 18         0.10889
      13 -> 20         0.48623
      13 -> 21         0.36207

 Excited State  15:      Singlet-A     10.0034 eV  123.94 nm  f=0.0281  <S**2>=0.000
       8 -> 15         0.16048
       9 -> 14        -0.13390
       9 -> 15         0.18274
      10 -> 15         0.28334
      11 -> 15        -0.25470
      11 -> 16         0.10952
      11 -> 19         0.19668
      12 -> 15         0.15365
      12 -> 17        -0.23157
      12 -> 18        -0.18806
      12 -> 19        -0.12197
      13 -> 20         0.10434
      13 -> 21         0.13153

 The electronic state is 1-A.
 Alpha  occ. eigenvalues --   -1.96748  -1.21193  -0.99548  -0.82312  -0.80366
 Alpha  occ. eigenvalues --   -0.70506  -0.67571  -0.53825  -0.49444  -0.43438
 Alpha  occ. eigenvalues --   -0.43229  -0.38723  -0.28852
 Alpha virt. eigenvalues --    0.12124   0.18371   0.19490   0.26249   0.27340
 Alpha virt. eigenvalues --    0.29685   0.31069   0.33198   0.39834   0.47790
 Alpha virt. eigenvalues --    0.53601

 Mulliken charges:
               1
     1  C   -0.146373
     2  C   -1.978164
     3  O    3.146093
     4  C   -1.942518
     5  C   -0.050894
     6  H    0.154597
     7  H    0.321400
     8  H    0.332400
     9  H    0.163457
 Sum of Mulliken charges =   0.00000

 Dipole moment (field-independent basis, Debye):
    X=             -1.3363    Y=             -9.0630    Z=             -0.5846  Tot=              9.1796
 N-N= 1.048229888710D+02 E-N=-1.707557940409D+02  KE=-1.572462146510D+01
 Orbital energies and kinetic energies (alpha):
                                 1                 2
   1         O                -1.967480         -1.463123
   2         O                -1.211929         -1.073252
   3         O                -0.995482         -0.903924
   4         O                -0.823119         -0.621800
   5         O                -0.803664         -0.708269
   6         O                -0.705063         -0.574005
   7         O                -0.675705         -0.580765

 Normal termination of Gaussian 09 at Tue Dec 15 17:10:05 2015.
