 Gaussian 09, Revision D.01,
 Gaussian 09:  ES64L-G09RevD.01 24-Apr-2013

 ------------------------------------------------------------
 #P AM1(Input,print) CIS(Singlets,NStates=15) pop(full) force
 ------------------------------------------------------------

 -----------------
 AM1-Reparam Input
 -----------------
 Symbolic Z-matrix:
 Charge =  0 Multiplicity = 1

                         Standard orientation:
 ---------------------------------------------------------------------
 Center     Atomic      Atomic             Coordinates (Angstroms)
 Number     Number       Type             X           Y           Z
 ---------------------------------------------------------------------
      1          6           0       -0.244090    1.138976    0.015891
      2          6           0       -1.154905    0.138667   -0.008544
      3          8           0       -0.490985   -1.047759    0.008506
      4          6           0        0.834666   -0.734532   -0.013608
      5          6           0        1.090518    0.567164   -0.001785
      6          1           0        1.981054    1.088215   -0.020108
      7          1           0        1.450457   -1.651998    0.033422
      8          1           0       -2.169599    0.093377   -0.031228
      9          1           0       -0.491172    2.190821   -0.001858
 ---------------------------------------------------------------------

 SCF Done:  E(RAM1) =   1.40940113824     A.U. after   13 cycles

 Excitation energies and oscillator strengths:

 Excited State   1:      Singlet-A      5.8366 eV  212.43 nm  f=0.2969  <S**2>=0.000
      13 -> 14         0.67998
      13 -> 15        -0.13139
 This state for optimization and/or second-order correction.
 Total Energy, E(CIS) =   1.62389065109
 Copying the excited state density for this state as the 1-particle RhoCI density.

 Excited State   2:      Singlet-A      5.9534 eV  208.26 nm  f=0.0152  <S**2>=0.000
      11 -> 15         0.10647
      13 -> 14         0.13543
      13 -> 15         0.66315
      13 -> 17         0.10450

 Excited State   3:      Singlet-A      6.5607 eV  188.98 nm  f=0.0005  <S**2>=0.000
      13 -> 16         0.65286
      13 -> 17         0.14098
      13 -> 21         0.12985

 Excited State   4:      Singlet-A      7.2492 eV  171.03 nm  f=0.0002  <S**2>=0.000
      11 -> 14         0.32409
      12 -> 14         0.61123

 Excited State   5:      Singlet-A      7.5585 eV  164.03 nm  f=0.0082  <S**2>=0.000
      13 -> 15        -0.11147
      13 -> 17         0.60513
      13 -> 19         0.15085
      13 -> 20        -0.12365
      13 -> 22         0.24837

 Excited State   6:      Singlet-A      7.9905 eV  155.16 nm  f=0.0014  <S**2>=0.000
      11 -> 16        -0.10006
      13 -> 16         0.15792
      13 -> 17        -0.29224
      13 -> 19         0.36857
      13 -> 20        -0.17359
      13 -> 22         0.43415

 Excited State   7:      Singlet-A      8.3356 eV  148.74 nm  f=0.0066  <S**2>=0.000
      11 -> 14         0.46040
      12 -> 14        -0.23799
      13 -> 18         0.45394

 Excited State   8:      Singlet-A      8.5415 eV  145.15 nm  f=0.0010  <S**2>=0.000
      10 -> 14         0.68097

 Excited State   9:      Singlet-A      8.6160 eV  143.90 nm  f=0.0046  <S**2>=0.000
      11 -> 15         0.13007
      13 -> 19         0.37299
      13 -> 20         0.37456
      13 -> 21         0.41926

 Excited State  10:      Singlet-A      8.7869 eV  141.10 nm  f=0.0002  <S**2>=0.000
      13 -> 19         0.41862
      13 -> 21        -0.38375
      13 -> 22        -0.39306

 Excited State  11:      Singlet-A      9.0973 eV  136.29 nm  f=0.0376  <S**2>=0.000
      11 -> 15         0.37654
      12 -> 15        -0.31562
      13 -> 20         0.25355
      13 -> 21        -0.27859
      13 -> 22         0.22679

 Excited State  12:      Singlet-A      9.1261 eV  135.86 nm  f=0.0587  <S**2>=0.000
      11 -> 14         0.15103
      11 -> 15        -0.22637
      11 -> 16        -0.17766
      12 -> 15         0.26973
      12 -> 16         0.10089
      13 -> 18        -0.23203
      13 -> 20         0.40299
      13 -> 21        -0.20360

 Excited State  13:      Singlet-A      9.2393 eV  134.19 nm  f=0.1762  <S**2>=0.000
      11 -> 14        -0.32377
      11 -> 15        -0.25430
      12 -> 14         0.18359
      13 -> 18         0.45568
      13 -> 20         0.18508

 Excited State  14:      Singlet-A      9.3738 eV  132.27 nm  f=0.2373  <S**2>=0.000
       8 -> 15        -0.20367
       9 -> 15         0.13179
      11 -> 14        -0.18386
      11 -> 15         0.33352
      12 -> 15         0.42979
      12 -> 16        -0.19520

 Excited State  15:      Singlet-A      9.6404 eV  128.61 nm  f=0.0067  <S**2>=0.000
      11 -> 15        -0.14687
      11 -> 16         0.49544
      12 -> 16        -0.32060
      13 -> 16         0.14712
      13 -> 20         0.17423
      13 -> 21        -0.13991
      13 -> 22         0.11284

 The electronic state is 1-A.
 Alpha  occ. eigenvalues --   -1.89751  -1.19313  -0.96698  -0.79514  -0.77520
 Alpha  occ. eigenvalues --   -0.67995  -0.62221  -0.49647  -0.48191  -0.41246
 Alpha  occ. eigenvalues --   -0.37396  -0.36980  -0.24124
 Alpha virt. eigenvalues --    0.17488   0.20523   0.23266   0.29388   0.30219
 Alpha virt. eigenvalues --    0.31545   0.33645   0.34221   0.35430   0.40753
 Alpha virt. eigenvalues --    0.45799

 Mulliken charges:
               1
     1  C   -0.086073
     2  C   -1.537793
     3  O    2.769873
     4  C   -1.513049
     5  C   -0.051462
     6  H    0.064449
     7  H    0.135474
     8  H    0.157389
     9  H    0.061193
 Sum of Mulliken charges =   0.00000

 Dipole moment (field-independent basis, Debye):
    X=             -3.8831    Y=             -8.9488    Z=              0.2308  Tot=              9.7577
 N-N= 1.038983808333D+02 E-N=-1.704611839430D+02  KE=-1.590485437285D+01
 Orbital energies and kinetic energies (alpha):
                                 1                 2
   1         O                -1.897506         -1.389610
   2         O                -1.193126         -1.079529
   3         O                -0.966984         -0.886295
   4         O                -0.795138         -0.640892
   5         O                -0.775200         -0.702203
   6         O                -0.679951         -0.623216
   7         O                -0.622215         -0.544802

 Normal termination of Gaussian 09 at Tue Dec 15 17:08:02 2015.
