 Gaussian 09, Revision D.01,
 Gaussian 09:  ES64L-G09RevD.01 24-Apr-2013

 ------------------------------------------------------------
 #P AM1(Input,print) CIS(Singlets,NStates=15) pop(full) force
 ------------------------------------------------------------

 -----------------
 AM1-Reparam Input
 -----------------
 Symbolic Z-matrix:
 Charge =  0 Multiplicity = 1

                         Standard orientation:
 ---------------------------------------------------------------------
 Center     Atomic      Atomic             Coordinates (Angstroms)
 Number     Number       Type             X           Y           Z
 ---------------------------------------------------------------------
      1          6           0       -0.539353    1.061019   -0.012649
      2          6           0       -1.170045   -0.182549    0.028961
      3          8           0       -0.201308   -1.090727   -0.017120
      4          6           0        1.014732   -0.522020   -0.001889
      5          6           0        0.911592    0.780923   -0.009582
      6          1           0        1.622497    1.557458    0.076031
      7          1           0        1.845513   -1.197540    0.044122
      8          1           0       -2.155868   -0.461706    0.015911
      9          1           0       -1.003236    2.003364   -0.028147
 ---------------------------------------------------------------------

 SCF Done:  E(RAM1) =  -6.06859146818     A.U. after   14 cycles

 Excitation energies and oscillator strengths:

 Excited State   1:      Singlet-A      6.4897 eV  191.05 nm  f=0.0092  <S**2>=0.000
      13 -> 14        -0.14716
      13 -> 15         0.67901
      13 -> 16         0.10212
 This state for optimization and/or second-order correction.
 Total Energy, E(CIS) =  -5.83009852288
 Copying the excited state density for this state as the 1-particle RhoCI density.

 Excited State   2:      Singlet-A      6.8792 eV  180.23 nm  f=0.3021  <S**2>=0.000
      13 -> 14         0.67236
      13 -> 15         0.14371

 Excited State   3:      Singlet-A      7.8012 eV  158.93 nm  f=0.1235  <S**2>=0.000
      11 -> 14         0.16384
      13 -> 15        -0.10333
      13 -> 16         0.66880

 Excited State   4:      Singlet-A      8.1720 eV  151.72 nm  f=0.0010  <S**2>=0.000
      12 -> 14         0.69541

 Excited State   5:      Singlet-A      8.8611 eV  139.92 nm  f=0.0001  <S**2>=0.000
      13 -> 17         0.66813
      13 -> 20        -0.14832
      13 -> 22         0.11186

 Excited State   6:      Singlet-A      9.2188 eV  134.49 nm  f=0.0071  <S**2>=0.000
      10 -> 14         0.62550
      11 -> 14        -0.30337

 Excited State   7:      Singlet-A      9.9452 eV  124.67 nm  f=0.0005  <S**2>=0.000
      10 -> 15         0.20562
      11 -> 14        -0.12708
      11 -> 15         0.59010
      12 -> 15         0.23380

 Excited State   8:      Singlet-A     10.2003 eV  121.55 nm  f=0.0020  <S**2>=0.000
      10 -> 14        -0.11992
      11 -> 14        -0.20828
      11 -> 15        -0.26905
      12 -> 15         0.58708

 Excited State   9:      Singlet-A     10.5013 eV  118.07 nm  f=0.0285  <S**2>=0.000
      11 -> 14         0.18765
      12 -> 15         0.10064
      12 -> 16        -0.13195
      13 -> 18         0.57545
      13 -> 19        -0.24432

 Excited State  10:      Singlet-A     10.5664 eV  117.34 nm  f=0.1997  <S**2>=0.000
      10 -> 14         0.18205
      10 -> 15         0.10413
      11 -> 14         0.43117
      12 -> 15         0.21917
      12 -> 16        -0.30505
      13 -> 16        -0.13960
      13 -> 18        -0.25090
      13 -> 19         0.10435

 Excited State  11:      Singlet-A     10.6772 eV  116.12 nm  f=0.0847  <S**2>=0.000
      10 -> 14         0.17022
      11 -> 14         0.22073
      12 -> 16         0.58982
      13 -> 20         0.12590

 Excited State  12:      Singlet-A     10.8223 eV  114.56 nm  f=0.0213  <S**2>=0.000
      12 -> 16        -0.10665
      13 -> 17         0.14648
      13 -> 20         0.57330
      13 -> 21        -0.21882
      13 -> 23         0.22456

 Excited State  13:      Singlet-A     10.9125 eV  113.62 nm  f=0.1149  <S**2>=0.000
       8 -> 15        -0.15060
       9 -> 17         0.10311
      10 -> 15         0.29431
      10 -> 16         0.19928
      11 -> 14        -0.11487
      11 -> 15        -0.15621
      11 -> 16         0.43510
      12 -> 17         0.20548
      12 -> 20        -0.12989

 Excited State  14:      Singlet-A     11.2832 eV  109.88 nm  f=0.0289  <S**2>=0.000
      10 -> 15         0.53037
      11 -> 15        -0.12229
      11 -> 16        -0.38128
      12 -> 17        -0.10960

 Excited State  15:      Singlet-A     11.4849 eV  107.95 nm  f=0.0023  <S**2>=0.000
      11 -> 17         0.11070
      13 -> 18         0.14588
      13 -> 19         0.37923
      13 -> 20         0.14176
      13 -> 21         0.52642

 The electronic state is 1-A.
 Alpha  occ. eigenvalues --   -4.10005  -1.32780  -0.96827  -0.95229  -0.92524
 Alpha  occ. eigenvalues --   -0.88784  -0.79677  -0.65329  -0.63602  -0.53855
 Alpha  occ. eigenvalues --   -0.53331  -0.50677  -0.38530
 Alpha virt. eigenvalues --    0.08113   0.11124   0.12674   0.19235   0.25128
 Alpha virt. eigenvalues --    0.28633   0.28955   0.30169   0.33358   0.34719
 Alpha virt. eigenvalues --    0.36027

 Mulliken charges:
               1
     1  C   -0.216730
     2  C   -1.405909
     3  O    2.540619
     4  C   -1.374399
     5  C   -0.154148
     6  H    0.121739
     7  H    0.183105
     8  H    0.181455
     9  H    0.124268
 Sum of Mulliken charges =   0.00000

 Dipole moment (field-independent basis, Debye):
    X=             -1.0861    Y=             -8.3588    Z=             -0.2252  Tot=              8.4321
 N-N= 1.054400415819D+02 E-N=-1.725681006091D+02  KE=-2.402616917920D+01
 Orbital energies and kinetic energies (alpha):
                                 1                 2
   1         O                -4.100047         -3.457498
   2         O                -1.327804         -1.227990
   3         O                -0.968273         -0.929386
   4         O                -0.952289         -0.967074
   5         O                -0.925239         -0.808194
   6         O                -0.887837         -0.812557
   7         O                -0.796773         -0.753133

 Normal termination of Gaussian 09 at Fri Dec 11 13:41:17 2015.
