 Gaussian 09, Revision D.01,
 Gaussian 09:  ES64L-G09RevD.01 24-Apr-2013

 ------------------------------------------------------------
 #P AM1(Input,print) CIS(Singlets,NStates=15) pop(full) force
 ------------------------------------------------------------

 -----------------
 AM1-Reparam Input
 -----------------
 Symbolic Z-matrix:
 Charge =  0 Multiplicity = 1

                         Standard orientation:
 ---------------------------------------------------------------------
 Center     Atomic      Atomic             Coordinates (Angstroms)
 Number     Number       Type             X           Y           Z
 ---------------------------------------------------------------------
      1          6           0       -0.641123    1.005779   -0.031384
      2          6           0       -1.129898   -0.283423    0.038843
      3          8           0       -0.049575   -1.188788   -0.025569
      4          6           0        1.067270   -0.347998    0.002481
      5          6           0        0.740796    0.891495    0.010900
      6          1           0        1.483228    1.728144    0.013694
      7          1           0        2.054875   -0.910209    0.044960
      8          1           0       -2.029750   -0.737221    0.024056
      9          1           0       -1.334025    1.834473   -0.003191
 ---------------------------------------------------------------------

 SCF Done:  E(RAM1) =   2.16502370003     A.U. after   13 cycles

 Excitation energies and oscillator strengths:

 Excited State   1:      Singlet-A      5.5770 eV  222.31 nm  f=0.3161  <S**2>=0.000
      13 -> 14         0.69193
 This state for optimization and/or second-order correction.
 Total Energy, E(CIS) =   2.36997647782
 Copying the excited state density for this state as the 1-particle RhoCI density.

 Excited State   2:      Singlet-A      6.1113 eV  202.88 nm  f=0.0005  <S**2>=0.000
      10 -> 15         0.12643
      13 -> 15         0.68112

 Excited State   3:      Singlet-A      6.7375 eV  184.02 nm  f=0.0016  <S**2>=0.000
      10 -> 16        -0.11952
      13 -> 16         0.66435
      13 -> 17        -0.14657
      13 -> 20         0.12219

 Excited State   4:      Singlet-A      7.4791 eV  165.77 nm  f=0.0017  <S**2>=0.000
      12 -> 14         0.69857

 Excited State   5:      Singlet-A      7.9976 eV  155.03 nm  f=0.0085  <S**2>=0.000
      11 -> 14         0.64875
      13 -> 17        -0.24644

 Excited State   6:      Singlet-A      8.2240 eV  150.76 nm  f=0.0029  <S**2>=0.000
      10 -> 16        -0.11516
      11 -> 14         0.25135
      13 -> 16         0.10619
      13 -> 17         0.58245
      13 -> 18        -0.19409
      13 -> 22         0.16169

 Excited State   7:      Singlet-A      8.3523 eV  148.44 nm  f=0.0052  <S**2>=0.000
      13 -> 17         0.22837
      13 -> 18         0.52533
      13 -> 20         0.22668
      13 -> 22        -0.30743

 Excited State   8:      Singlet-A      8.9829 eV  138.02 nm  f=0.0098  <S**2>=0.000
      10 -> 14         0.53709
      12 -> 15         0.22121
      13 -> 19         0.35568

 Excited State   9:      Singlet-A      9.0662 eV  136.75 nm  f=0.0010  <S**2>=0.000
      10 -> 16         0.10653
      13 -> 18        -0.34311
      13 -> 20         0.56738
      13 -> 22        -0.13263

 Excited State  10:      Singlet-A      9.4220 eV  131.59 nm  f=0.0619  <S**2>=0.000
       9 -> 15        -0.10086
      12 -> 15         0.56088
      12 -> 16        -0.13315
      13 -> 19        -0.31906

 Excited State  11:      Singlet-A      9.6850 eV  128.02 nm  f=0.1590  <S**2>=0.000
      10 -> 14        -0.34642
      12 -> 15         0.25597
      12 -> 17        -0.14857
      13 -> 19         0.43479
      13 -> 22        -0.18788

 Excited State  12:      Singlet-A      9.7137 eV  127.64 nm  f=0.0311  <S**2>=0.000
      11 -> 15        -0.15773
      11 -> 17         0.12159
      12 -> 15         0.12979
      12 -> 16         0.11635
      12 -> 17        -0.11737
      13 -> 18         0.21269
      13 -> 20         0.25394
      13 -> 21        -0.11731
      13 -> 22         0.48409

 Excited State  13:      Singlet-A      9.7525 eV  127.13 nm  f=0.1124  <S**2>=0.000
       9 -> 15        -0.13001
      10 -> 14        -0.21180
      11 -> 15         0.28172
      11 -> 17        -0.20232
      11 -> 18        -0.10624
      12 -> 16        -0.20205
      12 -> 17         0.16354
      12 -> 18        -0.16515
      13 -> 19         0.22257
      13 -> 20         0.11167
      13 -> 21         0.15441
      13 -> 22         0.24990

 Excited State  14:      Singlet-A      9.9232 eV  124.94 nm  f=0.0915  <S**2>=0.000
      10 -> 15         0.25045
      13 -> 21         0.59259
      13 -> 22         0.11830

 Excited State  15:      Singlet-A     10.0967 eV  122.80 nm  f=0.0097  <S**2>=0.000
       7 -> 15        -0.12282
      10 -> 15         0.59362
      10 -> 16         0.14761
      13 -> 15        -0.14138
      13 -> 21        -0.24284

 The electronic state is 1-A.
 Alpha  occ. eigenvalues --   -1.92533  -1.20752  -0.93289  -0.79694  -0.78802
 Alpha  occ. eigenvalues --   -0.68887  -0.65577  -0.53954  -0.53254  -0.43444
 Alpha  occ. eigenvalues --   -0.42266  -0.40630  -0.27916
 Alpha virt. eigenvalues --    0.13759   0.16944   0.20585   0.26277   0.28661
 Alpha virt. eigenvalues --    0.29523   0.31279   0.32587   0.34357   0.38592
 Alpha virt. eigenvalues --    0.41494

 Mulliken charges:
               1
     1  C   -0.168533
     2  C   -1.869582
     3  O    3.200354
     4  C   -1.842353
     5  C   -0.126420
     6  H    0.151195
     7  H    0.258056
     8  H    0.239739
     9  H    0.157543
 Sum of Mulliken charges =   0.00000

 Dipole moment (field-independent basis, Debye):
    X=              0.2884    Y=            -11.8372    Z=             -0.5533  Tot=             11.8536
 N-N= 1.040566034527D+02 E-N=-1.692303485557D+02  KE=-1.533284040734D+01
 Orbital energies and kinetic energies (alpha):
                                 1                 2
   1         O                -1.925335         -1.331722
   2         O                -1.207520         -1.070456
   3         O                -0.932891         -0.898739
   4         O                -0.796940         -0.576740
   5         O                -0.788024         -0.669158
   6         O                -0.688870         -0.590203
   7         O                -0.655767         -0.537088

 Normal termination of Gaussian 09 at Tue Dec 15 17:09:27 2015.
