 Gaussian 09, Revision D.01,
 Gaussian 09:  ES64L-G09RevD.01 24-Apr-2013

 ------------------------------------------------------------
 #P AM1(Input,print) CIS(Singlets,NStates=15) pop(full) force
 ------------------------------------------------------------

 -----------------
 AM1-Reparam Input
 -----------------
 Symbolic Z-matrix:
 Charge =  0 Multiplicity = 1

                         Standard orientation:
 ---------------------------------------------------------------------
 Center     Atomic      Atomic             Coordinates (Angstroms)
 Number     Number       Type             X           Y           Z
 ---------------------------------------------------------------------
      1          6           0        0.956267    0.768817   -0.033050
      2          6           0       -0.446032    1.036165    0.027912
      3          8           0       -1.161625   -0.059223   -0.012288
      4          6           0       -0.315899   -1.090225   -0.000004
      5          6           0        1.029584   -0.673188   -0.002364
      6          1           0        1.929279   -1.218888    0.064128
      7          1           0       -0.770907   -2.058547    0.023451
      8          1           0       -0.921401    2.023070    0.013819
      9          1           0        1.712513    1.478739    0.041936
 ---------------------------------------------------------------------

 SCF Done:  E(RAM1) =   2.78163775199     A.U. after   13 cycles

 Excitation energies and oscillator strengths:

 Excited State   1:      Singlet-A      5.4550 eV  227.29 nm  f=0.3536  <S**2>=0.000
      13 -> 14         0.69529
 This state for optimization and/or second-order correction.
 Total Energy, E(CIS) =   2.98210428319
 Copying the excited state density for this state as the 1-particle RhoCI density.

 Excited State   2:      Singlet-A      6.6892 eV  185.35 nm  f=0.0073  <S**2>=0.000
      13 -> 15         0.64021
      13 -> 17         0.25163

 Excited State   3:      Singlet-A      6.8153 eV  181.92 nm  f=0.0033  <S**2>=0.000
       9 -> 14         0.15541
      12 -> 14         0.68195

 Excited State   4:      Singlet-A      6.9434 eV  178.56 nm  f=0.0015  <S**2>=0.000
      11 -> 16         0.10293
      13 -> 16         0.62398
      13 -> 18         0.26771

 Excited State   5:      Singlet-A      7.8118 eV  158.71 nm  f=0.0079  <S**2>=0.000
      10 -> 14         0.66271
      11 -> 14        -0.21015

 Excited State   6:      Singlet-A      8.0511 eV  154.00 nm  f=0.0001  <S**2>=0.000
      11 -> 15        -0.15399
      13 -> 16        -0.18395
      13 -> 17        -0.13663
      13 -> 18         0.37295
      13 -> 19         0.18699
      13 -> 21         0.47481

 Excited State   7:      Singlet-A      8.3135 eV  149.14 nm  f=0.0486  <S**2>=0.000
      11 -> 14         0.38513
      11 -> 16        -0.13635
      13 -> 15        -0.16196
      13 -> 17         0.51327
      13 -> 18         0.10886

 Excited State   8:      Singlet-A      8.3473 eV  148.53 nm  f=0.0866  <S**2>=0.000
      10 -> 14         0.21593
      11 -> 14         0.53893
      13 -> 17        -0.34551

 Excited State   9:      Singlet-A      8.8151 eV  140.65 nm  f=0.0008  <S**2>=0.000
      11 -> 15        -0.10404
      13 -> 16        -0.14003
      13 -> 18         0.44015
      13 -> 19        -0.39214
      13 -> 21        -0.30320

 Excited State  10:      Singlet-A      9.2898 eV  133.46 nm  f=0.0021  <S**2>=0.000
      13 -> 18         0.22519
      13 -> 19         0.51832
      13 -> 20        -0.15599
      13 -> 21        -0.37573

 Excited State  11:      Singlet-A      9.4703 eV  130.92 nm  f=0.0310  <S**2>=0.000
       8 -> 15         0.13608
       9 -> 16         0.11656
       9 -> 18         0.14312
      10 -> 15         0.25490
      10 -> 17         0.23983
      11 -> 15        -0.18497
      12 -> 15        -0.16019
      12 -> 16         0.28734
      12 -> 18         0.19561
      12 -> 19         0.12819
      12 -> 21         0.14863
      13 -> 20        -0.20497

 Excited State  12:      Singlet-A      9.5797 eV  129.42 nm  f=0.0216  <S**2>=0.000
       9 -> 14         0.56518
      12 -> 14        -0.12868
      13 -> 20        -0.34552

 Excited State  13:      Singlet-A      9.6014 eV  129.13 nm  f=0.0557  <S**2>=0.000
       9 -> 14         0.32894
      10 -> 15         0.10896
      11 -> 15         0.12513
      12 -> 16         0.13023
      13 -> 19         0.12770
      13 -> 20         0.51817

 Excited State  14:      Singlet-A      9.6608 eV  128.34 nm  f=0.0186  <S**2>=0.000
       9 -> 14        -0.13383
      11 -> 15         0.56080
      11 -> 17         0.13894
      12 -> 16         0.18152
      13 -> 15         0.11018
      13 -> 16        -0.14573
      13 -> 20        -0.10400

 Excited State  15:      Singlet-A      9.7626 eV  127.00 nm  f=0.0305  <S**2>=0.000
       9 -> 15        -0.11508
      10 -> 15         0.24120
      10 -> 16        -0.12229
      11 -> 16         0.10799
      12 -> 15         0.55554
      12 -> 17         0.20758

 The electronic state is 1-A.
 Alpha  occ. eigenvalues --   -1.72557  -1.10534  -0.91151  -0.79547  -0.74482
 Alpha  occ. eigenvalues --   -0.66986  -0.63370  -0.53643  -0.48684  -0.44919
 Alpha  occ. eigenvalues --   -0.42516  -0.41289  -0.30055
 Alpha virt. eigenvalues --    0.10458   0.17818   0.18746   0.24253   0.26002
 Alpha virt. eigenvalues --    0.28341   0.29129   0.29510   0.40270   0.49067
 Alpha virt. eigenvalues --    0.53247

 Mulliken charges:
               1
     1  C   -0.128371
     2  C   -2.002310
     3  O    3.207281
     4  C   -1.966200
     5  C   -0.084435
     6  H    0.174756
     7  H    0.299963
     8  H    0.322245
     9  H    0.177070
 Sum of Mulliken charges =   0.00000

 Dipole moment (field-independent basis, Debye):
    X=             -9.6455    Y=             -0.3030    Z=             -0.2239  Tot=              9.6528
 N-N= 1.037969665906D+02 E-N=-1.688713648847D+02  KE=-1.476465583170D+01
 Orbital energies and kinetic energies (alpha):
                                 1                 2
   1         O                -1.725566         -1.232189
   2         O                -1.105337         -0.988309
   3         O                -0.911506         -0.817666
   4         O                -0.795469         -0.616693
   5         O                -0.744822         -0.672207
   6         O                -0.669862         -0.587245
   7         O                -0.633699         -0.513090

 Normal termination of Gaussian 09 at Tue Dec 15 17:05:50 2015.
