 Gaussian 09, Revision D.01,
 Gaussian 09:  ES64L-G09RevD.01 24-Apr-2013

 ------------------------------------------------------------
 #P AM1(Input,print) CIS(Singlets,NStates=15) pop(full) force
 ------------------------------------------------------------

 -----------------
 AM1-Reparam Input
 -----------------
 Symbolic Z-matrix:
 Charge =  0 Multiplicity = 1

                         Standard orientation:
 ---------------------------------------------------------------------
 Center     Atomic      Atomic             Coordinates (Angstroms)
 Number     Number       Type             X           Y           Z
 ---------------------------------------------------------------------
      1          6           0        0.906798    0.776835   -0.013504
      2          6           0        1.034385   -0.574751    0.020855
      3          8           0       -0.305036   -1.109669   -0.002194
      4          6           0       -1.147473   -0.105361   -0.002074
      5          6           0       -0.458687    1.060529   -0.015200
      6          1           0       -0.909003    2.133576    0.071905
      7          1           0       -2.221451   -0.316488    0.014679
      8          1           0        1.834847   -1.276483   -0.028184
      9          1           0        1.725766    1.393239    0.018693
 ---------------------------------------------------------------------

 SCF Done:  E(RAM1) =  -3.75020174555     A.U. after   14 cycles

 Excitation energies and oscillator strengths:

 Excited State   1:      Singlet-A      6.7456 eV  183.80 nm  f=0.3488  <S**2>=0.000
      13 -> 14         0.69148
 This state for optimization and/or second-order correction.
 Total Energy, E(CIS) =  -3.50230724248
 Copying the excited state density for this state as the 1-particle RhoCI density.

 Excited State   2:      Singlet-A      8.1197 eV  152.70 nm  f=0.0073  <S**2>=0.000
       9 -> 14        -0.10597
      12 -> 14         0.66939
      13 -> 15         0.14176

 Excited State   3:      Singlet-A      8.3032 eV  149.32 nm  f=0.0066  <S**2>=0.000
      12 -> 14        -0.15250
      13 -> 15         0.64574
      13 -> 17        -0.10488
      13 -> 18         0.14519

 Excited State   4:      Singlet-A      8.5736 eV  144.61 nm  f=0.0063  <S**2>=0.000
      11 -> 14         0.67735

 Excited State   5:      Singlet-A      8.9622 eV  138.34 nm  f=0.0054  <S**2>=0.000
      11 -> 14         0.11607
      13 -> 16         0.64760
      13 -> 21         0.18205

 Excited State   6:      Singlet-A      9.8175 eV  126.29 nm  f=0.0741  <S**2>=0.000
      10 -> 14         0.65163
      13 -> 19         0.22483

 Excited State   7:      Singlet-A     10.2226 eV  121.28 nm  f=0.0015  <S**2>=0.000
      10 -> 16         0.12862
      13 -> 16         0.11887
      13 -> 17         0.62385
      13 -> 18         0.17954
      13 -> 22        -0.18773

 Excited State   8:      Singlet-A     10.4648 eV  118.48 nm  f=0.0124  <S**2>=0.000
      10 -> 15         0.17662
      13 -> 15        -0.16795
      13 -> 17        -0.24076
      13 -> 18         0.47882
      13 -> 21        -0.23811
      13 -> 22        -0.26743

 Excited State   9:      Singlet-A     11.1418 eV  111.28 nm  f=0.0351  <S**2>=0.000
       9 -> 14        -0.27189
      10 -> 16        -0.12651
      12 -> 15        -0.27023
      13 -> 18         0.31001
      13 -> 20         0.15726
      13 -> 21         0.30019
      13 -> 22         0.28472

 Excited State  10:      Singlet-A     11.1526 eV  111.17 nm  f=0.0349  <S**2>=0.000
       9 -> 14        -0.17001
      12 -> 15         0.56392
      12 -> 18         0.15098
      13 -> 18         0.19590
      13 -> 21         0.11625

 Excited State  11:      Singlet-A     11.2980 eV  109.74 nm  f=0.0205  <S**2>=0.000
       9 -> 14         0.54666
      12 -> 14         0.10503
      13 -> 18         0.21495
      13 -> 19         0.13748
      13 -> 20         0.20781
      13 -> 22         0.17845

 Excited State  12:      Singlet-A     11.4014 eV  108.74 nm  f=0.2084  <S**2>=0.000
       9 -> 14        -0.16030
      10 -> 14        -0.19719
      10 -> 15        -0.13142
      13 -> 19         0.61975

 Excited State  13:      Singlet-A     11.5138 eV  107.68 nm  f=0.0578  <S**2>=0.000
       9 -> 14        -0.10430
      10 -> 15         0.35688
      11 -> 15         0.23755
      11 -> 17        -0.10315
      12 -> 15         0.15813
      12 -> 16        -0.17771
      12 -> 17         0.16532
      12 -> 18         0.15005
      13 -> 20         0.28391
      13 -> 21        -0.12015

 Excited State  14:      Singlet-A     11.5627 eV  107.23 nm  f=0.0279  <S**2>=0.000
       9 -> 14        -0.12533
      11 -> 15        -0.16557
      12 -> 16         0.20519
      12 -> 17        -0.18728
      13 -> 20         0.38488
      13 -> 21        -0.33630
      13 -> 22         0.14365

 Excited State  15:      Singlet-A     11.5862 eV  107.01 nm  f=0.0419  <S**2>=0.000
      10 -> 15         0.44019
      10 -> 17        -0.10166
      10 -> 18         0.11229
      12 -> 16         0.17887
      12 -> 17        -0.18737
      13 -> 15         0.11092
      13 -> 16        -0.10330
      13 -> 21         0.29790
      13 -> 22        -0.13562

 The electronic state is 1-A.
 Alpha  occ. eigenvalues --   -3.05860  -1.26139  -0.97002  -0.91243  -0.90023
 Alpha  occ. eigenvalues --   -0.86104  -0.79637  -0.66987  -0.62735  -0.57072
 Alpha  occ. eigenvalues --   -0.56201  -0.54318  -0.43573
 Alpha virt. eigenvalues --    0.03200   0.10562   0.14389   0.18191   0.20239
 Alpha virt. eigenvalues --    0.21408   0.23679   0.24756   0.26819   0.33260
 Alpha virt. eigenvalues --    0.41007

 Mulliken charges:
               1
     1  C   -0.190967
     2  C   -1.469880
     3  O    2.693594
     4  C   -1.491669
     5  C   -0.295177
     6  H    0.177672
     7  H    0.224930
     8  H    0.192411
     9  H    0.159087
 Sum of Mulliken charges =   0.00000

 Dipole moment (field-independent basis, Debye):
    X=             -3.1482    Y=             -9.1895    Z=             -0.0715  Tot=              9.7141
 N-N= 1.057120489663D+02 E-N=-1.729221280716D+02  KE=-2.166447558804D+01
 Orbital energies and kinetic energies (alpha):
                                 1                 2
   1         O                -3.058602         -2.373302
   2         O                -1.261392         -1.133359
   3         O                -0.970021         -0.789194
   4         O                -0.912429         -0.896394
   5         O                -0.900225         -0.815756
   6         O                -0.861040         -0.879547
   7         O                -0.796371         -0.691524

 Normal termination of Gaussian 09 at Fri Dec 11 13:41:17 2015.
