 Gaussian 09, Revision D.01,
 Gaussian 09:  ES64L-G09RevD.01 24-Apr-2013

 ------------------------------------------------------------
 #P AM1(Input,print) CIS(Singlets,NStates=15) pop(full) force
 ------------------------------------------------------------

 -----------------
 AM1-Reparam Input
 -----------------
 Symbolic Z-matrix:
 Charge =  0 Multiplicity = 1

                         Standard orientation:
 ---------------------------------------------------------------------
 Center     Atomic      Atomic             Coordinates (Angstroms)
 Number     Number       Type             X           Y           Z
 ---------------------------------------------------------------------
      1          6           0       -0.684561    0.942479   -0.004022
      2          6           0       -1.128426   -0.256752    0.028697
      3          8           0       -0.062078   -1.183638   -0.026626
      4          6           0        1.134487   -0.371953    0.024121
      5          6           0        0.738963    0.954621   -0.025195
      6          1           0        1.430802    1.758637    0.020651
      7          1           0        2.086086   -0.898317    0.043721
      8          1           0       -2.030648   -0.814098   -0.001215
      9          1           0       -1.352394    1.812515    0.008243
 ---------------------------------------------------------------------

 SCF Done:  E(RAM1) =   1.78396504223     A.U. after   13 cycles

 Excitation energies and oscillator strengths:

 Excited State   1:      Singlet-A      5.3349 eV  232.40 nm  f=0.3465  <S**2>=0.000
      13 -> 14         0.69273
 This state for optimization and/or second-order correction.
 Total Energy, E(CIS) =   1.98001903583
 Copying the excited state density for this state as the 1-particle RhoCI density.

 Excited State   2:      Singlet-A      6.7425 eV  183.88 nm  f=0.0002  <S**2>=0.000
      10 -> 15         0.10987
      13 -> 15         0.68177

 Excited State   3:      Singlet-A      7.1021 eV  174.57 nm  f=0.0014  <S**2>=0.000
      12 -> 14         0.69667

 Excited State   4:      Singlet-A      7.1983 eV  172.24 nm  f=0.0020  <S**2>=0.000
      10 -> 16        -0.10731
      13 -> 16         0.66066
      13 -> 17        -0.14879
      13 -> 20         0.12172

 Excited State   5:      Singlet-A      7.8600 eV  157.74 nm  f=0.0063  <S**2>=0.000
      11 -> 14         0.69886

 Excited State   6:      Singlet-A      8.7407 eV  141.85 nm  f=0.0002  <S**2>=0.000
      13 -> 16        -0.11646
      13 -> 17        -0.34534
      13 -> 19         0.52947
      13 -> 20         0.11611
      13 -> 22        -0.23956

 Excited State   7:      Singlet-A      8.9144 eV  139.08 nm  f=0.0120  <S**2>=0.000
      13 -> 17         0.57823
      13 -> 19         0.32461
      13 -> 20         0.14447

 Excited State   8:      Singlet-A      9.2967 eV  133.36 nm  f=0.0093  <S**2>=0.000
      10 -> 14         0.52881
      12 -> 15        -0.15712
      13 -> 18         0.41190

 Excited State   9:      Singlet-A      9.5922 eV  129.26 nm  f=0.0019  <S**2>=0.000
      13 -> 19        -0.21313
      13 -> 20         0.64987

 Excited State  10:      Singlet-A      9.6951 eV  127.88 nm  f=0.0261  <S**2>=0.000
       8 -> 15        -0.11365
      10 -> 14        -0.11582
      12 -> 15         0.49171
      12 -> 16        -0.14588
      12 -> 17         0.10509
      12 -> 19        -0.14419
      13 -> 18         0.37528

 Excited State  11:      Singlet-A      9.9172 eV  125.02 nm  f=0.2036  <S**2>=0.000
      10 -> 14        -0.41645
      12 -> 15        -0.30419
      12 -> 19         0.10279
      13 -> 18         0.42012

 Excited State  12:      Singlet-A     10.0404 eV  123.49 nm  f=0.1035  <S**2>=0.000
       9 -> 15         0.11221
      11 -> 15         0.28829
      11 -> 16         0.10080
      11 -> 17        -0.21319
      11 -> 19        -0.14412
      12 -> 15         0.30673
      12 -> 16         0.25383
      12 -> 17        -0.25996
      12 -> 19         0.22426

 Excited State  13:      Singlet-A     10.4619 eV  118.51 nm  f=0.0634  <S**2>=0.000
      13 -> 21         0.68333

 Excited State  14:      Singlet-A     10.6558 eV  116.35 nm  f=0.0001  <S**2>=0.000
      13 -> 19         0.23933
      13 -> 22         0.64613

 Excited State  15:      Singlet-A     10.7378 eV  115.47 nm  f=0.2069  <S**2>=0.000
       8 -> 16        -0.10550
      11 -> 16         0.47399
      11 -> 17        -0.15625
      12 -> 16        -0.41912
      12 -> 19         0.14816

 The electronic state is 1-A.
 Alpha  occ. eigenvalues --   -1.89100  -1.17417  -0.92399  -0.81279  -0.77864
 Alpha  occ. eigenvalues --   -0.69516  -0.66303  -0.55720  -0.55105  -0.46053
 Alpha  occ. eigenvalues --   -0.42923  -0.40528  -0.28475
 Alpha virt. eigenvalues --    0.12135   0.18619   0.21035   0.28034   0.29542
 Alpha virt. eigenvalues --    0.30173   0.31552   0.33977   0.36911   0.39170
 Alpha virt. eigenvalues --    0.41359

 Mulliken charges:
               1
     1  C   -0.180632
     2  C   -1.945643
     3  O    3.296802
     4  C   -2.009795
     5  C   -0.193546
     6  H    0.207003
     7  H    0.319365
     8  H    0.298236
     9  H    0.208211
 Sum of Mulliken charges =   0.00000

 Dipole moment (field-independent basis, Debye):
    X=             -1.0880    Y=            -12.0571    Z=             -0.7087  Tot=             12.1268
 N-N= 1.032271841892D+02 E-N=-1.681774055396D+02  KE=-1.545540541887D+01
 Orbital energies and kinetic energies (alpha):
                                 1                 2
   1         O                -1.891002         -1.314146
   2         O                -1.174167         -1.057681
   3         O                -0.923986         -0.898914
   4         O                -0.812787         -0.595274
   5         O                -0.778642         -0.663295
   6         O                -0.695162         -0.594961
   7         O                -0.663033         -0.538002

 Normal termination of Gaussian 09 at Tue Dec 15 17:09:36 2015.
