 Gaussian 09, Revision D.01,
 Gaussian 09:  ES64L-G09RevD.01 24-Apr-2013

 ------------------------------------------------------------
 #P AM1(Input,print) CIS(Singlets,NStates=15) pop(full) force
 ------------------------------------------------------------

 -----------------
 AM1-Reparam Input
 -----------------
 Symbolic Z-matrix:
 Charge =  0 Multiplicity = 1

                         Standard orientation:
 ---------------------------------------------------------------------
 Center     Atomic      Atomic             Coordinates (Angstroms)
 Number     Number       Type             X           Y           Z
 ---------------------------------------------------------------------
      1          6           0        0.804052    0.840071    0.001280
      2          6           0        1.027364   -0.520018   -0.011118
      3          8           0       -0.188200   -1.107461    0.028342
      4          6           0       -1.102251   -0.202701   -0.025629
      5          6           0       -0.527351    1.054121   -0.014606
      6          1           0       -1.063821    1.971322    0.073959
      7          1           0       -2.176746   -0.569906    0.004219
      8          1           0        1.924076   -1.135306   -0.049914
      9          1           0        1.611208    1.564739    0.045441
 ---------------------------------------------------------------------

 SCF Done:  E(RAM1) =   1.71750742807     A.U. after   13 cycles

 Excitation energies and oscillator strengths:

 Excited State   1:      Singlet-A      5.9004 eV  210.13 nm  f=0.3200  <S**2>=0.000
      13 -> 14         0.68569
 This state for optimization and/or second-order correction.
 Total Energy, E(CIS) =   1.93434140605
 Copying the excited state density for this state as the 1-particle RhoCI density.

 Excited State   2:      Singlet-A      7.2998 eV  169.85 nm  f=0.0036  <S**2>=0.000
      10 -> 15         0.12890
      13 -> 15         0.65665
      13 -> 17        -0.15723

 Excited State   3:      Singlet-A      7.4186 eV  167.13 nm  f=0.0008  <S**2>=0.000
      12 -> 14         0.69137

 Excited State   4:      Singlet-A      7.8432 eV  158.08 nm  f=0.0082  <S**2>=0.000
      11 -> 14         0.54601
      13 -> 16         0.40386

 Excited State   5:      Singlet-A      7.9309 eV  156.33 nm  f=0.0009  <S**2>=0.000
      11 -> 14        -0.43516
      13 -> 16         0.52264

 Excited State   6:      Singlet-A      9.3397 eV  132.75 nm  f=0.0093  <S**2>=0.000
      10 -> 15         0.13660
      13 -> 15         0.11810
      13 -> 17         0.52699
      13 -> 18        -0.37226
      13 -> 21         0.19384

 Excited State   7:      Singlet-A      9.4768 eV  130.83 nm  f=0.0900  <S**2>=0.000
      10 -> 14         0.67531

 Excited State   8:      Singlet-A      9.5878 eV  129.31 nm  f=0.0089  <S**2>=0.000
      10 -> 16        -0.14684
      13 -> 17         0.39396
      13 -> 18         0.50838
      13 -> 21        -0.20075

 Excited State   9:      Singlet-A      9.9219 eV  124.96 nm  f=0.0428  <S**2>=0.000
       8 -> 15         0.11281
       9 -> 15         0.12465
      11 -> 15        -0.17023
      11 -> 16        -0.26704
      11 -> 17         0.22168
      11 -> 18         0.15050
      12 -> 15         0.39013
      12 -> 17        -0.17118
      12 -> 18         0.20664
      13 -> 14        -0.12576

 Excited State  10:      Singlet-A     10.1692 eV  121.92 nm  f=0.0108  <S**2>=0.000
      10 -> 16         0.12102
      11 -> 15         0.14902
      13 -> 19         0.63997

 Excited State  11:      Singlet-A     10.2102 eV  121.43 nm  f=0.1201  <S**2>=0.000
      11 -> 15         0.51790
      11 -> 17        -0.14237
      12 -> 15         0.35996
      13 -> 19        -0.18501

 Excited State  12:      Singlet-A     10.5235 eV  117.82 nm  f=0.1418  <S**2>=0.000
      11 -> 16        -0.16743
      11 -> 19        -0.10023
      12 -> 16         0.61263
      12 -> 17        -0.12123
      12 -> 19         0.15746

 Excited State  13:      Singlet-A     10.7643 eV  115.18 nm  f=0.0095  <S**2>=0.000
       7 -> 15        -0.10313
      10 -> 15         0.57372
      12 -> 15        -0.18268
      13 -> 15        -0.15548

 Excited State  14:      Singlet-A     10.8365 eV  114.41 nm  f=0.0277  <S**2>=0.000
       8 -> 15         0.10562
       8 -> 16        -0.11200
       9 -> 15         0.14124
      10 -> 14         0.10752
      10 -> 15         0.25720
      11 -> 15        -0.19225
      11 -> 16         0.18482
      11 -> 19         0.21048
      12 -> 15         0.22120
      12 -> 16         0.21990
      12 -> 17         0.19308
      12 -> 18        -0.22228
      12 -> 19        -0.13465
      12 -> 20         0.13504

 Excited State  15:      Singlet-A     11.1093 eV  111.60 nm  f=0.0630  <S**2>=0.000
       9 -> 14        -0.14505
      10 -> 16         0.14870
      13 -> 18         0.17864
      13 -> 20         0.51653
      13 -> 21         0.37030

 The electronic state is 1-A.
 Alpha  occ. eigenvalues --   -1.92872  -1.19870  -0.92184  -0.82807  -0.78235
 Alpha  occ. eigenvalues --   -0.70232  -0.69051  -0.57613  -0.55183  -0.47076
 Alpha  occ. eigenvalues --   -0.44560  -0.43138  -0.32957
 Alpha virt. eigenvalues --    0.11019   0.16407   0.19653   0.25771   0.28098
 Alpha virt. eigenvalues --    0.29346   0.31972   0.35415   0.37110   0.45208
 Alpha virt. eigenvalues --    0.49878

 Mulliken charges:
               1
     1  C   -0.118196
     2  C   -2.053727
     3  O    3.301124
     4  C   -2.060167
     5  C   -0.183685
     6  H    0.213830
     7  H    0.350705
     8  H    0.340713
     9  H    0.209403
 Sum of Mulliken charges =   0.00000

 Dipole moment (field-independent basis, Debye):
    X=             -2.0080    Y=             -9.5815    Z=              0.7517  Tot=              9.8185
 N-N= 1.046187789618D+02 E-N=-1.705287559808D+02  KE=-1.555823734073D+01
 Orbital energies and kinetic energies (alpha):
                                 1                 2
   1         O                -1.928721         -1.416381
   2         O                -1.198697         -1.064841
   3         O                -0.921841         -0.878160
   4         O                -0.828068         -0.568186
   5         O                -0.782352         -0.685368
   6         O                -0.702319         -0.593456
   7         O                -0.690514         -0.563967

 Normal termination of Gaussian 09 at Tue Dec 15 17:09:35 2015.
