 Gaussian 09, Revision D.01,
 Gaussian 09:  ES64L-G09RevD.01 24-Apr-2013

 ------------------------------------------------------------
 #P AM1(Input,print) CIS(Singlets,NStates=15) pop(full) force
 ------------------------------------------------------------

 -----------------
 AM1-Reparam Input
 -----------------
 Symbolic Z-matrix:
 Charge =  0 Multiplicity = 1

                         Standard orientation:
 ---------------------------------------------------------------------
 Center     Atomic      Atomic             Coordinates (Angstroms)
 Number     Number       Type             X           Y           Z
 ---------------------------------------------------------------------
      1          6           0        0.961004    0.714901    0.003316
      2          6           0        0.937369   -0.618462   -0.000946
      3          8           0       -0.343133   -1.143220   -0.015483
      4          6           0       -1.091747   -0.002208    0.030209
      5          6           0       -0.447050    1.116828   -0.006390
      6          1           0       -0.799831    2.085926   -0.007749
      7          1           0       -2.187945   -0.289368   -0.041894
      8          1           0        1.755621   -1.305255    0.050051
      9          1           0        1.819766    1.388099   -0.033679
 ---------------------------------------------------------------------

 SCF Done:  E(RAM1) =   1.85642121544     A.U. after   14 cycles

 Excitation energies and oscillator strengths:

 Excited State   1:      Singlet-A      5.2680 eV  235.35 nm  f=0.3596  <S**2>=0.000
      13 -> 14         0.69509
 This state for optimization and/or second-order correction.
 Total Energy, E(CIS) =   2.05001553709
 Copying the excited state density for this state as the 1-particle RhoCI density.

 Excited State   2:      Singlet-A      5.9058 eV  209.94 nm  f=0.0004  <S**2>=0.000
      13 -> 15         0.68401
      13 -> 17        -0.11617

 Excited State   3:      Singlet-A      6.5048 eV  190.60 nm  f=0.0031  <S**2>=0.000
      13 -> 16         0.67504
      13 -> 18        -0.16032

 Excited State   4:      Singlet-A      7.3272 eV  169.21 nm  f=0.0000  <S**2>=0.000
      12 -> 14         0.70212

 Excited State   5:      Singlet-A      7.8530 eV  157.88 nm  f=0.0009  <S**2>=0.000
      13 -> 17         0.52485
      13 -> 18        -0.39817
      13 -> 22        -0.19252

 Excited State   6:      Singlet-A      8.4604 eV  146.55 nm  f=0.0126  <S**2>=0.000
      10 -> 14         0.51301
      11 -> 14        -0.34859
      13 -> 17         0.19025
      13 -> 18         0.24969

 Excited State   7:      Singlet-A      8.6601 eV  143.17 nm  f=0.0057  <S**2>=0.000
      10 -> 14        -0.27050
      11 -> 14         0.18022
      13 -> 17         0.38136
      13 -> 18         0.45521
      13 -> 19         0.11602

 Excited State   8:      Singlet-A      9.0814 eV  136.53 nm  f=0.0639  <S**2>=0.000
       9 -> 15         0.13985
      10 -> 14         0.34199
      11 -> 14         0.49051
      12 -> 15         0.28145
      13 -> 21         0.10487

 Excited State   9:      Singlet-A      9.2055 eV  134.68 nm  f=0.0003  <S**2>=0.000
      13 -> 19         0.68188

 Excited State  10:      Singlet-A      9.3581 eV  132.49 nm  f=0.1279  <S**2>=0.000
       9 -> 15         0.11285
       9 -> 16         0.11578
      10 -> 14        -0.14627
      11 -> 14        -0.23187
      12 -> 15         0.47900
      12 -> 16        -0.22418
      12 -> 17        -0.20649
      12 -> 18         0.14293

 Excited State  11:      Singlet-A     10.0052 eV  123.92 nm  f=0.0849  <S**2>=0.000
      10 -> 15         0.23567
      10 -> 17        -0.14792
      11 -> 14        -0.12063
      11 -> 15        -0.18268
      12 -> 15         0.32087
      12 -> 16         0.29194
      12 -> 17         0.19409
      12 -> 18        -0.25502

 Excited State  12:      Singlet-A     10.1288 eV  122.41 nm  f=0.0180  <S**2>=0.000
       7 -> 15        -0.10567
      10 -> 15         0.27880
      11 -> 15         0.48577
      13 -> 17        -0.11801
      13 -> 20         0.27616
      13 -> 22        -0.23775

 Excited State  13:      Singlet-A     10.2364 eV  121.12 nm  f=0.0159  <S**2>=0.000
      10 -> 15        -0.19452
      11 -> 15        -0.31087
      13 -> 18         0.12752
      13 -> 20         0.39579
      13 -> 22        -0.38788

 Excited State  14:      Singlet-A     10.3363 eV  119.95 nm  f=0.1388  <S**2>=0.000
      10 -> 16        -0.16827
      10 -> 18         0.11738
      11 -> 16         0.25309
      12 -> 16         0.48952
      12 -> 17        -0.21773
      12 -> 19         0.10595
      13 -> 22        -0.18350

 Excited State  15:      Singlet-A     10.4026 eV  119.19 nm  f=0.0767  <S**2>=0.000
      10 -> 16        -0.14994
      12 -> 16         0.14782
      13 -> 20         0.46140
      13 -> 22         0.44624

 The electronic state is 1-A.
 Alpha  occ. eigenvalues --   -1.98977  -1.28072  -1.00159  -0.89323  -0.84493
 Alpha  occ. eigenvalues --   -0.76934  -0.74328  -0.61087  -0.60536  -0.51713
 Alpha  occ. eigenvalues --   -0.51393  -0.47868  -0.34269
 Alpha virt. eigenvalues --    0.05744   0.09714   0.12784   0.21196   0.21926
 Alpha virt. eigenvalues --    0.24375   0.27352   0.28395   0.29175   0.37466
 Alpha virt. eigenvalues --    0.40854

 Mulliken charges:
               1
     1  C   -0.130480
     2  C   -1.871362
     3  O    3.146263
     4  C   -1.836970
     5  C   -0.136423
     6  H    0.135868
     7  H    0.270170
     8  H    0.280591
     9  H    0.142342
 Sum of Mulliken charges =   0.00000

 Dipole moment (field-independent basis, Debye):
    X=             -3.6303    Y=            -11.2627    Z=             -0.4511  Tot=             11.8419
 N-N= 1.057748500459D+02 E-N=-1.709848300784D+02  KE=-1.566898539746D+01
 Orbital energies and kinetic energies (alpha):
                                 1                 2
   1         O                -1.989773         -1.366665
   2         O                -1.280720         -1.071529
   3         O                -1.001595         -0.900702
   4         O                -0.893229         -0.580567
   5         O                -0.844929         -0.687795
   6         O                -0.769336         -0.600620
   7         O                -0.743281         -0.549827

 Normal termination of Gaussian 09 at Tue Dec 15 17:09:00 2015.
