 Gaussian 09, Revision D.01,
 Gaussian 09:  ES64L-G09RevD.01 24-Apr-2013

 ------------------------------------------------------------
 #P AM1(Input,print) CIS(Singlets,NStates=15) pop(full) force
 ------------------------------------------------------------

 -----------------
 AM1-Reparam Input
 -----------------
 Symbolic Z-matrix:
 Charge =  0 Multiplicity = 1

                         Standard orientation:
 ---------------------------------------------------------------------
 Center     Atomic      Atomic             Coordinates (Angstroms)
 Number     Number       Type             X           Y           Z
 ---------------------------------------------------------------------
      1          6           0       -0.695082    0.999306   -0.007815
      2          6           0       -1.097835   -0.365665    0.016671
      3          8           0       -0.007775   -1.141947    0.000639
      4          6           0        1.078678   -0.372664   -0.009648
      5          6           0        0.747365    0.946265   -0.004641
      6          1           0        1.357938    1.753186    0.037363
      7          1           0        1.990748   -0.858447    0.020310
      8          1           0       -2.098460   -0.798087   -0.038623
      9          1           0       -1.386778    1.795466    0.008438
 ---------------------------------------------------------------------

 SCF Done:  E(RAM1) =   2.66925229430     A.U. after   13 cycles

 Excitation energies and oscillator strengths:

 Excited State   1:      Singlet-A      5.3775 eV  230.56 nm  f=0.3581  <S**2>=0.000
      13 -> 14         0.69491
 This state for optimization and/or second-order correction.
 Total Energy, E(CIS) =   2.86687327282
 Copying the excited state density for this state as the 1-particle RhoCI density.

 Excited State   2:      Singlet-A      6.3790 eV  194.36 nm  f=0.0055  <S**2>=0.000
      11 -> 16        -0.10765
      13 -> 15         0.64909
      13 -> 17         0.22773

 Excited State   3:      Singlet-A      6.5374 eV  189.65 nm  f=0.0001  <S**2>=0.000
      11 -> 15        -0.12720
      13 -> 15        -0.10109
      13 -> 16         0.64139
      13 -> 18         0.18829
      13 -> 19        -0.10255

 Excited State   4:      Singlet-A      6.8955 eV  179.81 nm  f=0.0005  <S**2>=0.000
       9 -> 14         0.15763
      12 -> 14         0.68109

 Excited State   5:      Singlet-A      7.8534 eV  157.87 nm  f=0.0014  <S**2>=0.000
      10 -> 14         0.20159
      13 -> 16        -0.14560
      13 -> 17         0.20983
      13 -> 18         0.42787
      13 -> 19         0.18741
      13 -> 20         0.24971
      13 -> 21        -0.29960

 Excited State   6:      Singlet-A      7.9259 eV  156.43 nm  f=0.0102  <S**2>=0.000
      10 -> 14         0.58848
      13 -> 15        -0.10024
      13 -> 17         0.21327
      13 -> 18        -0.21216
      13 -> 21         0.15870

 Excited State   7:      Singlet-A      8.0911 eV  153.24 nm  f=0.0087  <S**2>=0.000
      10 -> 14        -0.30137
      11 -> 16         0.14756
      13 -> 15        -0.15474
      13 -> 17         0.57710
      13 -> 18        -0.11338

 Excited State   8:      Singlet-A      8.6685 eV  143.03 nm  f=0.0080  <S**2>=0.000
      11 -> 14         0.18793
      11 -> 15        -0.11273
      13 -> 16         0.12535
      13 -> 18        -0.21410
      13 -> 19         0.61249

 Excited State   9:      Singlet-A      8.6801 eV  142.84 nm  f=0.0930  <S**2>=0.000
      11 -> 14         0.64924
      12 -> 15         0.10614
      13 -> 19        -0.17830

 Excited State  10:      Singlet-A      9.1284 eV  135.82 nm  f=0.0031  <S**2>=0.000
      13 -> 18         0.39983
      13 -> 19         0.17118
      13 -> 20        -0.36714
      13 -> 21         0.39449

 Excited State  11:      Singlet-A      9.2881 eV  133.49 nm  f=0.0232  <S**2>=0.000
       8 -> 15         0.17129
       9 -> 16         0.12184
       9 -> 18         0.13111
      10 -> 15        -0.21959
      10 -> 17        -0.26066
      12 -> 15        -0.11733
      12 -> 16         0.39280
      12 -> 18         0.25555
      12 -> 19         0.12861

 Excited State  12:      Singlet-A      9.5439 eV  129.91 nm  f=0.0833  <S**2>=0.000
       9 -> 15        -0.11259
       9 -> 16         0.10237
      10 -> 15        -0.21133
      10 -> 17        -0.13363
      12 -> 15         0.54906
      12 -> 16        -0.17680
      12 -> 17         0.10657
      12 -> 19         0.13214

 Excited State  13:      Singlet-A      9.6093 eV  129.02 nm  f=0.0933  <S**2>=0.000
      11 -> 16        -0.12187
      12 -> 16         0.10760
      13 -> 20         0.51537
      13 -> 21         0.41026

 Excited State  14:      Singlet-A      9.6316 eV  128.73 nm  f=0.1245  <S**2>=0.000
       9 -> 16        -0.11439
      10 -> 15         0.23012
      10 -> 16         0.24257
      10 -> 17         0.14127
      12 -> 15         0.24009
      12 -> 16         0.44395
      12 -> 17         0.13699
      12 -> 19        -0.11514
      13 -> 20        -0.12737

 Excited State  15:      Singlet-A      9.7206 eV  127.55 nm  f=0.0025  <S**2>=0.000
       9 -> 14         0.62829
      11 -> 15         0.17520
      12 -> 14        -0.14477
      13 -> 21         0.14903

 The electronic state is 1-A.
 Alpha  occ. eigenvalues --   -1.76962  -1.12943  -0.93632  -0.80563  -0.74481
 Alpha  occ. eigenvalues --   -0.66607  -0.63564  -0.54835  -0.48812  -0.44510
 Alpha  occ. eigenvalues --   -0.43352  -0.40760  -0.29035
 Alpha virt. eigenvalues --    0.11215   0.17599   0.17943   0.24374   0.26967
 Alpha virt. eigenvalues --    0.28037   0.29684   0.30711   0.49479   0.57915
 Alpha virt. eigenvalues --    0.62736

 Mulliken charges:
               1
     1  C   -0.058973
     2  C   -2.045952
     3  O    3.340003
     4  C   -2.005577
     5  C   -0.039006
     6  H    0.121679
     7  H    0.273824
     8  H    0.288722
     9  H    0.125280
 Sum of Mulliken charges =   0.00000

 Dipole moment (field-independent basis, Debye):
    X=              0.0162    Y=            -10.2010    Z=             -0.0601  Tot=             10.2012
 N-N= 1.038156184697D+02 E-N=-1.688030129593D+02  KE=-1.488860809407D+01
 Orbital energies and kinetic energies (alpha):
                                 1                 2
   1         O                -1.769620         -1.274093
   2         O                -1.129431         -0.998727
   3         O                -0.936316         -0.850592
   4         O                -0.805630         -0.604410
   5         O                -0.744815         -0.681481
   6         O                -0.666069         -0.572292
   7         O                -0.635635         -0.516605

 Normal termination of Gaussian 09 at Tue Dec 15 17:05:26 2015.
