 Gaussian 09, Revision D.01,
 Gaussian 09:  ES64L-G09RevD.01 24-Apr-2013

 ------------------------------------------------------------
 #P AM1(Input,print) CIS(Singlets,NStates=15) pop(full) force
 ------------------------------------------------------------

 -----------------
 AM1-Reparam Input
 -----------------
 Symbolic Z-matrix:
 Charge =  0 Multiplicity = 1

                         Standard orientation:
 ---------------------------------------------------------------------
 Center     Atomic      Atomic             Coordinates (Angstroms)
 Number     Number       Type             X           Y           Z
 ---------------------------------------------------------------------
      1          6           0       -0.539353    1.061019   -0.012649
      2          6           0       -1.170045   -0.182549    0.028961
      3          8           0       -0.201308   -1.090727   -0.017120
      4          6           0        1.014732   -0.522020   -0.001889
      5          6           0        0.911592    0.780923   -0.009582
      6          1           0        1.622497    1.557458    0.076031
      7          1           0        1.845513   -1.197540    0.044122
      8          1           0       -2.155868   -0.461706    0.015911
      9          1           0       -1.003236    2.003364   -0.028147
 ---------------------------------------------------------------------

 SCF Done:  E(RAM1) =  -4.42691331683     A.U. after   13 cycles

 Excitation energies and oscillator strengths:

 Excited State   1:      Singlet-A      6.4374 eV  192.60 nm  f=0.3697  <S**2>=0.000
      13 -> 14         0.69309
 This state for optimization and/or second-order correction.
 Total Energy, E(CIS) =  -4.19034218688
 Copying the excited state density for this state as the 1-particle RhoCI density.

 Excited State   2:      Singlet-A      7.6588 eV  161.89 nm  f=0.0015  <S**2>=0.000
      12 -> 14         0.69837

 Excited State   3:      Singlet-A      8.3273 eV  148.89 nm  f=0.0141  <S**2>=0.000
      13 -> 15         0.66192
      13 -> 16         0.15783
      13 -> 18         0.16568

 Excited State   4:      Singlet-A      8.7762 eV  141.27 nm  f=0.0016  <S**2>=0.000
      13 -> 15        -0.14157
      13 -> 16         0.61810
      13 -> 20        -0.10635
      13 -> 21         0.26957

 Excited State   5:      Singlet-A      8.9556 eV  138.44 nm  f=0.0061  <S**2>=0.000
      10 -> 14        -0.40033
      11 -> 14         0.57446

 Excited State   6:      Singlet-A      9.7258 eV  127.48 nm  f=0.0025  <S**2>=0.000
      10 -> 14         0.40650
      11 -> 14         0.26667
      13 -> 17         0.49589

 Excited State   7:      Singlet-A     10.1907 eV  121.66 nm  f=0.0110  <S**2>=0.000
      13 -> 15         0.12316
      13 -> 16        -0.18414
      13 -> 18        -0.28610
      13 -> 19         0.18514
      13 -> 20        -0.26273
      13 -> 21         0.45519
      13 -> 22         0.18333

 Excited State   8:      Singlet-A     10.6411 eV  116.51 nm  f=0.2828  <S**2>=0.000
      10 -> 14        -0.37584
      11 -> 14        -0.27869
      13 -> 17         0.49097

 Excited State   9:      Singlet-A     10.7106 eV  115.76 nm  f=0.0182  <S**2>=0.000
      13 -> 16        -0.12935
      13 -> 18         0.49752
      13 -> 19        -0.14015
      13 -> 20        -0.40215

 Excited State  10:      Singlet-A     11.0131 eV  112.58 nm  f=0.0348  <S**2>=0.000
      13 -> 18         0.23670
      13 -> 19         0.63621

 Excited State  11:      Singlet-A     11.1792 eV  110.91 nm  f=0.0127  <S**2>=0.000
      13 -> 18         0.22474
      13 -> 19        -0.15081
      13 -> 20         0.47711
      13 -> 21         0.39116
      13 -> 22         0.12649

 Excited State  12:      Singlet-A     11.4768 eV  108.03 nm  f=0.2018  <S**2>=0.000
       8 -> 15        -0.11962
      12 -> 15         0.50179
      12 -> 16        -0.29107
      12 -> 20         0.11020
      12 -> 21        -0.20988

 Excited State  13:      Singlet-A     11.7316 eV  105.68 nm  f=0.0157  <S**2>=0.000
      11 -> 15         0.12779
      12 -> 15         0.35923
      12 -> 16         0.44159
      12 -> 21         0.24115
      13 -> 22         0.16209

 Excited State  14:      Singlet-A     11.7762 eV  105.28 nm  f=0.0015  <S**2>=0.000
       9 -> 14        -0.17727
      12 -> 15        -0.15367
      12 -> 16        -0.10606
      13 -> 16         0.10019
      13 -> 21        -0.18664
      13 -> 22         0.60460

 Excited State  15:      Singlet-A     11.9416 eV  103.83 nm  f=0.0087  <S**2>=0.000
       7 -> 14        -0.10690
       9 -> 14         0.61458
      10 -> 15        -0.11367
      11 -> 15        -0.13918
      13 -> 22         0.20684

 The electronic state is 1-A.
 Alpha  occ. eigenvalues --   -2.96947  -1.14811  -0.90205  -0.83969  -0.82568
 Alpha  occ. eigenvalues --   -0.81296  -0.71888  -0.61318  -0.58412  -0.50836
 Alpha  occ. eigenvalues --   -0.50337  -0.46657  -0.34551
 Alpha virt. eigenvalues --    0.10342   0.19931   0.22369   0.25622   0.28310
 Alpha virt. eigenvalues --    0.30049   0.30901   0.32410   0.35283   0.38532
 Alpha virt. eigenvalues --    0.44301

 Mulliken charges:
               1
     1  C   -0.222671
     2  C   -1.518398
     3  O    2.737923
     4  C   -1.470131
     5  C   -0.134427
     6  H    0.121380
     7  H    0.174208
     8  H    0.184761
     9  H    0.127355
 Sum of Mulliken charges =   0.00000

 Dipole moment (field-independent basis, Debye):
    X=             -1.1409    Y=             -8.9623    Z=             -0.2564  Tot=              9.0383
 N-N= 1.026551949072D+02 E-N=-1.701153693954D+02  KE=-2.157297699412D+01
 Orbital energies and kinetic energies (alpha):
                                 1                 2
   1         O                -2.969473         -2.391078
   2         O                -1.148107         -1.102578
   3         O                -0.902049         -0.785901
   4         O                -0.839689         -0.869357
   5         O                -0.825678         -0.880484
   6         O                -0.812955         -0.845742
   7         O                -0.718878         -0.726488

 Normal termination of Gaussian 09 at Fri Dec 11 13:41:42 2015.
