 Gaussian 09, Revision D.01,
 Gaussian 09:  ES64L-G09RevD.01 24-Apr-2013

 ------------------------------------------------------------
 #P AM1(Input,print) CIS(Singlets,NStates=15) pop(full) force
 ------------------------------------------------------------

 -----------------
 AM1-Reparam Input
 -----------------
 Symbolic Z-matrix:
 Charge =  0 Multiplicity = 1

                         Standard orientation:
 ---------------------------------------------------------------------
 Center     Atomic      Atomic             Coordinates (Angstroms)
 Number     Number       Type             X           Y           Z
 ---------------------------------------------------------------------
      1          6           0       -0.255349    1.154326   -0.018917
      2          6           0       -1.171603    0.043826    0.001751
      3          8           0       -0.444608   -1.028435    0.007647
      4          6           0        0.888982   -0.700744   -0.033743
      5          6           0        0.990899    0.587051    0.036535
      6          1           0        1.995673    1.179372   -0.013098
      7          1           0        1.550679   -1.601472    0.026153
      8          1           0       -2.157597    0.016672    0.021472
      9          1           0       -0.549466    2.126148   -0.009459
 ---------------------------------------------------------------------

 SCF Done:  E(RAM1) =  0.552372595949E-01 A.U. after   13 cycles

 Excitation energies and oscillator strengths:

 Excited State   1:      Singlet-A      4.3309 eV  286.27 nm  f=0.1166  <S**2>=0.000
      12 -> 15         0.17181
      13 -> 14         0.67447
 This state for optimization and/or second-order correction.
 Total Energy, E(CIS) =  0.214396678222
 Copying the excited state density for this state as the 1-particle RhoCI density.

 Excited State   2:      Singlet-A      4.5433 eV  272.90 nm  f=0.0005  <S**2>=0.000
      13 -> 15        -0.12532
      13 -> 16         0.67600

 Excited State   3:      Singlet-A      5.0215 eV  246.91 nm  f=0.0258  <S**2>=0.000
      12 -> 14        -0.34018
      13 -> 15         0.60081
      13 -> 16         0.12621

 Excited State   4:      Singlet-A      5.4842 eV  226.07 nm  f=0.0002  <S**2>=0.000
      13 -> 17         0.42840
      13 -> 18        -0.31203
      13 -> 19        -0.16493
      13 -> 20        -0.31605
      13 -> 22        -0.18867

 Excited State   5:      Singlet-A      6.1876 eV  200.37 nm  f=0.0019  <S**2>=0.000
       7 -> 16        -0.15353
      12 -> 16         0.64929
      12 -> 22        -0.11068

 Excited State   6:      Singlet-A      6.3033 eV  196.70 nm  f=0.0146  <S**2>=0.000
      11 -> 14         0.14037
      12 -> 14        -0.11190
      12 -> 19         0.15884
      12 -> 23        -0.10112
      13 -> 17         0.29497
      13 -> 18         0.39444
      13 -> 19        -0.18530
      13 -> 21         0.15893
      13 -> 23         0.24303

 Excited State   7:      Singlet-A      6.3274 eV  195.95 nm  f=0.3084  <S**2>=0.000
      12 -> 14         0.57235
      13 -> 15         0.31187

 Excited State   8:      Singlet-A      6.5364 eV  189.68 nm  f=0.0029  <S**2>=0.000
      10 -> 14         0.11373
      11 -> 14        -0.17057
      12 -> 15         0.11388
      12 -> 23         0.12619
      13 -> 17         0.24232
      13 -> 18         0.22890
      13 -> 19         0.48405
      13 -> 20        -0.18103
      13 -> 22         0.13520

 Excited State   9:      Singlet-A      6.6176 eV  187.35 nm  f=0.0048  <S**2>=0.000
      10 -> 14        -0.18200
      11 -> 14         0.57596
      11 -> 15         0.18147
      13 -> 19         0.20407
      13 -> 20        -0.11152

 Excited State  10:      Singlet-A      6.7640 eV  183.30 nm  f=0.1361  <S**2>=0.000
      12 -> 15         0.65109
      12 -> 16         0.10608
      13 -> 14        -0.14884

 Excited State  11:      Singlet-A      7.2047 eV  172.09 nm  f=0.0023  <S**2>=0.000
      12 -> 17         0.36868
      12 -> 18         0.17245
      12 -> 19         0.12605
      12 -> 20        -0.10757
      12 -> 21         0.15164
      13 -> 17        -0.23714
      13 -> 20        -0.14619
      13 -> 21         0.36478
      13 -> 22        -0.10029
      13 -> 23         0.16938

 Excited State  12:      Singlet-A      7.4962 eV  165.40 nm  f=0.0017  <S**2>=0.000
       9 -> 14        -0.13479
      10 -> 14         0.30568
      10 -> 15        -0.22471
      11 -> 14         0.11736
      12 -> 18         0.23752
      12 -> 19        -0.16953
      13 -> 17         0.15154
      13 -> 18        -0.11438
      13 -> 19        -0.14807
      13 -> 20         0.23189
      13 -> 21         0.17625
      13 -> 22         0.24366

 Excited State  13:      Singlet-A      7.5643 eV  163.91 nm  f=0.0010  <S**2>=0.000
      10 -> 14         0.10830
      12 -> 17        -0.21407
      12 -> 19         0.22070
      12 -> 20        -0.12705
      12 -> 21        -0.21166
      12 -> 23        -0.11479
      13 -> 18        -0.26228
      13 -> 19         0.22377
      13 -> 22        -0.16390
      13 -> 23         0.27028
      13 -> 24        -0.21800

 Excited State  14:      Singlet-A      7.5976 eV  163.19 nm  f=0.0110  <S**2>=0.000
       9 -> 15        -0.15923
      10 -> 14        -0.31276
      10 -> 15         0.12994
      12 -> 22         0.10460
      13 -> 18        -0.21606
      13 -> 22         0.41927
      13 -> 23         0.22772

 Excited State  15:      Singlet-A      7.6706 eV  161.64 nm  f=0.0006  <S**2>=0.000
       9 -> 15         0.14278
      10 -> 14         0.29615
      11 -> 14         0.10522
      11 -> 15         0.10544
      12 -> 17         0.14825
      12 -> 18        -0.21930
      12 -> 19         0.16469
      13 -> 19        -0.10013
      13 -> 20        -0.26768
      13 -> 21        -0.26697
      13 -> 22         0.24930
      13 -> 23         0.14335

 The electronic state is 1-A.
 Alpha  occ. eigenvalues --   -1.60433  -1.25246  -1.10844  -0.84100  -0.81068
 Alpha  occ. eigenvalues --   -0.69481  -0.61904  -0.57721  -0.51004  -0.50065
 Alpha  occ. eigenvalues --   -0.48693  -0.40578  -0.33768
 Alpha virt. eigenvalues --    0.03013   0.06932   0.09146   0.13522   0.14281
 Alpha virt. eigenvalues --    0.16834   0.17483   0.19135   0.19454   0.21207
 Alpha virt. eigenvalues --    0.23011

 Mulliken charges:
               1
     1  C   -0.239748
     2  C   -0.089664
     3  O   -0.060695
     4  C   -0.125361
     5  C   -0.175279
     6  H    0.160873
     7  H    0.195499
     8  H    0.183976
     9  H    0.150400
 Sum of Mulliken charges =   0.00000

 Dipole moment (field-independent basis, Debye):
    X=              0.2015    Y=              0.0720    Z=              0.0718  Tot=              0.2257
 N-N= 1.043384072308D+02 E-N=-1.724078448477D+02  KE=-1.666037179509D+01
 Orbital energies and kinetic energies (alpha):
                                 1                 2
   1         O                -1.604328         -1.340702
   2         O                -1.252464         -1.061152
   3         O                -1.108442         -0.965253
   4         O                -0.841002         -0.726318
   5         O                -0.810684         -0.706183
   6         O                -0.694809         -0.606498
   7         O                -0.619045         -0.497663

 Normal termination of Gaussian 09 at Tue Dec 15 16:20:33 2015.
