 Gaussian 09, Revision D.01,
 Gaussian 09:  ES64L-G09RevD.01 24-Apr-2013

 ------------------------------------------------------------
 #P AM1(Input,print) CIS(Singlets,NStates=15) pop(full) force
 ------------------------------------------------------------

 -----------------
 AM1-Reparam Input
 -----------------
 Symbolic Z-matrix:
 Charge =  0 Multiplicity = 1

                         Standard orientation:
 ---------------------------------------------------------------------
 Center     Atomic      Atomic             Coordinates (Angstroms)
 Number     Number       Type             X           Y           Z
 ---------------------------------------------------------------------
      1          6           0        0.210344    1.215219    0.000537
      2          6           0        1.154654    0.153317    0.005513
      3          8           0        0.507579   -1.068729   -0.020091
      4          6           0       -0.798119   -0.745271    0.028571
      5          6           0       -1.090367    0.497913   -0.007144
      6          1           0       -2.018436    1.049665   -0.014923
      7          1           0       -1.467395   -1.591341   -0.012691
      8          1           0        2.158500    0.144025    0.042539
      9          1           0        0.407627    2.220422   -0.019058
 ---------------------------------------------------------------------

 SCF Done:  E(RAM1) =   2.86983551193     A.U. after   14 cycles

 Excitation energies and oscillator strengths:

 Excited State   1:      Singlet-A      5.0865 eV  243.75 nm  f=0.3508  <S**2>=0.000
      13 -> 14         0.69727
 This state for optimization and/or second-order correction.
 Total Energy, E(CIS) =   3.05676213701
 Copying the excited state density for this state as the 1-particle RhoCI density.

 Excited State   2:      Singlet-A      5.9640 eV  207.89 nm  f=0.0009  <S**2>=0.000
      11 -> 15         0.10430
      13 -> 15         0.67120
      13 -> 18         0.16832

 Excited State   3:      Singlet-A      6.4569 eV  192.02 nm  f=0.0001  <S**2>=0.000
      12 -> 14         0.69789

 Excited State   4:      Singlet-A      6.5822 eV  188.36 nm  f=0.0042  <S**2>=0.000
      13 -> 16         0.62392
      13 -> 17        -0.22697
      13 -> 18        -0.16321

 Excited State   5:      Singlet-A      7.5369 eV  164.50 nm  f=0.0064  <S**2>=0.000
      13 -> 15        -0.11775
      13 -> 16         0.17168
      13 -> 18         0.54368
      13 -> 19         0.11614
      13 -> 20        -0.22138
      13 -> 21         0.28644

 Excited State   6:      Singlet-A      7.9031 eV  156.88 nm  f=0.0100  <S**2>=0.000
      10 -> 14         0.58796
      13 -> 16        -0.10638
      13 -> 17        -0.32092
      13 -> 19        -0.11751

 Excited State   7:      Singlet-A      8.0650 eV  153.73 nm  f=0.0038  <S**2>=0.000
      10 -> 14         0.37348
      13 -> 16         0.11570
      13 -> 17         0.52227
      13 -> 18        -0.12273
      13 -> 19         0.15105
      13 -> 21         0.10818

 Excited State   8:      Singlet-A      8.4489 eV  146.75 nm  f=0.0889  <S**2>=0.000
      11 -> 14         0.65416
      12 -> 15        -0.19421

 Excited State   9:      Singlet-A      8.5719 eV  144.64 nm  f=0.0023  <S**2>=0.000
      11 -> 16         0.11961
      13 -> 16        -0.15606
      13 -> 17        -0.21142
      13 -> 18        -0.21242
      13 -> 19         0.53361
      13 -> 21         0.27150

 Excited State  10:      Singlet-A      8.8952 eV  139.38 nm  f=0.0141  <S**2>=0.000
      13 -> 18         0.27760
      13 -> 19         0.35037
      13 -> 20         0.40945
      13 -> 21        -0.33664

 Excited State  11:      Singlet-A      9.0178 eV  137.49 nm  f=0.2118  <S**2>=0.000
       8 -> 15        -0.13543
      10 -> 17         0.10108
      11 -> 14         0.21979
      12 -> 15         0.55548
      12 -> 16        -0.17604
      12 -> 18         0.19675

 Excited State  12:      Singlet-A      9.3083 eV  133.20 nm  f=0.0755  <S**2>=0.000
      13 -> 19        -0.15211
      13 -> 20         0.50299
      13 -> 21         0.45029

 Excited State  13:      Singlet-A      9.5845 eV  129.36 nm  f=0.0005  <S**2>=0.000
       9 -> 15         0.10245
      10 -> 15         0.15975
      10 -> 17        -0.17215
      10 -> 18         0.11116
      12 -> 15         0.30921
      12 -> 16         0.34340
      12 -> 17        -0.18647
      12 -> 18        -0.27201
      12 -> 21        -0.19650

 Excited State  14:      Singlet-A      9.8292 eV  126.14 nm  f=0.0010  <S**2>=0.000
       7 -> 15        -0.15349
      11 -> 15         0.64099
      11 -> 16         0.14004
      13 -> 15        -0.12354

 Excited State  15:      Singlet-A      9.9566 eV  124.52 nm  f=0.0000  <S**2>=0.000
       9 -> 14         0.68269

 The electronic state is 1-A.
 Alpha  occ. eigenvalues --   -1.71401  -1.11363  -0.92728  -0.79110  -0.75389
 Alpha  occ. eigenvalues --   -0.66833  -0.63307  -0.52569  -0.49340  -0.44137
 Alpha  occ. eigenvalues --   -0.42493  -0.39208  -0.27152
 Alpha virt. eigenvalues --    0.11476   0.17165   0.21152   0.26399   0.27377
 Alpha virt. eigenvalues --    0.29147   0.30916   0.31042   0.36885   0.46404
 Alpha virt. eigenvalues --    0.49475

 Mulliken charges:
               1
     1  C   -0.148963
     2  C   -1.953606
     3  O    3.197312
     4  C   -1.905085
     5  C   -0.123469
     6  H    0.172178
     7  H    0.299893
     8  H    0.289095
     9  H    0.172643
 Sum of Mulliken charges =   0.00000

 Dipole moment (field-independent basis, Debye):
    X=              3.7219    Y=            -10.2405    Z=             -0.5211  Tot=             10.9083
 N-N= 1.039581467080D+02 E-N=-1.690906629353D+02  KE=-1.478536853144D+01
 Orbital energies and kinetic energies (alpha):
                                 1                 2
   1         O                -1.714006         -1.204114
   2         O                -1.113626         -0.992301
   3         O                -0.927279         -0.853076
   4         O                -0.791096         -0.597103
   5         O                -0.753890         -0.685759
   6         O                -0.668333         -0.567613
   7         O                -0.633073         -0.518078

 Normal termination of Gaussian 09 at Tue Dec 15 17:05:55 2015.
