 Gaussian 09, Revision D.01,
 Gaussian 09:  ES64L-G09RevD.01 24-Apr-2013

 ------------------------------------------------------------
 #P AM1(Input,print) CIS(Singlets,NStates=15) pop(full) force
 ------------------------------------------------------------

 -----------------
 AM1-Reparam Input
 -----------------
 Symbolic Z-matrix:
 Charge =  0 Multiplicity = 1

                         Standard orientation:
 ---------------------------------------------------------------------
 Center     Atomic      Atomic             Coordinates (Angstroms)
 Number     Number       Type             X           Y           Z
 ---------------------------------------------------------------------
      1          6           0       -0.357273    1.107183    0.008426
      2          6           0       -1.134583   -0.015534   -0.019840
      3          8           0       -0.369875   -1.079863    0.012951
      4          6           0        0.918742   -0.623146   -0.030174
      5          6           0        0.961139    0.656778    0.000726
      6          1           0        1.851394    1.255369    0.024804
      7          1           0        1.690044   -1.408432    0.072972
      8          1           0       -2.200424   -0.150930    0.036690
      9          1           0       -0.710163    2.191213    0.007102
 ---------------------------------------------------------------------

 SCF Done:  E(RAM1) =   1.09201383749     A.U. after   14 cycles

 Excitation energies and oscillator strengths:

 Excited State   1:      Singlet-A      5.6403 eV  219.82 nm  f=0.1962  <S**2>=0.000
      12 -> 16        -0.12517
      13 -> 14         0.67931
 This state for optimization and/or second-order correction.
 Total Energy, E(CIS) =   1.29929286286
 Copying the excited state density for this state as the 1-particle RhoCI density.

 Excited State   2:      Singlet-A      6.5136 eV  190.35 nm  f=0.0038  <S**2>=0.000
      13 -> 15         0.67551
      13 -> 19        -0.13730

 Excited State   3:      Singlet-A      6.8849 eV  180.08 nm  f=0.0003  <S**2>=0.000
      13 -> 16        -0.29599
      13 -> 17         0.59444
      13 -> 18        -0.12287
      13 -> 21         0.14920

 Excited State   4:      Singlet-A      7.1525 eV  173.35 nm  f=0.0118  <S**2>=0.000
      12 -> 14         0.39263
      13 -> 16         0.50517
      13 -> 17         0.26801

 Excited State   5:      Singlet-A      7.4219 eV  167.05 nm  f=0.0002  <S**2>=0.000
       9 -> 14         0.16559
      11 -> 14         0.68296

 Excited State   6:      Singlet-A      7.8648 eV  157.64 nm  f=0.0057  <S**2>=0.000
      10 -> 14         0.67901
      11 -> 16         0.10528

 Excited State   7:      Singlet-A      8.1790 eV  151.59 nm  f=0.0006  <S**2>=0.000
      12 -> 15         0.12918
      13 -> 17         0.10699
      13 -> 18         0.64612
      13 -> 22         0.11025
      13 -> 24        -0.14989

 Excited State   8:      Singlet-A      8.2303 eV  150.64 nm  f=0.2283  <S**2>=0.000
      10 -> 14        -0.10824
      12 -> 14         0.55348
      13 -> 16        -0.34066
      13 -> 17        -0.13475

 Excited State   9:      Singlet-A      8.6689 eV  143.02 nm  f=0.0017  <S**2>=0.000
      12 -> 15         0.64022
      12 -> 20         0.10993
      13 -> 18        -0.12977
      13 -> 19        -0.12781
      13 -> 20        -0.10701

 Excited State  10:      Singlet-A      8.6946 eV  142.60 nm  f=0.0001  <S**2>=0.000
      12 -> 15         0.15913
      13 -> 19         0.13802
      13 -> 20         0.63028
      13 -> 21         0.10719
      13 -> 22         0.11357

 Excited State  11:      Singlet-A      8.7677 eV  141.41 nm  f=0.0204  <S**2>=0.000
       9 -> 16        -0.24657
      10 -> 14        -0.12874
      11 -> 16         0.55449
      11 -> 17         0.22854

 Excited State  12:      Singlet-A      9.0073 eV  137.65 nm  f=0.0402  <S**2>=0.000
      12 -> 16         0.42669
      12 -> 17        -0.33499
      13 -> 19        -0.34950

 Excited State  13:      Singlet-A      9.0734 eV  136.65 nm  f=0.1205  <S**2>=0.000
       8 -> 15        -0.12056
       9 -> 15        -0.10430
       9 -> 17         0.16150
      10 -> 15        -0.12774
      11 -> 16        -0.14343
      11 -> 18        -0.15416
      12 -> 16         0.33417
      12 -> 17         0.40603
      13 -> 14         0.12422
      13 -> 19         0.22180

 Excited State  14:      Singlet-A      9.2487 eV  134.06 nm  f=0.0342  <S**2>=0.000
       9 -> 15        -0.24291
      10 -> 15        -0.16505
      10 -> 17         0.14912
      11 -> 15         0.54113
      11 -> 19        -0.10667
      11 -> 20         0.12696
      12 -> 16        -0.11738

 Excited State  15:      Singlet-A      9.4694 eV  130.93 nm  f=0.0217  <S**2>=0.000
       9 -> 14        -0.12551
       9 -> 17        -0.11981
      10 -> 15         0.31160
      10 -> 17         0.16370
      10 -> 19        -0.21448
      11 -> 15         0.10022
      11 -> 17        -0.12709
      11 -> 18         0.27483
      12 -> 16         0.31098
      12 -> 17         0.14754
      13 -> 21        -0.11268

 The electronic state is 1-A.
 Alpha  occ. eigenvalues --   -1.85312  -1.21839  -0.99861  -0.88138  -0.81021
 Alpha  occ. eigenvalues --   -0.74331  -0.72694  -0.60473  -0.55436  -0.51216
 Alpha  occ. eigenvalues --   -0.49442  -0.47763  -0.38346
 Alpha virt. eigenvalues --    0.04299   0.10021   0.10634   0.10974   0.18030
 Alpha virt. eigenvalues --    0.18842   0.20376   0.21867   0.27073   0.28293
 Alpha virt. eigenvalues --    0.28538

 Mulliken charges:
               1
     1  C   -0.186747
     2  C   -1.256778
     3  O    2.141472
     4  C   -1.255456
     5  C   -0.096374
     6  H    0.111717
     7  H    0.206803
     8  H    0.210898
     9  H    0.124465
 Sum of Mulliken charges =   0.00000

 Dipole moment (field-independent basis, Debye):
    X=             -2.2015    Y=             -6.7392    Z=              0.5403  Tot=              7.1103
 N-N= 1.052212862990D+02 E-N=-1.726752225289D+02  KE=-1.506586824594D+01
 Orbital energies and kinetic energies (alpha):
                                 1                 2
   1         O                -1.853118         -1.278126
   2         O                -1.218394         -0.985320
   3         O                -0.998610         -0.821861
   4         O                -0.881380         -0.626378
   5         O                -0.810208         -0.672292
   6         O                -0.743313         -0.566928
   7         O                -0.726941         -0.549700

 Normal termination of Gaussian 09 at Tue Dec 15 17:05:47 2015.
