 Gaussian 09, Revision D.01,
 Gaussian 09:  ES64L-G09RevD.01 24-Apr-2013

 ------------------------------------------------------------
 #P AM1(Input,print) CIS(Singlets,NStates=15) pop(full) force
 ------------------------------------------------------------

 -----------------
 AM1-Reparam Input
 -----------------
 Symbolic Z-matrix:
 Charge =  0 Multiplicity = 1

                         Standard orientation:
 ---------------------------------------------------------------------
 Center     Atomic      Atomic             Coordinates (Angstroms)
 Number     Number       Type             X           Y           Z
 ---------------------------------------------------------------------
      1          6           0        0.997475    0.685063   -0.014824
      2          6           0        0.940449   -0.633211   -0.000099
      3          8           0       -0.343307   -1.080257   -0.024714
      4          6           0       -1.184418   -0.037306    0.038479
      5          6           0       -0.389944    1.104132    0.005761
      6          1           0       -0.719698    2.168621   -0.062461
      7          1           0       -2.209550   -0.159561   -0.029901
      8          1           0        1.684739   -1.406406    0.074416
      9          1           0        1.809589    1.327340    0.039754
 ---------------------------------------------------------------------

 SCF Done:  E(RAM1) =   2.59834242129     A.U. after   13 cycles

 Excitation energies and oscillator strengths:

 Excited State   1:      Singlet-A      4.9754 eV  249.19 nm  f=0.3631  <S**2>=0.000
      13 -> 14         0.69922
 This state for optimization and/or second-order correction.
 Total Energy, E(CIS) =   2.78118661421
 Copying the excited state density for this state as the 1-particle RhoCI density.

 Excited State   2:      Singlet-A      6.1856 eV  200.44 nm  f=0.0004  <S**2>=0.000
      13 -> 15         0.63735
      13 -> 16        -0.18365
      13 -> 17        -0.16401
      13 -> 19         0.13026

 Excited State   3:      Singlet-A      6.3497 eV  195.26 nm  f=0.0004  <S**2>=0.000
      12 -> 14         0.69303

 Excited State   4:      Singlet-A      6.5828 eV  188.34 nm  f=0.0064  <S**2>=0.000
      13 -> 15         0.18725
      13 -> 16         0.65220
      13 -> 18        -0.11249

 Excited State   5:      Singlet-A      7.4563 eV  166.28 nm  f=0.0069  <S**2>=0.000
      10 -> 14         0.68935

 Excited State   6:      Singlet-A      7.6780 eV  161.48 nm  f=0.0003  <S**2>=0.000
      13 -> 15         0.13609
      13 -> 17         0.66542
      13 -> 21        -0.11210

 Excited State   7:      Singlet-A      8.3861 eV  147.85 nm  f=0.1298  <S**2>=0.000
      11 -> 14         0.69076

 Excited State   8:      Singlet-A      9.2111 eV  134.60 nm  f=0.0551  <S**2>=0.000
      10 -> 16         0.16140
      10 -> 18        -0.14638
      12 -> 15         0.49338
      12 -> 16        -0.14956
      12 -> 17        -0.32983
      13 -> 18        -0.13430

 Excited State   9:      Singlet-A      9.3610 eV  132.45 nm  f=0.0146  <S**2>=0.000
       7 -> 16        -0.10083
      11 -> 15         0.26216
      11 -> 16        -0.16203
      12 -> 15         0.12540
      13 -> 18         0.58787

 Excited State  10:      Singlet-A      9.5738 eV  129.50 nm  f=0.0010  <S**2>=0.000
      11 -> 16        -0.30207
      13 -> 19         0.60351

 Excited State  11:      Singlet-A      9.7601 eV  127.03 nm  f=0.2365  <S**2>=0.000
      10 -> 16         0.34289
      10 -> 18        -0.14169
      12 -> 15        -0.22813
      12 -> 16         0.40206
      12 -> 17        -0.29233
      12 -> 19        -0.12359

 Excited State  12:      Singlet-A      9.8731 eV  125.58 nm  f=0.0399  <S**2>=0.000
      10 -> 15        -0.33996
      12 -> 15         0.31014
      12 -> 16         0.43097
      12 -> 17         0.21200

 Excited State  13:      Singlet-A     10.2918 eV  120.47 nm  f=0.0045  <S**2>=0.000
       9 -> 14         0.20174
      10 -> 15        -0.26909
      11 -> 15         0.47645
      12 -> 17        -0.10340
      13 -> 15        -0.12303
      13 -> 18        -0.19958
      13 -> 19         0.14530

 Excited State  14:      Singlet-A     10.3568 eV  119.71 nm  f=0.0030  <S**2>=0.000
       9 -> 14         0.33649
      11 -> 15        -0.19280
      11 -> 16         0.45438
      13 -> 16         0.11760
      13 -> 18         0.24659
      13 -> 19         0.16287

 Excited State  15:      Singlet-A     10.4700 eV  118.42 nm  f=0.0054  <S**2>=0.000
       9 -> 14         0.53933
      10 -> 15         0.21878
      11 -> 16        -0.21952
      12 -> 17         0.10654
      13 -> 19        -0.15235

 The electronic state is 1-A.
 Alpha  occ. eigenvalues --   -1.85402  -1.12544  -0.88852  -0.79967  -0.75327
 Alpha  occ. eigenvalues --   -0.67177  -0.63935  -0.57107  -0.55216  -0.45985
 Alpha  occ. eigenvalues --   -0.45576  -0.42760  -0.30441
 Alpha virt. eigenvalues --    0.07693   0.16225   0.17554   0.24080   0.27820
 Alpha virt. eigenvalues --    0.29286   0.34776   0.39144   0.49046   0.56218
 Alpha virt. eigenvalues --    0.61074

 Mulliken charges:
               1
     1  C   -0.155353
     2  C   -1.986725
     3  O    3.437192
     4  C   -2.022608
     5  C   -0.219957
     6  H    0.203337
     7  H    0.279200
     8  H    0.277698
     9  H    0.187216
 Sum of Mulliken charges =   0.00000

 Dipole moment (field-independent basis, Debye):
    X=             -2.8019    Y=            -10.3029    Z=             -0.6477  Tot=             10.6968
 N-N= 1.042046069540D+02 E-N=-1.698348949377D+02  KE=-1.437182056687D+01
 Orbital energies and kinetic energies (alpha):
                                 1                 2
   1         O                -1.854015         -1.261227
   2         O                -1.125444         -0.958567
   3         O                -0.888523         -0.786063
   4         O                -0.799670         -0.539921
   5         O                -0.753272         -0.637331
   6         O                -0.671773         -0.545431
   7         O                -0.639347         -0.495859

 Normal termination of Gaussian 09 at Tue Dec 15 17:07:47 2015.
