 Gaussian 09, Revision D.01,
 Gaussian 09:  ES64L-G09RevD.01 24-Apr-2013

 ------------------------------------------------------------
 #P AM1(Input,print) CIS(Singlets,NStates=15) pop(full) force
 ------------------------------------------------------------

 -----------------
 AM1-Reparam Input
 -----------------
 Symbolic Z-matrix:
 Charge =  0 Multiplicity = 1

                         Standard orientation:
 ---------------------------------------------------------------------
 Center     Atomic      Atomic             Coordinates (Angstroms)
 Number     Number       Type             X           Y           Z
 ---------------------------------------------------------------------
      1          6           0       -1.066028    0.549571    0.013166
      2          6           0       -0.878971   -0.796044   -0.016967
      3          8           0        0.582850   -1.035453    0.006998
      4          6           0        1.153102    0.178886   -0.007447
      5          6           0        0.175993    1.158476   -0.003216
      6          1           0        0.382676    2.257368   -0.024410
      7          1           0        2.218832    0.183356    0.032427
      8          1           0       -1.469872   -1.686384    0.003517
      9          1           0       -2.099014    0.983952    0.019260
 ---------------------------------------------------------------------

 SCF Done:  E(RAM1) =   1.83537874730     A.U. after   14 cycles

 Excitation energies and oscillator strengths:

 Excited State   1:      Singlet-A      5.7702 eV  214.87 nm  f=0.2894  <S**2>=0.000
      11 -> 17        -0.12074
      13 -> 14         0.68537
 This state for optimization and/or second-order correction.
 Total Energy, E(CIS) =   2.04743142964
 Copying the excited state density for this state as the 1-particle RhoCI density.

 Excited State   2:      Singlet-A      6.4325 eV  192.75 nm  f=0.0020  <S**2>=0.000
      10 -> 15        -0.12871
      13 -> 15         0.65996
      13 -> 17        -0.16846
      13 -> 19        -0.10049

 Excited State   3:      Singlet-A      7.0250 eV  176.49 nm  f=0.0003  <S**2>=0.000
      12 -> 14         0.69571

 Excited State   4:      Singlet-A      7.0425 eV  176.05 nm  f=0.0015  <S**2>=0.000
      10 -> 16         0.12999
      13 -> 16         0.65088
      13 -> 17        -0.11983

 Excited State   5:      Singlet-A      7.5969 eV  163.20 nm  f=0.0057  <S**2>=0.000
      11 -> 14         0.69348

 Excited State   6:      Singlet-A      8.1079 eV  152.92 nm  f=0.0109  <S**2>=0.000
      10 -> 16         0.10515
      13 -> 15         0.13800
      13 -> 16         0.10734
      13 -> 17         0.65193

 Excited State   7:      Singlet-A      8.3566 eV  148.37 nm  f=0.0005  <S**2>=0.000
      13 -> 18         0.62241
      13 -> 22        -0.27963

 Excited State   8:      Singlet-A      8.9361 eV  138.75 nm  f=0.0416  <S**2>=0.000
       8 -> 16         0.11047
      10 -> 14         0.45547
      11 -> 15        -0.19496
      11 -> 16        -0.15733
      11 -> 17         0.25797
      12 -> 16        -0.20275
      12 -> 18         0.21062

 Excited State   9:      Singlet-A      9.0580 eV  136.88 nm  f=0.0002  <S**2>=0.000
      13 -> 18         0.12748
      13 -> 19         0.63894
      13 -> 20         0.15953

 Excited State  10:      Singlet-A      9.1671 eV  135.25 nm  f=0.0040  <S**2>=0.000
       8 -> 15         0.12105
      10 -> 14        -0.26857
      11 -> 16        -0.10060
      12 -> 15         0.52986
      12 -> 18         0.18538
      12 -> 19        -0.11302

 Excited State  11:      Singlet-A      9.3241 eV  132.97 nm  f=0.1197  <S**2>=0.000
       9 -> 15        -0.17658
      10 -> 14         0.36093
      11 -> 15         0.35472
      11 -> 17        -0.19431
      12 -> 15         0.26612
      12 -> 17        -0.18136
      12 -> 18        -0.13669
      13 -> 21         0.10687

 Excited State  12:      Singlet-A      9.6362 eV  128.66 nm  f=0.0190  <S**2>=0.000
      10 -> 15        -0.11508
      13 -> 18         0.26317
      13 -> 19        -0.19430
      13 -> 20         0.28868
      13 -> 21        -0.10727
      13 -> 22         0.51074

 Excited State  13:      Singlet-A      9.7869 eV  126.68 nm  f=0.0257  <S**2>=0.000
      10 -> 15         0.57813
      13 -> 15         0.13180
      13 -> 20         0.30750
      13 -> 21        -0.10121

 Excited State  14:      Singlet-A      9.8684 eV  125.64 nm  f=0.2174  <S**2>=0.000
       9 -> 16        -0.10232
      11 -> 16        -0.37834
      11 -> 19        -0.16802
      12 -> 16         0.46350
      12 -> 17        -0.17014

 Excited State  15:      Singlet-A      9.9935 eV  124.07 nm  f=0.1412  <S**2>=0.000
       8 -> 16        -0.15260
       9 -> 15         0.16832
      10 -> 14         0.23763
      11 -> 15        -0.18874
      11 -> 18         0.20044
      11 -> 19         0.20559
      12 -> 15         0.19433
      12 -> 16         0.33644
      12 -> 17         0.18378
      12 -> 20         0.12406
      13 -> 20         0.10473
      13 -> 22        -0.10389

 The electronic state is 1-A.
 Alpha  occ. eigenvalues --   -1.92486  -1.21102  -0.96581  -0.81416  -0.79150
 Alpha  occ. eigenvalues --   -0.67544  -0.66181  -0.51975  -0.49336  -0.41638
 Alpha  occ. eigenvalues --   -0.39281  -0.37696  -0.27495
 Alpha virt. eigenvalues --    0.15168   0.18565   0.22164   0.26173   0.28462
 Alpha virt. eigenvalues --    0.30818   0.33072   0.33441   0.35935   0.42513
 Alpha virt. eigenvalues --    0.46670

 Mulliken charges:
               1
     1  C   -0.015467
     2  C   -1.895649
     3  O    3.125636
     4  C   -1.928421
     5  C   -0.170222
     6  H    0.156372
     7  H    0.305106
     8  H    0.278857
     9  H    0.143787
 Sum of Mulliken charges =   0.00000

 Dipole moment (field-independent basis, Debye):
    X=              5.6243    Y=             -9.3775    Z=              0.3710  Tot=             10.9411
 N-N= 1.033987208059D+02 E-N=-1.684904603590D+02  KE=-1.559860114033D+01
 Orbital energies and kinetic energies (alpha):
                                 1                 2
   1         O                -1.924856         -1.372339
   2         O                -1.211017         -1.083785
   3         O                -0.965813         -0.900321
   4         O                -0.814160         -0.673885
   5         O                -0.791503         -0.642917
   6         O                -0.675443         -0.566964
   7         O                -0.661814         -0.577402

 Normal termination of Gaussian 09 at Tue Dec 15 17:10:04 2015.
