 Gaussian 09, Revision D.01,
 Gaussian 09:  ES64L-G09RevD.01 24-Apr-2013

 ------------------------------------------------------------
 #P AM1(Input,print) CIS(Singlets,NStates=15) pop(full) force
 ------------------------------------------------------------

 -----------------
 AM1-Reparam Input
 -----------------
 Symbolic Z-matrix:
 Charge =  0 Multiplicity = 1

                         Standard orientation:
 ---------------------------------------------------------------------
 Center     Atomic      Atomic             Coordinates (Angstroms)
 Number     Number       Type             X           Y           Z
 ---------------------------------------------------------------------
      1          6           0        0.620232    1.021634   -0.011508
      2          6           0       -0.753987    0.813278   -0.000132
      3          8           0       -1.092145   -0.443872    0.008531
      4          6           0        0.103143   -1.113403   -0.010312
      5          6           0        1.170354   -0.257542    0.001872
      6          1           0        2.244777   -0.537404    0.008794
      7          1           0        0.078390   -2.216367    0.013477
      8          1           0       -1.523544    1.522542   -0.021462
      9          1           0        1.099085    1.998400    0.051417
 ---------------------------------------------------------------------

 SCF Done:  E(RAM1) =   1.78806786287     A.U. after   14 cycles

 Excitation energies and oscillator strengths:

 Excited State   1:      Singlet-A      5.7733 eV  214.75 nm  f=0.3286  <S**2>=0.000
      13 -> 14         0.68843
 This state for optimization and/or second-order correction.
 Total Energy, E(CIS) =   2.00023319829
 Copying the excited state density for this state as the 1-particle RhoCI density.

 Excited State   2:      Singlet-A      6.8262 eV  181.63 nm  f=0.0064  <S**2>=0.000
      13 -> 15         0.67207
      13 -> 17        -0.15387

 Excited State   3:      Singlet-A      7.2071 eV  172.03 nm  f=0.0015  <S**2>=0.000
      13 -> 16         0.66438
      13 -> 18         0.11620
      13 -> 19        -0.13356

 Excited State   4:      Singlet-A      7.8217 eV  158.51 nm  f=0.0004  <S**2>=0.000
      12 -> 14         0.69871

 Excited State   5:      Singlet-A      8.2915 eV  149.53 nm  f=0.0055  <S**2>=0.000
      10 -> 14         0.62291
      11 -> 14        -0.31904

 Excited State   6:      Singlet-A      8.6492 eV  143.35 nm  f=0.0001  <S**2>=0.000
      13 -> 17         0.13531
      13 -> 18         0.61521
      13 -> 21         0.27495

 Excited State   7:      Singlet-A      9.0950 eV  136.32 nm  f=0.0975  <S**2>=0.000
      10 -> 14         0.31004
      11 -> 14         0.60295

 Excited State   8:      Singlet-A      9.1964 eV  134.82 nm  f=0.0091  <S**2>=0.000
      11 -> 15        -0.13682
      11 -> 16         0.14579
      13 -> 15         0.10311
      13 -> 17         0.63881
      13 -> 18        -0.14394

 Excited State   9:      Singlet-A      9.7434 eV  127.25 nm  f=0.0012  <S**2>=0.000
      11 -> 15         0.19848
      11 -> 16         0.12606
      13 -> 19         0.64206

 Excited State  10:      Singlet-A      9.8009 eV  126.50 nm  f=0.0540  <S**2>=0.000
       9 -> 15        -0.16332
      10 -> 15         0.31796
      10 -> 16         0.18876
      10 -> 17        -0.21814
      11 -> 14        -0.10891
      11 -> 15        -0.13889
      11 -> 17         0.10602
      12 -> 15        -0.18800
      12 -> 16         0.17080
      12 -> 18         0.27560
      13 -> 14         0.11759

 Excited State  11:      Singlet-A     10.1794 eV  121.80 nm  f=0.0216  <S**2>=0.000
      11 -> 15         0.57638
      12 -> 15        -0.21973
      13 -> 15         0.12429
      13 -> 17         0.10753
      13 -> 19        -0.17957

 Excited State  12:      Singlet-A     10.2782 eV  120.63 nm  f=0.0572  <S**2>=0.000
      10 -> 15         0.44615
      10 -> 19         0.10870
      11 -> 15         0.10550
      12 -> 15         0.44568
      12 -> 17        -0.13128

 Excited State  13:      Singlet-A     10.5324 eV  117.72 nm  f=0.1884  <S**2>=0.000
      10 -> 15        -0.10148
      10 -> 16        -0.16245
      11 -> 16         0.17900
      12 -> 15         0.10201
      12 -> 16         0.60136
      12 -> 19        -0.10501

 Excited State  14:      Singlet-A     10.5771 eV  117.22 nm  f=0.0116  <S**2>=0.000
      11 -> 16        -0.13523
      13 -> 18        -0.25743
      13 -> 20        -0.23265
      13 -> 21         0.57057

 Excited State  15:      Singlet-A     10.6513 eV  116.40 nm  f=0.0413  <S**2>=0.000
      10 -> 16         0.24301
      11 -> 16         0.42767
      13 -> 17        -0.11568
      13 -> 20         0.34650
      13 -> 21         0.28308

 The electronic state is 1-A.
 Alpha  occ. eigenvalues --   -2.00248  -1.27913  -0.99580  -0.89572  -0.84752
 Alpha  occ. eigenvalues --   -0.76567  -0.75010  -0.62103  -0.61237  -0.51726
 Alpha  occ. eigenvalues --   -0.51334  -0.50301  -0.37760
 Alpha virt. eigenvalues --    0.05191   0.10877   0.12227   0.19581   0.20753
 Alpha virt. eigenvalues --    0.22813   0.25463   0.27440   0.31135   0.39454
 Alpha virt. eigenvalues --    0.44021

 Mulliken charges:
               1
     1  C   -0.143165
     2  C   -1.918362
     3  O    3.157122
     4  C   -1.908077
     5  C   -0.062168
     6  H    0.147123
     7  H    0.288851
     8  H    0.287562
     9  H    0.151114
 Sum of Mulliken charges =   0.00000

 Dipole moment (field-independent basis, Debye):
    X=             -9.6254    Y=             -3.9044    Z=              0.2386  Tot=             10.3899
 N-N= 1.058700348030D+02 E-N=-1.711202839239D+02  KE=-1.568161200438D+01
 Orbital energies and kinetic energies (alpha):
                                 1                 2
   1         O                -2.002479         -1.396834
   2         O                -1.279131         -1.064260
   3         O                -0.995803         -0.875922
   4         O                -0.895719         -0.590194
   5         O                -0.847515         -0.694347
   6         O                -0.765671         -0.605044
   7         O                -0.750096         -0.547977

 Normal termination of Gaussian 09 at Tue Dec 15 17:09:03 2015.
