 Gaussian 09, Revision D.01,
 Gaussian 09:  ES64L-G09RevD.01 24-Apr-2013

 ------------------------------------------------------------
 #P AM1(Input,print) CIS(Singlets,NStates=15) pop(full) force
 ------------------------------------------------------------

 -----------------
 AM1-Reparam Input
 -----------------
 Symbolic Z-matrix:
 Charge =  0 Multiplicity = 1

                         Standard orientation:
 ---------------------------------------------------------------------
 Center     Atomic      Atomic             Coordinates (Angstroms)
 Number     Number       Type             X           Y           Z
 ---------------------------------------------------------------------
      1          6           0        0.906798    0.776835   -0.013504
      2          6           0        1.034385   -0.574751    0.020855
      3          8           0       -0.305036   -1.109669   -0.002194
      4          6           0       -1.147473   -0.105361   -0.002074
      5          6           0       -0.458687    1.060529   -0.015200
      6          1           0       -0.909003    2.133576    0.071905
      7          1           0       -2.221451   -0.316488    0.014679
      8          1           0        1.834847   -1.276483   -0.028184
      9          1           0        1.725766    1.393239    0.018693
 ---------------------------------------------------------------------

 SCF Done:  E(RAM1) =  -2.82177766088     A.U. after   14 cycles

 Excitation energies and oscillator strengths:

 Excited State   1:      Singlet-A      6.0150 eV  206.13 nm  f=0.0035  <S**2>=0.000
      13 -> 15         0.60392
      13 -> 16        -0.31530
 This state for optimization and/or second-order correction.
 Total Energy, E(CIS) =  -2.60073123157
 Copying the excited state density for this state as the 1-particle RhoCI density.

 Excited State   2:      Singlet-A      6.6513 eV  186.41 nm  f=0.0182  <S**2>=0.000
      13 -> 14         0.48661
      13 -> 16         0.12252
      13 -> 17        -0.47650

 Excited State   3:      Singlet-A      6.9722 eV  177.83 nm  f=0.0631  <S**2>=0.000
      13 -> 14         0.46187
      13 -> 15        -0.15489
      13 -> 16        -0.29574
      13 -> 17         0.39325

 Excited State   4:      Singlet-A      7.1496 eV  173.41 nm  f=0.2114  <S**2>=0.000
      13 -> 14         0.17066
      13 -> 15         0.27868
      13 -> 16         0.50305
      13 -> 17         0.31557

 Excited State   5:      Singlet-A      8.4571 eV  146.60 nm  f=0.0005  <S**2>=0.000
      10 -> 14         0.14077
      13 -> 18         0.55615
      13 -> 21        -0.36780

 Excited State   6:      Singlet-A      8.7040 eV  142.45 nm  f=0.1382  <S**2>=0.000
      12 -> 15         0.64559
      12 -> 16        -0.14381
      12 -> 18         0.10386

 Excited State   7:      Singlet-A      8.8511 eV  140.08 nm  f=0.0037  <S**2>=0.000
      10 -> 14         0.11396
      12 -> 16         0.28200
      13 -> 15        -0.10764
      13 -> 18         0.28580
      13 -> 20         0.20574
      13 -> 21         0.46545

 Excited State   8:      Singlet-A      9.0526 eV  136.96 nm  f=0.0338  <S**2>=0.000
      10 -> 15         0.14960
      11 -> 16         0.12316
      12 -> 16         0.30949
      13 -> 19         0.53870
      13 -> 20        -0.10741
      13 -> 21        -0.14984

 Excited State   9:      Singlet-A      9.0794 eV  136.56 nm  f=0.0108  <S**2>=0.000
      10 -> 16        -0.10435
      12 -> 15         0.15724
      12 -> 16         0.51237
      13 -> 18        -0.10680
      13 -> 19        -0.35039
      13 -> 20        -0.12258
      13 -> 21        -0.13786

 Excited State  10:      Singlet-A      9.3959 eV  131.96 nm  f=0.0449  <S**2>=0.000
      10 -> 15        -0.12779
      11 -> 15         0.34693
      11 -> 16         0.10554
      13 -> 20         0.48822
      13 -> 21        -0.24414

 Excited State  11:      Singlet-A      9.4329 eV  131.44 nm  f=0.1434  <S**2>=0.000
      10 -> 15        -0.25725
      10 -> 16         0.10008
      10 -> 17         0.11529
      11 -> 15         0.39450
      11 -> 17        -0.10554
      11 -> 18         0.12316
      12 -> 14         0.10474
      12 -> 20         0.12299
      13 -> 19         0.10949
      13 -> 20        -0.33945
      13 -> 21         0.14688

 Excited State  12:      Singlet-A      9.6651 eV  128.28 nm  f=0.0438  <S**2>=0.000
      10 -> 15        -0.20557
      10 -> 16        -0.23438
      11 -> 16         0.57127
      13 -> 20        -0.14414

 Excited State  13:      Singlet-A     10.0205 eV  123.73 nm  f=0.0500  <S**2>=0.000
      11 -> 17        -0.13393
      12 -> 14        -0.33941
      12 -> 17         0.50381
      12 -> 20        -0.15154
      13 -> 19         0.10760

 Excited State  14:      Singlet-A     10.1308 eV  122.38 nm  f=0.0474  <S**2>=0.000
      10 -> 14        -0.18814
      10 -> 15         0.20378
      10 -> 16        -0.23671
      10 -> 17         0.25751
      11 -> 14        -0.17559
      11 -> 15         0.23758
      11 -> 17         0.26523
      12 -> 14        -0.23290
      12 -> 20        -0.10179
      13 -> 18         0.14987

 Excited State  15:      Singlet-A     10.1690 eV  121.92 nm  f=0.1520  <S**2>=0.000
       9 -> 14         0.12972
      10 -> 14        -0.16369
      10 -> 15         0.21645
      10 -> 17         0.19004
      12 -> 14         0.38545
      12 -> 17         0.34238
      12 -> 20         0.11638

 The electronic state is 1-A.
 Alpha  occ. eigenvalues --   -3.06582  -1.27237  -0.98451  -0.94753  -0.91952
 Alpha  occ. eigenvalues --   -0.84773  -0.75779  -0.61698  -0.60036  -0.48519
 Alpha  occ. eigenvalues --   -0.48099  -0.46091  -0.33027
 Alpha virt. eigenvalues --    0.14402   0.14552   0.15484   0.17980   0.22669
 Alpha virt. eigenvalues --    0.24542   0.25943   0.26831   0.32285   0.32518
 Alpha virt. eigenvalues --    0.40625

 Mulliken charges:
               1
     1  C   -0.108828
     2  C   -1.786295
     3  O    2.908809
     4  C   -1.792689
     5  C   -0.230644
     6  H    0.203864
     7  H    0.316776
     8  H    0.292968
     9  H    0.196039
 Sum of Mulliken charges =   0.00000

 Dipole moment (field-independent basis, Debye):
    X=             -3.1198    Y=             -9.2113    Z=             -0.1103  Tot=              9.7260
 N-N= 1.051878163846D+02 E-N=-1.707403854030D+02  KE=-2.173886753448D+01
 Orbital energies and kinetic energies (alpha):
                                 1                 2
   1         O                -3.065818         -2.365528
   2         O                -1.272370         -1.189810
   3         O                -0.984511         -0.926423
   4         O                -0.947532         -0.950691
   5         O                -0.919521         -0.816621
   6         O                -0.847725         -0.835101
   7         O                -0.757793         -0.744210

 Normal termination of Gaussian 09 at Fri Dec 11 13:41:26 2015.
