 Gaussian 09, Revision D.01,
 Gaussian 09:  ES64L-G09RevD.01 24-Apr-2013

 ------------------------------------------------------------
 #P AM1(Input,print) CIS(Singlets,NStates=15) pop(full) force
 ------------------------------------------------------------

 -----------------
 AM1-Reparam Input
 -----------------
 Symbolic Z-matrix:
 Charge =  0 Multiplicity = 1

                         Standard orientation:
 ---------------------------------------------------------------------
 Center     Atomic      Atomic             Coordinates (Angstroms)
 Number     Number       Type             X           Y           Z
 ---------------------------------------------------------------------
      1          6           0        0.620232    1.021634   -0.011508
      2          6           0       -0.753987    0.813278   -0.000132
      3          8           0       -1.092145   -0.443872    0.008531
      4          6           0        0.103143   -1.113403   -0.010312
      5          6           0        1.170354   -0.257542    0.001872
      6          1           0        2.244777   -0.537404    0.008794
      7          1           0        0.078390   -2.216367    0.013477
      8          1           0       -1.523544    1.522542   -0.021462
      9          1           0        1.099085    1.998400    0.051417
 ---------------------------------------------------------------------

 SCF Done:  E(RAM1) =   2.52113756994     A.U. after   14 cycles

 Excitation energies and oscillator strengths:

 Excited State   1:      Singlet-A      5.6397 eV  219.84 nm  f=0.3305  <S**2>=0.000
      13 -> 14         0.69363
 This state for optimization and/or second-order correction.
 Total Energy, E(CIS) =   2.72839376267
 Copying the excited state density for this state as the 1-particle RhoCI density.

 Excited State   2:      Singlet-A      6.5289 eV  189.90 nm  f=0.0035  <S**2>=0.000
      11 -> 15         0.10265
      13 -> 15         0.65624
      13 -> 17        -0.19018

 Excited State   3:      Singlet-A      6.8255 eV  181.65 nm  f=0.0006  <S**2>=0.000
      11 -> 16        -0.12507
      13 -> 16         0.65539
      13 -> 18        -0.10356
      13 -> 19        -0.13621

 Excited State   4:      Singlet-A      7.1483 eV  173.45 nm  f=0.0004  <S**2>=0.000
       9 -> 14         0.12608
      12 -> 14         0.69273

 Excited State   5:      Singlet-A      7.8715 eV  157.51 nm  f=0.0051  <S**2>=0.000
      10 -> 14         0.64327
      11 -> 14        -0.26553

 Excited State   6:      Singlet-A      8.3338 eV  148.77 nm  f=0.0000  <S**2>=0.000
      13 -> 17        -0.18447
      13 -> 18         0.55258
      13 -> 21        -0.35291

 Excited State   7:      Singlet-A      8.4247 eV  147.17 nm  f=0.0081  <S**2>=0.000
      11 -> 15         0.10031
      11 -> 16        -0.12874
      13 -> 15         0.12886
      13 -> 17         0.62551
      13 -> 18         0.18328

 Excited State   8:      Singlet-A      8.8066 eV  140.79 nm  f=0.0872  <S**2>=0.000
      10 -> 14         0.25994
      11 -> 14         0.62942

 Excited State   9:      Singlet-A      9.0574 eV  136.89 nm  f=0.0002  <S**2>=0.000
      11 -> 15        -0.11031
      13 -> 18        -0.14863
      13 -> 19         0.64995

 Excited State  10:      Singlet-A      9.3987 eV  131.92 nm  f=0.0155  <S**2>=0.000
       8 -> 15        -0.14789
       9 -> 15         0.13354
       9 -> 19         0.10085
      10 -> 15         0.26054
      10 -> 16         0.17797
      10 -> 17        -0.24719
      11 -> 14        -0.10831
      12 -> 15         0.24344
      12 -> 16        -0.25175
      12 -> 18         0.25389

 Excited State  11:      Singlet-A      9.6591 eV  128.36 nm  f=0.0044  <S**2>=0.000
      11 -> 15         0.20236
      13 -> 18         0.33036
      13 -> 19         0.13725
      13 -> 21         0.52846

 Excited State  12:      Singlet-A      9.6723 eV  128.18 nm  f=0.0659  <S**2>=0.000
       9 -> 15        -0.12366
      10 -> 15        -0.19486
      11 -> 15         0.36790
      12 -> 15         0.43911
      12 -> 17        -0.12087
      13 -> 20         0.10451
      13 -> 21        -0.19180

 Excited State  13:      Singlet-A      9.7785 eV  126.79 nm  f=0.0249  <S**2>=0.000
       7 -> 15        -0.10319
      10 -> 15         0.36041
      11 -> 15         0.43205
      12 -> 15        -0.26208
      13 -> 15        -0.11714
      13 -> 20         0.16614
      13 -> 21        -0.12341

 Excited State  14:      Singlet-A      9.9573 eV  124.52 nm  f=0.1153  <S**2>=0.000
      11 -> 16        -0.25470
      12 -> 15         0.14319
      12 -> 16         0.47214
      13 -> 20         0.31871

 Excited State  15:      Singlet-A      9.9772 eV  124.27 nm  f=0.1059  <S**2>=0.000
      10 -> 16        -0.17197
      11 -> 16        -0.15723
      12 -> 16        -0.33658
      13 -> 19        -0.10178
      13 -> 20         0.49865
      13 -> 21         0.12936

 The electronic state is 1-A.
 Alpha  occ. eigenvalues --   -1.74859  -1.16504  -0.94539  -0.80718  -0.75846
 Alpha  occ. eigenvalues --   -0.67415  -0.64973  -0.53764  -0.49292  -0.43500
 Alpha  occ. eigenvalues --   -0.43118  -0.41178  -0.29711
 Alpha virt. eigenvalues --    0.12228   0.17478   0.18537   0.25310   0.27316
 Alpha virt. eigenvalues --    0.28926   0.30955   0.32981   0.41510   0.51097
 Alpha virt. eigenvalues --    0.54916

 Mulliken charges:
               1
     1  C   -0.080019
     2  C   -1.955672
     3  O    3.214270
     4  C   -1.934112
     5  C    0.000115
     6  H    0.109257
     7  H    0.261563
     8  H    0.268792
     9  H    0.115805
 Sum of Mulliken charges =   0.00000

 Dipole moment (field-independent basis, Debye):
    X=             -9.6452    Y=             -3.8568    Z=              0.2333  Tot=             10.3903
 N-N= 1.040034159247D+02 E-N=-1.691961893922D+02  KE=-1.506003480628D+01
 Orbital energies and kinetic energies (alpha):
                                 1                 2
   1         O                -1.748586         -1.257518
   2         O                -1.165039         -1.027810
   3         O                -0.945387         -0.858798
   4         O                -0.807184         -0.614185
   5         O                -0.758464         -0.682488
   6         O                -0.674150         -0.574787
   7         O                -0.649735         -0.525796

 Normal termination of Gaussian 09 at Tue Dec 15 17:06:21 2015.
