 Gaussian 09, Revision D.01,
 Gaussian 09:  ES64L-G09RevD.01 24-Apr-2013

 ------------------------------------------------------------
 #P AM1(Input,print) CIS(Singlets,NStates=15) pop(full) force
 ------------------------------------------------------------

 -----------------
 AM1-Reparam Input
 -----------------
 Symbolic Z-matrix:
 Charge =  0 Multiplicity = 1

                         Standard orientation:
 ---------------------------------------------------------------------
 Center     Atomic      Atomic             Coordinates (Angstroms)
 Number     Number       Type             X           Y           Z
 ---------------------------------------------------------------------
      1          6           0        0.962296    0.749562    0.007155
      2          6           0        0.974707   -0.643081   -0.023719
      3          8           0       -0.345927   -1.140192    0.028641
      4          6           0       -1.173187   -0.023624   -0.018379
      5          6           0       -0.399275    1.114596   -0.003523
      6          1           0       -0.804527    2.105082    0.016803
      7          1           0       -2.203463   -0.163177   -0.018833
      8          1           0        1.747143   -1.331401   -0.043330
      9          1           0        1.841019    1.326315    0.047029
 ---------------------------------------------------------------------

 SCF Done:  E(RAM1) =   2.81380136784     A.U. after   13 cycles

 Excitation energies and oscillator strengths:

 Excited State   1:      Singlet-A      5.4116 eV  229.11 nm  f=0.3275  <S**2>=0.000
      13 -> 14         0.69379
 This state for optimization and/or second-order correction.
 Total Energy, E(CIS) =   3.01267241995
 Copying the excited state density for this state as the 1-particle RhoCI density.

 Excited State   2:      Singlet-A      6.7382 eV  184.00 nm  f=0.0091  <S**2>=0.000
      11 -> 16        -0.10043
      13 -> 15         0.62178
      13 -> 16         0.18137
      13 -> 17         0.24114

 Excited State   3:      Singlet-A      6.9633 eV  178.05 nm  f=0.0001  <S**2>=0.000
      11 -> 15        -0.10429
      12 -> 14        -0.33202
      13 -> 15        -0.13423
      13 -> 16         0.53450
      13 -> 18        -0.22306
      13 -> 21         0.11168

 Excited State   4:      Singlet-A      6.9978 eV  177.17 nm  f=0.0002  <S**2>=0.000
       9 -> 14         0.10510
      12 -> 14         0.60585
      13 -> 15        -0.12544
      13 -> 16         0.28699
      13 -> 18        -0.11738

 Excited State   5:      Singlet-A      7.7440 eV  160.10 nm  f=0.0057  <S**2>=0.000
      10 -> 14         0.66757
      11 -> 14        -0.18862

 Excited State   6:      Singlet-A      8.0811 eV  153.42 nm  f=0.0006  <S**2>=0.000
      11 -> 15         0.10573
      13 -> 16        -0.16238
      13 -> 17         0.21873
      13 -> 18        -0.32134
      13 -> 19        -0.23795
      13 -> 21         0.48019

 Excited State   7:      Singlet-A      8.2878 eV  149.60 nm  f=0.0142  <S**2>=0.000
      11 -> 16         0.13386
      13 -> 15        -0.19675
      13 -> 17         0.60442
      13 -> 18         0.14558
      13 -> 21        -0.16840

 Excited State   8:      Singlet-A      8.5557 eV  144.91 nm  f=0.1101  <S**2>=0.000
      10 -> 14         0.18782
      11 -> 14         0.66707

 Excited State   9:      Singlet-A      8.8321 eV  140.38 nm  f=0.0004  <S**2>=0.000
      11 -> 15         0.11187
      13 -> 16        -0.15957
      13 -> 18        -0.40279
      13 -> 19         0.51328
      13 -> 21        -0.12380

 Excited State  10:      Singlet-A      9.2331 eV  134.28 nm  f=0.0016  <S**2>=0.000
      13 -> 18         0.36167
      13 -> 19         0.40508
      13 -> 21         0.43959

 Excited State  11:      Singlet-A      9.5325 eV  130.07 nm  f=0.0184  <S**2>=0.000
       8 -> 15         0.12682
       9 -> 16        -0.13961
       9 -> 18         0.13243
      10 -> 15         0.31307
      10 -> 17         0.28960
      12 -> 16        -0.28143
      12 -> 17        -0.13203
      12 -> 18         0.20188
      12 -> 19         0.18743
      12 -> 21        -0.15496

 Excited State  12:      Singlet-A      9.6287 eV  128.76 nm  f=0.0900  <S**2>=0.000
      13 -> 20         0.68648

 Excited State  13:      Singlet-A      9.9312 eV  124.84 nm  f=0.0807  <S**2>=0.000
      10 -> 15        -0.11233
      10 -> 16         0.11784
      12 -> 15         0.56451
      12 -> 16        -0.21272
      12 -> 17         0.17961
      12 -> 18         0.16709

 Excited State  14:      Singlet-A     10.0348 eV  123.55 nm  f=0.0185  <S**2>=0.000
       9 -> 14        -0.11909
      11 -> 15         0.57443
      11 -> 16         0.15888
      11 -> 17         0.14479
      12 -> 16        -0.13661
      13 -> 16         0.16368

 Excited State  15:      Singlet-A     10.1994 eV  121.56 nm  f=0.0565  <S**2>=0.000
       9 -> 14         0.54560
      10 -> 15        -0.15202
      10 -> 16        -0.14944
      12 -> 15        -0.11400
      12 -> 16        -0.28765

 The electronic state is 1-A.
 Alpha  occ. eigenvalues --   -1.68941  -1.11189  -0.91380  -0.78286  -0.75625
 Alpha  occ. eigenvalues --   -0.66721  -0.61892  -0.53601  -0.50112  -0.43087
 Alpha  occ. eigenvalues --   -0.42079  -0.40564  -0.28695
 Alpha virt. eigenvalues --    0.11959   0.19845   0.20749   0.25229   0.27847
 Alpha virt. eigenvalues --    0.28901   0.30352   0.30841   0.34958   0.44178
 Alpha virt. eigenvalues --    0.47843

 Mulliken charges:
               1
     1  C   -0.111163
     2  C   -1.962948
     3  O    3.217147
     4  C   -1.959749
     5  C   -0.130313
     6  H    0.176558
     7  H    0.300528
     8  H    0.293693
     9  H    0.176246
 Sum of Mulliken charges =   0.00000

 Dipole moment (field-independent basis, Debye):
    X=             -3.1831    Y=            -10.2443    Z=              0.6889  Tot=             10.7495
 N-N= 1.033218932172D+02 E-N=-1.680344563417D+02  KE=-1.473829574365D+01
 Orbital energies and kinetic energies (alpha):
                                 1                 2
   1         O                -1.689406         -1.165658
   2         O                -1.111890         -0.990591
   3         O                -0.913800         -0.856468
   4         O                -0.782864         -0.591664
   5         O                -0.756246         -0.682100
   6         O                -0.667208         -0.573109
   7         O                -0.618922         -0.514185

 Normal termination of Gaussian 09 at Tue Dec 15 17:06:05 2015.
