 Gaussian 09, Revision D.01,
 Gaussian 09:  ES64L-G09RevD.01 24-Apr-2013

 ------------------------------------------------------------
 #P AM1(Input,print) CIS(Singlets,NStates=15) pop(full) force
 ------------------------------------------------------------

 -----------------
 AM1-Reparam Input
 -----------------
 Symbolic Z-matrix:
 Charge =  0 Multiplicity = 1

                         Standard orientation:
 ---------------------------------------------------------------------
 Center     Atomic      Atomic             Coordinates (Angstroms)
 Number     Number       Type             X           Y           Z
 ---------------------------------------------------------------------
      1          6           0        0.863239    0.784245   -0.020767
      2          6           0        1.033205   -0.481976    0.015390
      3          8           0       -0.225510   -1.153029    0.003608
      4          6           0       -1.105698   -0.133167   -0.010492
      5          6           0       -0.522442    1.046167   -0.000348
      6          1           0       -1.117619    1.976527    0.081247
      7          1           0       -2.183631   -0.462451   -0.015577
      8          1           0        1.851522   -1.191054    0.001046
      9          1           0        1.643985    1.609587    0.001716
 ---------------------------------------------------------------------

 SCF Done:  E(RAM1) =   1.44918539856     A.U. after   13 cycles

 Excitation energies and oscillator strengths:

 Excited State   1:      Singlet-A      5.5814 eV  222.14 nm  f=0.0001  <S**2>=0.000
      11 -> 15        -0.10840
      13 -> 15         0.67950
      13 -> 17        -0.10360
 This state for optimization and/or second-order correction.
 Total Energy, E(CIS) =   1.65429689801
 Copying the excited state density for this state as the 1-particle RhoCI density.

 Excited State   2:      Singlet-A      5.8868 eV  210.61 nm  f=0.2885  <S**2>=0.000
      13 -> 14         0.69055

 Excited State   3:      Singlet-A      6.1593 eV  201.30 nm  f=0.0013  <S**2>=0.000
      11 -> 16         0.12259
      13 -> 16         0.67541
      13 -> 21         0.11321

 Excited State   4:      Singlet-A      7.2433 eV  171.17 nm  f=0.0068  <S**2>=0.000
      13 -> 15         0.11347
      13 -> 17         0.64825
      13 -> 18        -0.18667

 Excited State   5:      Singlet-A      7.4895 eV  165.54 nm  f=0.0005  <S**2>=0.000
      11 -> 14         0.11159
      12 -> 14         0.67668
      13 -> 22        -0.12643

 Excited State   6:      Singlet-A      7.7917 eV  159.12 nm  f=0.0011  <S**2>=0.000
      13 -> 19         0.55333
      13 -> 22        -0.39433

 Excited State   7:      Singlet-A      8.0179 eV  154.63 nm  f=0.0358  <S**2>=0.000
      11 -> 14         0.29798
      13 -> 17         0.17258
      13 -> 18         0.59848

 Excited State   8:      Singlet-A      8.3920 eV  147.74 nm  f=0.0007  <S**2>=0.000
      10 -> 14        -0.11361
      11 -> 15        -0.14372
      13 -> 17        -0.11972
      13 -> 19         0.33483
      13 -> 20        -0.27961
      13 -> 21         0.35868
      13 -> 22         0.32435

 Excited State   9:      Singlet-A      8.4155 eV  147.33 nm  f=0.0031  <S**2>=0.000
      10 -> 14         0.65172
      11 -> 14        -0.11440
      13 -> 20        -0.19486

 Excited State  10:      Singlet-A      8.6988 eV  142.53 nm  f=0.0128  <S**2>=0.000
      10 -> 14         0.16751
      13 -> 19         0.24066
      13 -> 20         0.50130
      13 -> 22         0.35905

 Excited State  11:      Singlet-A      8.8235 eV  140.52 nm  f=0.0193  <S**2>=0.000
      11 -> 15         0.52030
      12 -> 15        -0.22898
      13 -> 15         0.11051
      13 -> 21         0.34013

 Excited State  12:      Singlet-A      9.0286 eV  137.32 nm  f=0.0254  <S**2>=0.000
      11 -> 14         0.12527
      11 -> 15        -0.24476
      11 -> 16        -0.11109
      12 -> 15         0.16260
      13 -> 20         0.29264
      13 -> 21         0.41440
      13 -> 22        -0.26944
      13 -> 23         0.11195

 Excited State  13:      Singlet-A      9.1307 eV  135.79 nm  f=0.0792  <S**2>=0.000
       8 -> 16        -0.11723
      10 -> 14         0.10360
      10 -> 17        -0.11067
      11 -> 14         0.46679
      12 -> 16         0.28306
      12 -> 17         0.14681
      13 -> 18        -0.22922

 Excited State  14:      Singlet-A      9.2347 eV  134.26 nm  f=0.0861  <S**2>=0.000
       8 -> 15         0.16547
       9 -> 15         0.17389
      10 -> 15         0.15173
      11 -> 14         0.13219
      11 -> 15         0.25988
      12 -> 15         0.45559
      12 -> 16        -0.21439
      13 -> 18        -0.10989

 Excited State  15:      Singlet-A      9.6143 eV  128.96 nm  f=0.0300  <S**2>=0.000
      11 -> 16         0.54091
      12 -> 15        -0.11175
      12 -> 16        -0.25466
      13 -> 16        -0.13829
      13 -> 20         0.11841
      13 -> 21         0.15190
      13 -> 23        -0.12479

 The electronic state is 1-A.
 Alpha  occ. eigenvalues --   -1.89000  -1.21160  -0.96039  -0.78183  -0.77283
 Alpha  occ. eigenvalues --   -0.67232  -0.62573  -0.48725  -0.47200  -0.38812
 Alpha  occ. eigenvalues --   -0.37047  -0.36133  -0.22947
 Alpha virt. eigenvalues --    0.19284   0.20086   0.22724   0.28903   0.29012
 Alpha virt. eigenvalues --    0.31117   0.34410   0.35590   0.37031   0.40201
 Alpha virt. eigenvalues --    0.44347

 Mulliken charges:
               1
     1  C   -0.018971
     2  C   -1.469414
     3  O    2.740388
     4  C   -1.506966
     5  C   -0.125812
     6  H    0.059962
     7  H    0.148135
     8  H    0.124340
     9  H    0.048337
 Sum of Mulliken charges =   0.00000

 Dipole moment (field-independent basis, Debye):
    X=             -2.2037    Y=            -10.1601    Z=              0.0253  Tot=             10.3964
 N-N= 1.038753607555D+02 E-N=-1.705337797421D+02  KE=-1.587187483498D+01
 Orbital energies and kinetic energies (alpha):
                                 1                 2
   1         O                -1.889997         -1.377211
   2         O                -1.211603         -1.091940
   3         O                -0.960392         -0.898165
   4         O                -0.781831         -0.611756
   5         O                -0.772826         -0.701956
   6         O                -0.672315         -0.619229
   7         O                -0.625731         -0.556373

 Normal termination of Gaussian 09 at Tue Dec 15 17:08:04 2015.
