 Gaussian 09, Revision D.01,
 Gaussian 09:  ES64L-G09RevD.01 24-Apr-2013

 ------------------------------------------------------------
 #P AM1(Input,print) CIS(Singlets,NStates=15) pop(full) force
 ------------------------------------------------------------

 -----------------
 AM1-Reparam Input
 -----------------
 Symbolic Z-matrix:
 Charge =  0 Multiplicity = 1

                         Standard orientation:
 ---------------------------------------------------------------------
 Center     Atomic      Atomic             Coordinates (Angstroms)
 Number     Number       Type             X           Y           Z
 ---------------------------------------------------------------------
      1          6           0        0.760338    0.887249   -0.009021
      2          6           0        1.077972   -0.418550    0.017701
      3          8           0       -0.077139   -1.163490   -0.014097
      4          6           0       -1.145988   -0.238772    0.027431
      5          6           0       -0.613710    0.982587   -0.024102
      6          1           0       -1.233499    1.867463    0.041784
      7          1           0       -2.067250   -0.683119   -0.020846
      8          1           0        1.969513   -0.900513   -0.005957
      9          1           0        1.476681    1.749002    0.025739
 ---------------------------------------------------------------------

 SCF Done:  E(RAM1) =   1.42425187028     A.U. after   13 cycles

 Excitation energies and oscillator strengths:

 Excited State   1:      Singlet-A      6.1047 eV  203.09 nm  f=0.2853  <S**2>=0.000
      13 -> 14         0.69117
 This state for optimization and/or second-order correction.
 Total Energy, E(CIS) =   1.64859710820
 Copying the excited state density for this state as the 1-particle RhoCI density.

 Excited State   2:      Singlet-A      6.4716 eV  191.58 nm  f=0.0006  <S**2>=0.000
      12 -> 16         0.11025
      13 -> 15         0.65252
      13 -> 17        -0.20306

 Excited State   3:      Singlet-A      6.8614 eV  180.70 nm  f=0.0002  <S**2>=0.000
      12 -> 15         0.15697
      13 -> 16         0.65127
      13 -> 21         0.13470
      13 -> 22         0.11097

 Excited State   4:      Singlet-A      7.6419 eV  162.24 nm  f=0.0061  <S**2>=0.000
      11 -> 14        -0.36249
      13 -> 15         0.15842
      13 -> 17         0.55657

 Excited State   5:      Singlet-A      7.6587 eV  161.89 nm  f=0.0022  <S**2>=0.000
      11 -> 14         0.57810
      13 -> 17         0.34863

 Excited State   6:      Singlet-A      8.0739 eV  153.56 nm  f=0.0008  <S**2>=0.000
      12 -> 15        -0.11773
      13 -> 19         0.52411
      13 -> 22         0.41718

 Excited State   7:      Singlet-A      8.2039 eV  151.13 nm  f=0.0083  <S**2>=0.000
      10 -> 14        -0.23636
      12 -> 14         0.37552
      13 -> 18         0.53598

 Excited State   8:      Singlet-A      8.2587 eV  150.13 nm  f=0.0012  <S**2>=0.000
      10 -> 14         0.64256
      13 -> 17         0.10555
      13 -> 18         0.23069

 Excited State   9:      Singlet-A      8.8127 eV  140.69 nm  f=0.0020  <S**2>=0.000
      12 -> 15        -0.20303
      13 -> 19        -0.38104
      13 -> 20        -0.10607
      13 -> 21         0.24940
      13 -> 22         0.46662

 Excited State  10:      Singlet-A      8.9254 eV  138.91 nm  f=0.0061  <S**2>=0.000
      13 -> 19         0.24487
      13 -> 20        -0.38357
      13 -> 21         0.47816
      13 -> 22        -0.17448

 Excited State  11:      Singlet-A      9.1114 eV  136.08 nm  f=0.1275  <S**2>=0.000
      12 -> 14         0.42211
      12 -> 16        -0.13773
      13 -> 18        -0.26871
      13 -> 20         0.32211
      13 -> 21         0.27543
      13 -> 23         0.10187

 Excited State  12:      Singlet-A      9.1889 eV  134.93 nm  f=0.1397  <S**2>=0.000
      12 -> 14         0.38598
      12 -> 15        -0.13543
      12 -> 16         0.18702
      13 -> 18        -0.25709
      13 -> 20        -0.33892
      13 -> 21        -0.28078
      13 -> 23        -0.12528

 Excited State  13:      Singlet-A      9.4671 eV  130.96 nm  f=0.0050  <S**2>=0.000
      12 -> 15         0.57333
      12 -> 17        -0.12330
      12 -> 20         0.12437
      13 -> 16        -0.18200
      13 -> 20        -0.19390
      13 -> 22         0.19903

 Excited State  14:      Singlet-A      9.7076 eV  127.72 nm  f=0.0535  <S**2>=0.000
       8 -> 15        -0.12887
      10 -> 15        -0.18094
      10 -> 17         0.42811
      11 -> 15        -0.15276
      11 -> 16         0.22335
      11 -> 19         0.33141
      11 -> 22         0.11741

 Excited State  15:      Singlet-A      9.9224 eV  124.95 nm  f=0.0141  <S**2>=0.000
      11 -> 15        -0.10558
      12 -> 16         0.54600
      12 -> 21         0.11379
      13 -> 15        -0.13824
      13 -> 20         0.23189
      13 -> 21         0.13104
      13 -> 23        -0.23392

 The electronic state is 1-A.
 Alpha  occ. eigenvalues --   -1.88445  -1.20567  -0.96909  -0.78861  -0.77991
 Alpha  occ. eigenvalues --   -0.67823  -0.61884  -0.50346  -0.47991  -0.38990
 Alpha  occ. eigenvalues --   -0.37560  -0.36820  -0.24667
 Alpha virt. eigenvalues --    0.18603   0.22913   0.24195   0.28310   0.28502
 Alpha virt. eigenvalues --    0.30659   0.33763   0.34501   0.36345   0.39508
 Alpha virt. eigenvalues --    0.44260

 Mulliken charges:
               1
     1  C   -0.077094
     2  C   -1.552973
     3  O    2.774742
     4  C   -1.523501
     5  C   -0.048996
     6  H    0.061929
     7  H    0.140168
     8  H    0.164468
     9  H    0.061257
 Sum of Mulliken charges =   0.00000

 Dipole moment (field-independent basis, Debye):
    X=             -0.4805    Y=             -9.8236    Z=             -0.4881  Tot=              9.8474
 N-N= 1.038435989691D+02 E-N=-1.703641508194D+02  KE=-1.589750153946D+01
 Orbital energies and kinetic energies (alpha):
                                 1                 2
   1         O                -1.884445         -1.368822
   2         O                -1.205669         -1.085691
   3         O                -0.969088         -0.900465
   4         O                -0.788610         -0.719233
   5         O                -0.779906         -0.622321
   6         O                -0.678229         -0.624474
   7         O                -0.618836         -0.550590

 Normal termination of Gaussian 09 at Tue Dec 15 17:07:59 2015.
