 Gaussian 09, Revision D.01,
 Gaussian 09:  ES64L-G09RevD.01 24-Apr-2013

 ------------------------------------------------------------
 #P AM1(Input,print) CIS(Singlets,NStates=15) pop(full) force
 ------------------------------------------------------------

 -----------------
 AM1-Reparam Input
 -----------------
 Symbolic Z-matrix:
 Charge =  0 Multiplicity = 1

                         Standard orientation:
 ---------------------------------------------------------------------
 Center     Atomic      Atomic             Coordinates (Angstroms)
 Number     Number       Type             X           Y           Z
 ---------------------------------------------------------------------
      1          6           0        0.906798    0.776835   -0.013504
      2          6           0        1.034385   -0.574751    0.020855
      3          8           0       -0.305036   -1.109669   -0.002194
      4          6           0       -1.147473   -0.105361   -0.002074
      5          6           0       -0.458687    1.060529   -0.015200
      6          1           0       -0.909003    2.133576    0.071905
      7          1           0       -2.221451   -0.316488    0.014679
      8          1           0        1.834847   -1.276483   -0.028184
      9          1           0        1.725766    1.393239    0.018693
 ---------------------------------------------------------------------

 SCF Done:  E(RAM1) =  -5.97876237446     A.U. after   14 cycles

 Excitation energies and oscillator strengths:

 Excited State   1:      Singlet-A      6.7675 eV  183.21 nm  f=0.2362  <S**2>=0.000
      12 -> 14        -0.14138
      13 -> 14         0.67072
 This state for optimization and/or second-order correction.
 Total Energy, E(CIS) =  -5.73006200091
 Copying the excited state density for this state as the 1-particle RhoCI density.

 Excited State   2:      Singlet-A      7.0067 eV  176.95 nm  f=0.0052  <S**2>=0.000
      13 -> 15         0.66677
      13 -> 16         0.15087
      13 -> 19         0.11226

 Excited State   3:      Singlet-A      7.2933 eV  170.00 nm  f=0.0206  <S**2>=0.000
       9 -> 14        -0.12646
      12 -> 14         0.66956
      13 -> 14         0.13608

 Excited State   4:      Singlet-A      7.7138 eV  160.73 nm  f=0.0072  <S**2>=0.000
      11 -> 14        -0.28185
      13 -> 15        -0.14141
      13 -> 16         0.61190

 Excited State   5:      Singlet-A      7.8527 eV  157.89 nm  f=0.0050  <S**2>=0.000
      11 -> 14         0.63816
      13 -> 16         0.27765

 Excited State   6:      Singlet-A      9.1165 eV  136.00 nm  f=0.0138  <S**2>=0.000
      10 -> 14         0.15850
      11 -> 15        -0.15329
      12 -> 15         0.57141
      12 -> 19         0.10011
      13 -> 17         0.16978
      13 -> 18         0.24135

 Excited State   7:      Singlet-A      9.2296 eV  134.33 nm  f=0.0070  <S**2>=0.000
      10 -> 14         0.47544
      12 -> 15        -0.28394
      13 -> 17         0.28384
      13 -> 18         0.26316

 Excited State   8:      Singlet-A      9.4684 eV  130.94 nm  f=0.0060  <S**2>=0.000
       9 -> 14         0.11432
      10 -> 15        -0.13184
      13 -> 17        -0.41717
      13 -> 18         0.42629
      13 -> 19        -0.27969
      13 -> 22        -0.10582

 Excited State   9:      Singlet-A      9.6115 eV  129.00 nm  f=0.0088  <S**2>=0.000
      10 -> 15         0.21732
      10 -> 16        -0.17119
      13 -> 17        -0.29352
      13 -> 18         0.15414
      13 -> 19         0.52971
      13 -> 20         0.12543

 Excited State  10:      Singlet-A      9.6653 eV  128.28 nm  f=0.0066  <S**2>=0.000
       9 -> 14         0.60051
      10 -> 14        -0.18018
      12 -> 14         0.13006
      13 -> 17         0.20820
      13 -> 18         0.10277

 Excited State  11:      Singlet-A      9.9346 eV  124.80 nm  f=0.0252  <S**2>=0.000
       9 -> 14        -0.25369
      10 -> 14        -0.22852
      11 -> 15         0.31075
      11 -> 16         0.23433
      12 -> 16         0.36186
      13 -> 17         0.13548
      13 -> 18         0.22013

 Excited State  12:      Singlet-A     10.1403 eV  122.27 nm  f=0.0052  <S**2>=0.000
      10 -> 15         0.56964
      10 -> 16         0.23742
      10 -> 19         0.10793
      11 -> 15         0.11273
      11 -> 16         0.10317
      13 -> 19        -0.16321

 Excited State  13:      Singlet-A     10.2121 eV  121.41 nm  f=0.0416  <S**2>=0.000
      10 -> 14         0.14109
      11 -> 15        -0.36310
      11 -> 16         0.14166
      11 -> 19        -0.12164
      12 -> 15        -0.12703
      12 -> 16         0.46659
      13 -> 18        -0.12218

 Excited State  14:      Singlet-A     10.3066 eV  120.30 nm  f=0.0931  <S**2>=0.000
       9 -> 15        -0.14591
      10 -> 14         0.19366
      11 -> 15         0.23524
      11 -> 16         0.34688
      13 -> 18        -0.20367
      13 -> 20         0.37342

 Excited State  15:      Singlet-A     10.3223 eV  120.11 nm  f=0.0431  <S**2>=0.000
      10 -> 14        -0.13041
      10 -> 15         0.11736
      11 -> 15        -0.10969
      11 -> 16        -0.23443
      13 -> 17         0.13428
      13 -> 18         0.12736
      13 -> 19        -0.14767
      13 -> 20         0.51784
      13 -> 21         0.14446

 The electronic state is 1-A.
 Alpha  occ. eigenvalues --   -4.61745  -1.30626  -0.99033  -0.97436  -0.96899
 Alpha  occ. eigenvalues --   -0.85564  -0.78590  -0.61298  -0.55834  -0.54092
 Alpha  occ. eigenvalues --   -0.51797  -0.49286  -0.41931
 Alpha virt. eigenvalues --    0.03281   0.07286   0.10067   0.16294   0.16411
 Alpha virt. eigenvalues --    0.16990   0.20136   0.23348   0.29818   0.30942
 Alpha virt. eigenvalues --    0.32854

 Mulliken charges:
               1
     1  C   -0.399992
     2  C   -1.302856
     3  O    2.647692
     4  C   -1.339267
     5  C   -0.468051
     6  H    0.264914
     7  H    0.186608
     8  H    0.165686
     9  H    0.245265
 Sum of Mulliken charges =   0.00000

 Dipole moment (field-independent basis, Debye):
    X=             -3.1404    Y=             -9.3903    Z=              0.0023  Tot=              9.9015
 N-N= 1.032828430420D+02 E-N=-1.676739865858D+02  KE=-2.356661467589D+01
 Orbital energies and kinetic energies (alpha):
                                 1                 2
   1         O                -4.617449         -3.832819
   2         O                -1.306255         -1.154858
   3         O                -0.990335         -0.870192
   4         O                -0.974364         -0.903448
   5         O                -0.968988         -0.874584
   6         O                -0.855637         -0.791858
   7         O                -0.785903         -0.630378

 Normal termination of Gaussian 09 at Fri Dec 11 13:41:29 2015.
