 Gaussian 09, Revision D.01,
 Gaussian 09:  ES64L-G09RevD.01 24-Apr-2013

 ------------------------------------------------------------
 #P AM1(Input,print) CIS(Singlets,NStates=15) pop(full) force
 ------------------------------------------------------------

 -----------------
 AM1-Reparam Input
 -----------------
 Symbolic Z-matrix:
 Charge =  0 Multiplicity = 1

                         Standard orientation:
 ---------------------------------------------------------------------
 Center     Atomic      Atomic             Coordinates (Angstroms)
 Number     Number       Type             X           Y           Z
 ---------------------------------------------------------------------
      1          6           0       -0.695082    0.999306   -0.007815
      2          6           0       -1.097835   -0.365665    0.016671
      3          8           0       -0.007775   -1.141947    0.000639
      4          6           0        1.078678   -0.372664   -0.009648
      5          6           0        0.747365    0.946265   -0.004641
      6          1           0        1.357938    1.753186    0.037363
      7          1           0        1.990748   -0.858447    0.020310
      8          1           0       -2.098460   -0.798087   -0.038623
      9          1           0       -1.386778    1.795466    0.008438
 ---------------------------------------------------------------------

 SCF Done:  E(RAM1) =   2.50625150209     A.U. after   13 cycles

 Excitation energies and oscillator strengths:

 Excited State   1:      Singlet-A      5.4124 eV  229.08 nm  f=0.3543  <S**2>=0.000
      13 -> 14         0.69544
 This state for optimization and/or second-order correction.
 Total Energy, E(CIS) =   2.70515249234
 Copying the excited state density for this state as the 1-particle RhoCI density.

 Excited State   2:      Singlet-A      6.6080 eV  187.63 nm  f=0.0072  <S**2>=0.000
      11 -> 16         0.10022
      13 -> 15         0.66006
      13 -> 17         0.21714

 Excited State   3:      Singlet-A      6.8012 eV  182.30 nm  f=0.0001  <S**2>=0.000
      11 -> 15         0.11914
      13 -> 16         0.64989
      13 -> 18        -0.20010
      13 -> 19         0.11148

 Excited State   4:      Singlet-A      6.9246 eV  179.05 nm  f=0.0005  <S**2>=0.000
       9 -> 14         0.14678
      12 -> 14         0.68650

 Excited State   5:      Singlet-A      7.8968 eV  157.00 nm  f=0.0050  <S**2>=0.000
      10 -> 14         0.68667
      11 -> 14        -0.10594

 Excited State   6:      Singlet-A      8.0705 eV  153.63 nm  f=0.0002  <S**2>=0.000
      11 -> 15         0.11042
      13 -> 16         0.13765
      13 -> 18         0.54026
      13 -> 19         0.24270
      13 -> 20         0.19776
      13 -> 21        -0.25362

 Excited State   7:      Singlet-A      8.5786 eV  144.53 nm  f=0.0127  <S**2>=0.000
      11 -> 16        -0.17642
      13 -> 15        -0.17022
      13 -> 17         0.63957
      13 -> 18        -0.10790

 Excited State   8:      Singlet-A      8.6647 eV  143.09 nm  f=0.1127  <S**2>=0.000
      10 -> 14         0.10805
      11 -> 14         0.68535

 Excited State   9:      Singlet-A      9.0789 eV  136.56 nm  f=0.0005  <S**2>=0.000
      11 -> 15        -0.15677
      13 -> 16        -0.13860
      13 -> 18        -0.19657
      13 -> 19         0.63142

 Excited State  10:      Singlet-A      9.5823 eV  129.39 nm  f=0.0147  <S**2>=0.000
       8 -> 15        -0.14577
       9 -> 16         0.16176
       9 -> 18        -0.12533
      10 -> 15         0.31596
      10 -> 17         0.24878
      12 -> 16         0.34716
      12 -> 18        -0.28612
      12 -> 19        -0.11684

 Excited State  11:      Singlet-A      9.6382 eV  128.64 nm  f=0.0030  <S**2>=0.000
       9 -> 14         0.39497
      12 -> 14        -0.11038
      13 -> 18        -0.24279
      13 -> 19        -0.11268
      13 -> 20         0.35659
      13 -> 21        -0.32443

 Excited State  12:      Singlet-A      9.7439 eV  127.24 nm  f=0.0034  <S**2>=0.000
       9 -> 14         0.53992
      12 -> 14        -0.10475
      13 -> 18         0.19728
      13 -> 20        -0.29743
      13 -> 21         0.23107

 Excited State  13:      Singlet-A      9.8358 eV  126.05 nm  f=0.0207  <S**2>=0.000
       9 -> 15        -0.10126
      10 -> 16        -0.20900
      12 -> 15         0.59470
      12 -> 16         0.14073
      12 -> 17         0.15581

 Excited State  14:      Singlet-A      9.8917 eV  125.34 nm  f=0.1526  <S**2>=0.000
       9 -> 16        -0.13032
      10 -> 15        -0.32358
      10 -> 16         0.10016
      10 -> 17        -0.12217
      11 -> 15         0.22819
      12 -> 15        -0.10869
      12 -> 16         0.48610
      12 -> 19         0.12806

 Excited State  15:      Singlet-A      9.9916 eV  124.09 nm  f=0.0250  <S**2>=0.000
      10 -> 15         0.17330
      11 -> 15         0.53888
      11 -> 16        -0.14355
      12 -> 16        -0.15303
      13 -> 16        -0.14859
      13 -> 20        -0.19091
      13 -> 21        -0.11559

 The electronic state is 1-A.
 Alpha  occ. eigenvalues --   -1.74862  -1.15403  -0.95919  -0.81981  -0.76169
 Alpha  occ. eigenvalues --   -0.68175  -0.64891  -0.56118  -0.49786  -0.45356
 Alpha  occ. eigenvalues --   -0.44253  -0.42004  -0.30227
 Alpha virt. eigenvalues --    0.10200   0.17581   0.18064   0.24971   0.26931
 Alpha virt. eigenvalues --    0.28199   0.30298   0.31338   0.41395   0.50157
 Alpha virt. eigenvalues --    0.55519

 Mulliken charges:
               1
     1  C   -0.061451
     2  C   -1.973755
     3  O    3.230320
     4  C   -1.936551
     5  C   -0.040721
     6  H    0.119126
     7  H    0.263293
     8  H    0.276991
     9  H    0.122750
 Sum of Mulliken charges =   0.00000

 Dipole moment (field-independent basis, Debye):
    X=              0.0141    Y=             -9.8182    Z=             -0.0569  Tot=              9.8183
 N-N= 1.038973623531D+02 E-N=-1.688177151266D+02  KE=-1.506159278056D+01
 Orbital energies and kinetic energies (alpha):
                                 1                 2
   1         O                -1.748622         -1.253313
   2         O                -1.154035         -1.012610
   3         O                -0.959191         -0.859999
   4         O                -0.819809         -0.628735
   5         O                -0.761691         -0.687458
   6         O                -0.681750         -0.580855
   7         O                -0.648914         -0.517853

 Normal termination of Gaussian 09 at Tue Dec 15 17:06:26 2015.
