 Gaussian 09, Revision D.01,
 Gaussian 09:  ES64L-G09RevD.01 24-Apr-2013

 ------------------------------------------------------------
 #P AM1(Input,print) CIS(Singlets,NStates=15) pop(full) force
 ------------------------------------------------------------

 -----------------
 AM1-Reparam Input
 -----------------
 Symbolic Z-matrix:
 Charge =  0 Multiplicity = 1

                         Standard orientation:
 ---------------------------------------------------------------------
 Center     Atomic      Atomic             Coordinates (Angstroms)
 Number     Number       Type             X           Y           Z
 ---------------------------------------------------------------------
      1          6           0       -1.113238    0.442806   -0.004783
      2          6           0       -0.750595   -0.836111    0.021280
      3          8           0        0.627596   -1.017490   -0.014962
      4          6           0        1.104850    0.268298    0.003039
      5          6           0        0.107970    1.210609   -0.013149
      6          1           0        0.178041    2.208215    0.024157
      7          1           0        2.205136    0.340432    0.057520
      8          1           0       -1.369346   -1.803414   -0.005826
      9          1           0       -2.128520    0.881079    0.005513
 ---------------------------------------------------------------------

 SCF Done:  E(RAM1) =   2.84078668265     A.U. after   13 cycles

 Excitation energies and oscillator strengths:

 Excited State   1:      Singlet-A      5.2535 eV  236.00 nm  f=0.3467  <S**2>=0.000
      13 -> 14         0.69654
 This state for optimization and/or second-order correction.
 Total Energy, E(CIS) =   3.03384886275
 Copying the excited state density for this state as the 1-particle RhoCI density.

 Excited State   2:      Singlet-A      6.1871 eV  200.39 nm  f=0.0001  <S**2>=0.000
      11 -> 15         0.12612
      13 -> 15         0.63468
      13 -> 16        -0.19952
      13 -> 18         0.18197

 Excited State   3:      Singlet-A      6.3130 eV  196.39 nm  f=0.0016  <S**2>=0.000
      11 -> 16        -0.12319
      13 -> 15         0.20962
      13 -> 16         0.62467
      13 -> 17        -0.18579

 Excited State   4:      Singlet-A      6.7055 eV  184.90 nm  f=0.0007  <S**2>=0.000
      12 -> 14         0.69693

 Excited State   5:      Singlet-A      7.6685 eV  161.68 nm  f=0.0006  <S**2>=0.000
      13 -> 16         0.15435
      13 -> 17         0.24932
      13 -> 18         0.49640
      13 -> 20         0.23759
      13 -> 21        -0.28664

 Excited State   6:      Singlet-A      7.7777 eV  159.41 nm  f=0.0256  <S**2>=0.000
      10 -> 14        -0.33077
      13 -> 15         0.11694
      13 -> 17         0.53726
      13 -> 18        -0.24532

 Excited State   7:      Singlet-A      7.9627 eV  155.71 nm  f=0.0008  <S**2>=0.000
      10 -> 14         0.61271
      13 -> 17         0.31381

 Excited State   8:      Singlet-A      8.5214 eV  145.50 nm  f=0.0050  <S**2>=0.000
      11 -> 14        -0.14673
      13 -> 18        -0.21715
      13 -> 19         0.53326
      13 -> 20         0.31801
      13 -> 21        -0.16252

 Excited State   9:      Singlet-A      8.5412 eV  145.16 nm  f=0.0742  <S**2>=0.000
      11 -> 14         0.65089
      12 -> 15        -0.14020
      13 -> 19         0.11258

 Excited State  10:      Singlet-A      8.9751 eV  138.14 nm  f=0.0212  <S**2>=0.000
      13 -> 18         0.29855
      13 -> 19         0.41256
      13 -> 20        -0.29557
      13 -> 21         0.36276

 Excited State  11:      Singlet-A      9.1085 eV  136.12 nm  f=0.1580  <S**2>=0.000
       8 -> 15        -0.15879
       8 -> 16        -0.11074
      10 -> 17         0.15397
      11 -> 14         0.11110
      12 -> 15         0.44637
      12 -> 16        -0.33407
      12 -> 18         0.23149

 Excited State  12:      Singlet-A      9.4461 eV  131.25 nm  f=0.0671  <S**2>=0.000
      13 -> 19        -0.11546
      13 -> 20         0.47804
      13 -> 21         0.48232

 Excited State  13:      Singlet-A      9.6107 eV  129.01 nm  f=0.0623  <S**2>=0.000
       8 -> 16         0.12341
      10 -> 15         0.12591
      11 -> 14         0.13386
      12 -> 15         0.44059
      12 -> 16         0.40254
      12 -> 17        -0.11814
      12 -> 20        -0.10330

 Excited State  14:      Singlet-A      9.7169 eV  127.60 nm  f=0.0028  <S**2>=0.000
      11 -> 15         0.49688
      11 -> 16         0.39640
      11 -> 17        -0.11138
      12 -> 16         0.10250
      13 -> 15        -0.10962
      13 -> 16         0.10748
      13 -> 21        -0.10583

 Excited State  15:      Singlet-A      9.8221 eV  126.23 nm  f=0.0034  <S**2>=0.000
       7 -> 15         0.10113
       7 -> 16         0.10156
      11 -> 15        -0.40672
      11 -> 16         0.50852
      13 -> 15         0.11041
      13 -> 16         0.11629

 The electronic state is 1-A.
 Alpha  occ. eigenvalues --   -1.69888  -1.11534  -0.90090  -0.78336  -0.74246
 Alpha  occ. eigenvalues --   -0.65951  -0.62349  -0.51460  -0.49401  -0.43061
 Alpha  occ. eigenvalues --   -0.41782  -0.38995  -0.27038
 Alpha virt. eigenvalues --    0.12647   0.17826   0.18572   0.26260   0.28121
 Alpha virt. eigenvalues --    0.29484   0.31524   0.32288   0.36219   0.45927
 Alpha virt. eigenvalues --    0.48744

 Mulliken charges:
               1
     1  C   -0.107544
     2  C   -1.917687
     3  O    3.194078
     4  C   -1.932800
     5  C   -0.157682
     6  H    0.171095
     7  H    0.290009
     8  H    0.293407
     9  H    0.167124
 Sum of Mulliken charges =   0.00000

 Dipole moment (field-independent basis, Debye):
    X=              5.6095    Y=             -9.7913    Z=             -0.2747  Tot=             11.2877
 N-N= 1.035277605898D+02 E-N=-1.685598216985D+02  KE=-1.473152670989D+01
 Orbital energies and kinetic energies (alpha):
                                 1                 2
   1         O                -1.698883         -1.185428
   2         O                -1.115337         -1.001415
   3         O                -0.900902         -0.844182
   4         O                -0.783355         -0.591779
   5         O                -0.742464         -0.661057
   6         O                -0.659509         -0.579131
   7         O                -0.623488         -0.520254

 Normal termination of Gaussian 09 at Tue Dec 15 17:05:59 2015.
