 Gaussian 09, Revision D.01,
 Gaussian 09:  ES64L-G09RevD.01 24-Apr-2013

 ------------------------------------------------------------
 #P AM1(Input,print) CIS(Singlets,NStates=15) pop(full) force
 ------------------------------------------------------------

 -----------------
 AM1-Reparam Input
 -----------------
 Symbolic Z-matrix:
 Charge =  0 Multiplicity = 1

                         Standard orientation:
 ---------------------------------------------------------------------
 Center     Atomic      Atomic             Coordinates (Angstroms)
 Number     Number       Type             X           Y           Z
 ---------------------------------------------------------------------
      1          6           0       -0.885270    0.787392    0.015701
      2          6           0       -1.065905   -0.472591   -0.015346
      3          8           0        0.213108   -1.146504    0.022311
      4          6           0        1.169657   -0.156108   -0.021829
      5          6           0        0.536669    1.068398   -0.009674
      6          1           0        1.077165    1.969415    0.057703
      7          1           0        2.133243   -0.528447   -0.004625
      8          1           0       -1.874166   -1.175156   -0.029939
      9          1           0       -1.572016    1.543671   -0.014736
 ---------------------------------------------------------------------

 SCF Done:  E(RAM1) =  -4.71787784023     A.U. after   13 cycles

 Excitation energies and oscillator strengths:

 Excited State   1:      Singlet-A      6.4914 eV  191.00 nm  f=0.3715  <S**2>=0.000
      13 -> 14         0.69297
 This state for optimization and/or second-order correction.
 Total Energy, E(CIS) =  -4.47932265732
 Copying the excited state density for this state as the 1-particle RhoCI density.

 Excited State   2:      Singlet-A      7.8067 eV  158.82 nm  f=0.0011  <S**2>=0.000
      12 -> 14         0.68450
      13 -> 15        -0.12754

 Excited State   3:      Singlet-A      8.0664 eV  153.71 nm  f=0.0027  <S**2>=0.000
      12 -> 14         0.13192
      13 -> 15         0.61115
      13 -> 16         0.23855
      13 -> 18         0.16677
      13 -> 21        -0.10695

 Excited State   4:      Singlet-A      8.2767 eV  149.80 nm  f=0.0027  <S**2>=0.000
      13 -> 15        -0.23921
      13 -> 16         0.63439
      13 -> 21         0.10940

 Excited State   5:      Singlet-A      8.6201 eV  143.83 nm  f=0.0061  <S**2>=0.000
      11 -> 14         0.69401

 Excited State   6:      Singlet-A      9.4612 eV  131.04 nm  f=0.0427  <S**2>=0.000
      10 -> 14         0.25795
      13 -> 17         0.64855

 Excited State   7:      Singlet-A     10.1867 eV  121.71 nm  f=0.0161  <S**2>=0.000
      10 -> 15         0.12565
      13 -> 15        -0.12159
      13 -> 16        -0.13154
      13 -> 18         0.66584

 Excited State   8:      Singlet-A     10.3469 eV  119.83 nm  f=0.0013  <S**2>=0.000
      13 -> 15        -0.11461
      13 -> 19        -0.36056
      13 -> 20         0.43152
      13 -> 21        -0.30455
      13 -> 22         0.23268

 Excited State   9:      Singlet-A     10.6674 eV  116.23 nm  f=0.1571  <S**2>=0.000
      10 -> 14         0.58738
      12 -> 15         0.13774
      12 -> 16        -0.11223
      12 -> 18         0.11263
      13 -> 17        -0.23284
      13 -> 19        -0.10742

 Excited State  10:      Singlet-A     10.7286 eV  115.56 nm  f=0.0164  <S**2>=0.000
      10 -> 14         0.10104
      13 -> 19         0.47049
      13 -> 20         0.47292
      13 -> 23        -0.10227

 Excited State  11:      Singlet-A     11.0663 eV  112.04 nm  f=0.0065  <S**2>=0.000
       9 -> 14         0.59324
      12 -> 15         0.10400
      13 -> 19         0.18692
      13 -> 21        -0.22880

 Excited State  12:      Singlet-A     11.3395 eV  109.34 nm  f=0.2166  <S**2>=0.000
       8 -> 16         0.11132
      10 -> 14        -0.19979
      11 -> 15        -0.10084
      12 -> 15         0.44086
      12 -> 16        -0.37281
      12 -> 21        -0.14169
      13 -> 21         0.12161

 Excited State  13:      Singlet-A     11.4062 eV  108.70 nm  f=0.0115  <S**2>=0.000
       9 -> 14         0.30315
      13 -> 19        -0.26148
      13 -> 20         0.21164
      13 -> 21         0.50395

 Excited State  14:      Singlet-A     11.6825 eV  106.13 nm  f=0.0078  <S**2>=0.000
      11 -> 15        -0.30418
      11 -> 20        -0.11798
      11 -> 21         0.10676
      12 -> 15         0.25788
      12 -> 16         0.49728
      12 -> 18         0.15624

 Excited State  15:      Singlet-A     11.8851 eV  104.32 nm  f=0.1356  <S**2>=0.000
      11 -> 15         0.42639
      11 -> 16         0.35983
      11 -> 18         0.27344
      11 -> 20        -0.10903
      12 -> 19        -0.14374
      12 -> 20         0.10336

 The electronic state is 1-A.
 Alpha  occ. eigenvalues --   -3.92400  -1.18449  -0.92004  -0.85815  -0.83205
 Alpha  occ. eigenvalues --   -0.79316  -0.74111  -0.61152  -0.55263  -0.52582
 Alpha  occ. eigenvalues --   -0.49035  -0.47102  -0.35062
 Alpha virt. eigenvalues --    0.10087   0.18191   0.18432   0.22039   0.26528
 Alpha virt. eigenvalues --    0.29142   0.29309   0.33104   0.36673   0.38458
 Alpha virt. eigenvalues --    0.40339

 Mulliken charges:
               1
     1  C   -0.238737
     2  C   -1.482750
     3  O    2.770918
     4  C   -1.529260
     5  C   -0.382146
     6  H    0.212285
     7  H    0.226131
     8  H    0.219282
     9  H    0.204278
 Sum of Mulliken charges =   0.00000

 Dipole moment (field-independent basis, Debye):
    X=              1.6423    Y=            -10.7385    Z=              0.5290  Tot=             10.8762
 N-N= 1.047210310426D+02 E-N=-1.726788557531D+02  KE=-2.168902439226D+01
 Orbital energies and kinetic energies (alpha):
                                 1                 2
   1         O                -3.923996         -3.230981
   2         O                -1.184491         -1.043950
   3         O                -0.920043         -0.709129
   4         O                -0.858155         -0.783637
   5         O                -0.832055         -0.729006
   6         O                -0.793161         -0.825517
   7         O                -0.741111         -0.667471

 Normal termination of Gaussian 09 at Fri Dec 11 13:41:37 2015.
