 Gaussian 09, Revision D.01,
 Gaussian 09:  ES64L-G09RevD.01 24-Apr-2013

 ------------------------------------------------------------
 #P AM1(Input,print) CIS(Singlets,NStates=15) pop(full) force
 ------------------------------------------------------------

 -----------------
 AM1-Reparam Input
 -----------------
 Symbolic Z-matrix:
 Charge =  0 Multiplicity = 1

                         Standard orientation:
 ---------------------------------------------------------------------
 Center     Atomic      Atomic             Coordinates (Angstroms)
 Number     Number       Type             X           Y           Z
 ---------------------------------------------------------------------
      1          6           0       -0.923480    0.800700    0.007144
      2          6           0       -1.009410   -0.554554   -0.002617
      3          8           0        0.229269   -1.121560    0.003120
      4          6           0        1.170285   -0.149929    0.002709
      5          6           0        0.523621    1.086046   -0.008737
      6          1           0        0.971874    2.054273    0.038401
      7          1           0        2.139677   -0.461506   -0.026468
      8          1           0       -1.856605   -1.193391    0.002057
      9          1           0       -1.655201    1.479529   -0.029949
 ---------------------------------------------------------------------

 SCF Done:  E(RAM1) =   2.81862367072     A.U. after   13 cycles

 Excitation energies and oscillator strengths:

 Excited State   1:      Singlet-A      5.1652 eV  240.04 nm  f=0.3586  <S**2>=0.000
      13 -> 14         0.69679
 This state for optimization and/or second-order correction.
 Total Energy, E(CIS) =   3.00844187928
 Copying the excited state density for this state as the 1-particle RhoCI density.

 Excited State   2:      Singlet-A      6.5684 eV  188.76 nm  f=0.0001  <S**2>=0.000
       9 -> 14        -0.12658
      12 -> 14         0.68646

 Excited State   3:      Singlet-A      6.5798 eV  188.43 nm  f=0.0061  <S**2>=0.000
      13 -> 15         0.63996
      13 -> 17         0.20418
      13 -> 18         0.16202

 Excited State   4:      Singlet-A      6.7070 eV  184.86 nm  f=0.0035  <S**2>=0.000
      13 -> 16         0.61185
      13 -> 17         0.13870
      13 -> 18        -0.26579

 Excited State   5:      Singlet-A      7.6565 eV  161.93 nm  f=0.0013  <S**2>=0.000
      11 -> 15        -0.11216
      13 -> 15        -0.13886
      13 -> 16         0.18822
      13 -> 17         0.17035
      13 -> 18         0.38216
      13 -> 19         0.42190
      13 -> 20        -0.22826
      13 -> 21        -0.13752

 Excited State   6:      Singlet-A      7.8656 eV  157.63 nm  f=0.0066  <S**2>=0.000
      10 -> 14         0.68975

 Excited State   7:      Singlet-A      8.2179 eV  150.87 nm  f=0.0148  <S**2>=0.000
      10 -> 14        -0.12665
      11 -> 16         0.13701
      13 -> 15        -0.16345
      13 -> 16        -0.13902
      13 -> 17         0.61860
      13 -> 19        -0.11564
      13 -> 20         0.10130

 Excited State   8:      Singlet-A      8.4831 eV  146.15 nm  f=0.1240  <S**2>=0.000
      11 -> 14         0.69231

 Excited State   9:      Singlet-A      8.6483 eV  143.36 nm  f=0.0001  <S**2>=0.000
      13 -> 16        -0.16600
      13 -> 18        -0.43146
      13 -> 19         0.50489

 Excited State  10:      Singlet-A      9.1305 eV  135.79 nm  f=0.0143  <S**2>=0.000
      13 -> 18         0.21266
      13 -> 19         0.21181
      13 -> 20         0.59637
      13 -> 21         0.21099

 Excited State  11:      Singlet-A      9.4265 eV  131.53 nm  f=0.0543  <S**2>=0.000
       8 -> 15         0.10148
       9 -> 18         0.14303
      10 -> 15         0.11229
      10 -> 17         0.19989
      12 -> 15        -0.26901
      12 -> 16         0.33544
      12 -> 18        -0.31350
      12 -> 19        -0.21722
      13 -> 21        -0.14270

 Excited State  12:      Singlet-A      9.5274 eV  130.13 nm  f=0.0723  <S**2>=0.000
      13 -> 20        -0.24346
      13 -> 21         0.62610

 Excited State  13:      Singlet-A      9.6955 eV  127.88 nm  f=0.0015  <S**2>=0.000
       9 -> 14         0.67930
      12 -> 14         0.12476

 Excited State  14:      Singlet-A      9.8164 eV  126.30 nm  f=0.0206  <S**2>=0.000
      10 -> 16        -0.16024
      10 -> 18         0.10059
      12 -> 15         0.49516
      12 -> 16         0.36672
      12 -> 17         0.19225

 Excited State  15:      Singlet-A     10.0067 eV  123.90 nm  f=0.1560  <S**2>=0.000
       9 -> 16         0.14846
      10 -> 15        -0.29233
      10 -> 16        -0.15131
      10 -> 17        -0.20407
      12 -> 15        -0.27563
      12 -> 16         0.35817
      12 -> 17         0.10790
      12 -> 19         0.27890

 The electronic state is 1-A.
 Alpha  occ. eigenvalues --   -1.71819  -1.10730  -0.93112  -0.80039  -0.75792
 Alpha  occ. eigenvalues --   -0.67111  -0.63326  -0.55150  -0.49820  -0.45239
 Alpha  occ. eigenvalues --   -0.43643  -0.40654  -0.28897
 Alpha virt. eigenvalues --    0.10088   0.18655   0.19497   0.24796   0.26382
 Alpha virt. eigenvalues --    0.28189   0.28935   0.30139   0.37338   0.45922
 Alpha virt. eigenvalues --    0.50642

 Mulliken charges:
               1
     1  C   -0.118151
     2  C   -1.960449
     3  O    3.220454
     4  C   -1.958625
     5  C   -0.150069
     6  H    0.182738
     7  H    0.296824
     8  H    0.309104
     9  H    0.178174
 Sum of Mulliken charges =   0.00000

 Dipole moment (field-independent basis, Debye):
    X=              1.6790    Y=             -9.8946    Z=              0.0047  Tot=             10.0360
 N-N= 1.038465040690D+02 E-N=-1.687677660327D+02  KE=-1.478134810908D+01
 Orbital energies and kinetic energies (alpha):
                                 1                 2
   1         O                -1.718194         -1.209312
   2         O                -1.107299         -0.978896
   3         O                -0.931120         -0.841959
   4         O                -0.800394         -0.613192
   5         O                -0.757924         -0.686452
   6         O                -0.671106         -0.573425
   7         O                -0.633261         -0.512850

 Normal termination of Gaussian 09 at Tue Dec 15 17:05:55 2015.
