 Gaussian 09, Revision D.01,
 Gaussian 09:  ES64L-G09RevD.01 24-Apr-2013

 ------------------------------------------------------------
 #P AM1(Input,print) CIS(Singlets,NStates=15) pop(full) force
 ------------------------------------------------------------

 -----------------
 AM1-Reparam Input
 -----------------
 Symbolic Z-matrix:
 Charge =  0 Multiplicity = 1

                         Standard orientation:
 ---------------------------------------------------------------------
 Center     Atomic      Atomic             Coordinates (Angstroms)
 Number     Number       Type             X           Y           Z
 ---------------------------------------------------------------------
      1          6           0        0.910887    0.802540   -0.001698
      2          6           0        0.997376   -0.549908    0.016192
      3          8           0       -0.229411   -1.131440    0.005287
      4          6           0       -1.140191   -0.141281   -0.031029
      5          6           0       -0.524155    1.083897    0.002240
      6          1           0       -0.998771    2.070282    0.039637
      7          1           0       -2.167242   -0.445418    0.063473
      8          1           0        1.798177   -1.214087   -0.038172
      9          1           0        1.739618    1.469259   -0.021473
 ---------------------------------------------------------------------

 SCF Done:  E(RAM1) =   1.72490361209     A.U. after   13 cycles

 Excitation energies and oscillator strengths:

 Excited State   1:      Singlet-A      5.3541 eV  231.57 nm  f=0.3703  <S**2>=0.000
      13 -> 14         0.69513
 This state for optimization and/or second-order correction.
 Total Energy, E(CIS) =   1.92166332773
 Copying the excited state density for this state as the 1-particle RhoCI density.

 Excited State   2:      Singlet-A      7.0193 eV  176.63 nm  f=0.0002  <S**2>=0.000
      12 -> 14         0.70125

 Excited State   3:      Singlet-A      7.1661 eV  173.02 nm  f=0.0013  <S**2>=0.000
      13 -> 15         0.65672
      13 -> 16        -0.11762
      13 -> 18         0.15212
      13 -> 19        -0.10645

 Excited State   4:      Singlet-A      7.2314 eV  171.45 nm  f=0.0045  <S**2>=0.000
      13 -> 15         0.12567
      13 -> 16         0.65823
      13 -> 17        -0.15217

 Excited State   5:      Singlet-A      8.0028 eV  154.93 nm  f=0.0082  <S**2>=0.000
      11 -> 14         0.70057

 Excited State   6:      Singlet-A      8.7785 eV  141.24 nm  f=0.0001  <S**2>=0.000
      13 -> 15        -0.10782
      13 -> 16         0.10690
      13 -> 17         0.10692
      13 -> 18         0.61440
      13 -> 22        -0.26697

 Excited State   7:      Singlet-A      9.2010 eV  134.75 nm  f=0.0121  <S**2>=0.000
      13 -> 15         0.10848
      13 -> 17         0.66632
      13 -> 18        -0.10433

 Excited State   8:      Singlet-A      9.3502 eV  132.60 nm  f=0.1059  <S**2>=0.000
      10 -> 14         0.68245

 Excited State   9:      Singlet-A      9.7223 eV  127.53 nm  f=0.0006  <S**2>=0.000
      13 -> 19         0.68610

 Excited State  10:      Singlet-A      9.9775 eV  124.26 nm  f=0.0264  <S**2>=0.000
       8 -> 16         0.11017
      11 -> 15        -0.12048
      11 -> 16        -0.13288
      11 -> 17         0.21915
      12 -> 15         0.36026
      12 -> 16        -0.31877
      12 -> 18         0.33108

 Excited State  11:      Singlet-A     10.5125 eV  117.94 nm  f=0.0556  <S**2>=0.000
      11 -> 15         0.18217
      12 -> 15         0.39348
      12 -> 16         0.20762
      12 -> 17        -0.11176
      13 -> 18         0.16340
      13 -> 20        -0.29871
      13 -> 22         0.31925

 Excited State  12:      Singlet-A     10.5240 eV  117.81 nm  f=0.0520  <S**2>=0.000
      11 -> 15        -0.17220
      12 -> 15        -0.34289
      12 -> 16        -0.20677
      13 -> 18         0.16824
      13 -> 20        -0.34365
      13 -> 22         0.34506

 Excited State  13:      Singlet-A     10.6608 eV  116.30 nm  f=0.2286  <S**2>=0.000
      11 -> 15        -0.13226
      11 -> 16        -0.36485
      11 -> 17         0.19739
      12 -> 15        -0.11079
      12 -> 16         0.45054
      12 -> 18         0.16929
      12 -> 19         0.13978

 Excited State  14:      Singlet-A     10.7056 eV  115.81 nm  f=0.0653  <S**2>=0.000
      13 -> 18         0.13733
      13 -> 20         0.50889
      13 -> 22         0.43957

 Excited State  15:      Singlet-A     11.0662 eV  112.04 nm  f=0.0548  <S**2>=0.000
       8 -> 15         0.14450
       8 -> 16        -0.14367
       9 -> 14         0.17191
       9 -> 15         0.12205
       9 -> 16         0.14587
      10 -> 14        -0.11544
      11 -> 15        -0.26364
      11 -> 16         0.28176
      11 -> 19         0.26810
      12 -> 16         0.11702
      12 -> 17         0.23355
      13 -> 21         0.17753

 The electronic state is 1-A.
 Alpha  occ. eigenvalues --   -1.91349  -1.16496  -0.92777  -0.82602  -0.78235
 Alpha  occ. eigenvalues --   -0.70127  -0.67705  -0.56648  -0.55360  -0.47257
 Alpha  occ. eigenvalues --   -0.45374  -0.42218  -0.30217
 Alpha virt. eigenvalues --    0.10167   0.18800   0.19424   0.27396   0.28429
 Alpha virt. eigenvalues --    0.30126   0.32514   0.34431   0.34848   0.43036
 Alpha virt. eigenvalues --    0.46855

 Mulliken charges:
               1
     1  C   -0.155939
     2  C   -2.014769
     3  O    3.293501
     4  C   -2.022090
     5  C   -0.175246
     6  H    0.207908
     7  H    0.333221
     8  H    0.327226
     9  H    0.206188
 Sum of Mulliken charges =   0.00000

 Dipole moment (field-independent basis, Debye):
    X=             -2.0976    Y=            -10.4624    Z=              0.2746  Tot=             10.6742
 N-N= 1.038074490250D+02 E-N=-1.691449756034D+02  KE=-1.549283103129D+01
 Orbital energies and kinetic energies (alpha):
                                 1                 2
   1         O                -1.913485         -1.376753
   2         O                -1.164956         -1.042147
   3         O                -0.927770         -0.882050
   4         O                -0.826017         -0.581390
   5         O                -0.782355         -0.697452
   6         O                -0.701265         -0.580970
   7         O                -0.677053         -0.533684

 Normal termination of Gaussian 09 at Tue Dec 15 17:09:44 2015.
