 Gaussian 09, Revision D.01,
 Gaussian 09:  ES64L-G09RevD.01 24-Apr-2013

 ------------------------------------------------------------
 #P AM1(Input,print) CIS(Singlets,NStates=15) pop(full) force
 ------------------------------------------------------------

 -----------------
 AM1-Reparam Input
 -----------------
 Symbolic Z-matrix:
 Charge =  0 Multiplicity = 1

                         Standard orientation:
 ---------------------------------------------------------------------
 Center     Atomic      Atomic             Coordinates (Angstroms)
 Number     Number       Type             X           Y           Z
 ---------------------------------------------------------------------
      1          6           0       -0.873396    0.885094    0.037995
      2          6           0       -1.056651   -0.514862   -0.031016
      3          8           0        0.187870   -1.157394    0.029963
      4          6           0        1.139993   -0.180627   -0.018536
      5          6           0        0.583327    1.030721   -0.014062
      6          1           0        1.102784    1.990162    0.006108
      7          1           0        2.125937   -0.480355   -0.009790
      8          1           0       -1.858154   -1.182478   -0.058149
      9          1           0       -1.633164    1.609865   -0.024166
 ---------------------------------------------------------------------

 SCF Done:  E(RAM1) =   1.70188780357     A.U. after   13 cycles

 Excitation energies and oscillator strengths:

 Excited State   1:      Singlet-A      5.2531 eV  236.02 nm  f=0.3484  <S**2>=0.000
      13 -> 14         0.69486
 This state for optimization and/or second-order correction.
 Total Energy, E(CIS) =   1.89493649898
 Copying the excited state density for this state as the 1-particle RhoCI density.

 Excited State   2:      Singlet-A      6.3817 eV  194.28 nm  f=0.0055  <S**2>=0.000
      13 -> 15         0.64832
      13 -> 17         0.21276

 Excited State   3:      Singlet-A      6.5951 eV  187.99 nm  f=0.0017  <S**2>=0.000
      13 -> 16         0.59703
      13 -> 17         0.18002
      13 -> 19         0.28162

 Excited State   4:      Singlet-A      6.9611 eV  178.11 nm  f=0.0021  <S**2>=0.000
      12 -> 14         0.67478
      13 -> 18        -0.10061

 Excited State   5:      Singlet-A      7.3773 eV  168.06 nm  f=0.0008  <S**2>=0.000
      12 -> 14        -0.16221
      13 -> 16        -0.22380
      13 -> 17         0.13057
      13 -> 18        -0.25729
      13 -> 19         0.35666
      13 -> 20         0.33828
      13 -> 21         0.28314

 Excited State   6:      Singlet-A      7.7524 eV  159.93 nm  f=0.0197  <S**2>=0.000
      10 -> 14         0.10455
      11 -> 16         0.10143
      13 -> 15        -0.18917
      13 -> 16        -0.12315
      13 -> 17         0.61805
      13 -> 19        -0.15075

 Excited State   7:      Singlet-A      8.1840 eV  151.50 nm  f=0.0006  <S**2>=0.000
      10 -> 14         0.68418
      13 -> 17        -0.10954

 Excited State   8:      Singlet-A      8.3310 eV  148.82 nm  f=0.0002  <S**2>=0.000
      13 -> 16        -0.15690
      13 -> 18         0.51124
      13 -> 19         0.40248
      13 -> 21        -0.10268

 Excited State   9:      Singlet-A      8.5230 eV  145.47 nm  f=0.0387  <S**2>=0.000
      11 -> 14         0.39449
      13 -> 18        -0.30707
      13 -> 19         0.23354
      13 -> 20        -0.32004
      13 -> 21        -0.26581

 Excited State  10:      Singlet-A      8.5571 eV  144.89 nm  f=0.0759  <S**2>=0.000
      11 -> 14         0.55685
      13 -> 18         0.23605
      13 -> 19        -0.15989
      13 -> 20         0.21570
      13 -> 21         0.19683

 Excited State  11:      Singlet-A      8.9569 eV  138.42 nm  f=0.0773  <S**2>=0.000
      10 -> 14         0.10125
      13 -> 20        -0.44624
      13 -> 21         0.52297

 Excited State  12:      Singlet-A      9.5008 eV  130.50 nm  f=0.0522  <S**2>=0.000
       8 -> 15         0.12579
       9 -> 19         0.11486
      10 -> 15        -0.17230
      10 -> 17        -0.23824
      12 -> 15        -0.18925
      12 -> 16         0.34595
      12 -> 17         0.15756
      12 -> 19         0.23031
      12 -> 20         0.21026
      12 -> 21         0.19873

 Excited State  13:      Singlet-A      9.8068 eV  126.43 nm  f=0.0154  <S**2>=0.000
      11 -> 15         0.46043
      11 -> 16         0.23488
      11 -> 17         0.14022
      12 -> 15        -0.35254
      13 -> 16         0.12776

 Excited State  14:      Singlet-A      9.9315 eV  124.84 nm  f=0.0514  <S**2>=0.000
      10 -> 15        -0.13651
      11 -> 15         0.33663
      11 -> 16         0.13441
      12 -> 15         0.47409
      12 -> 17         0.13093
      12 -> 18        -0.11625
      12 -> 21         0.12657

 Excited State  15:      Singlet-A     10.1314 eV  122.38 nm  f=0.1692  <S**2>=0.000
       8 -> 16        -0.13897
      10 -> 15        -0.10156
      10 -> 20        -0.10447
      11 -> 15        -0.21296
      11 -> 16         0.33808
      12 -> 16        -0.30067
      12 -> 17         0.21704
      12 -> 19        -0.11667
      12 -> 20         0.19897

 The electronic state is 1-A.
 Alpha  occ. eigenvalues --   -1.90268  -1.20470  -0.99492  -0.81996  -0.80871
 Alpha  occ. eigenvalues --   -0.68962  -0.62250  -0.54330  -0.52068  -0.44339
 Alpha  occ. eigenvalues --   -0.42044  -0.40548  -0.27426
 Alpha virt. eigenvalues --    0.12130   0.18843   0.20088   0.25134   0.27201
 Alpha virt. eigenvalues --    0.28359   0.28622   0.29601   0.35112   0.44131
 Alpha virt. eigenvalues --    0.48718

 Mulliken charges:
               1
     1  C   -0.125571
     2  C   -1.937189
     3  O    3.182368
     4  C   -1.924999
     5  C   -0.134034
     6  H    0.175021
     7  H    0.302137
     8  H    0.280810
     9  H    0.181457
 Sum of Mulliken charges =   0.00000

 Dipole moment (field-independent basis, Debye):
    X=              2.1741    Y=            -10.3686    Z=              0.6660  Tot=             10.6150
 N-N= 1.034279431869D+02 E-N=-1.684498767971D+02  KE=-1.570093054405D+01
 Orbital energies and kinetic energies (alpha):
                                 1                 2
   1         O                -1.902678         -1.354880
   2         O                -1.204698         -1.089610
   3         O                -0.994918         -0.914659
   4         O                -0.819959         -0.647917
   5         O                -0.808707         -0.701851
   6         O                -0.689625         -0.582775
   7         O                -0.622503         -0.502402

 Normal termination of Gaussian 09 at Tue Dec 15 17:07:06 2015.
