 Gaussian 09, Revision D.01,
 Gaussian 09:  ES64L-G09RevD.01 24-Apr-2013

 -------------------------------------------------------
 #P B3LYP/3-21G CIS(Singlets,NStates=15) pop(full) force
 -------------------------------------------------------

 --------
 FuranDFT
 --------
 Symbolic Z-matrix:
 Charge =  0 Multiplicity = 1

                         Standard orientation:
 ---------------------------------------------------------------------
 Center     Atomic      Atomic             Coordinates (Angstroms)
 Number     Number       Type             X           Y           Z
 ---------------------------------------------------------------------
      1          6           0        0.924730    0.802116   -0.001519
      2          6           0        0.978904   -0.505533   -0.017753
      3          8           0       -0.216221   -1.150469    0.005277
      4          6           0       -1.100722   -0.163239    0.001189
      5          6           0       -0.573084    1.091656    0.000874
      6          1           0       -1.070051    1.991082   -0.016060
      7          1           0       -2.123968   -0.465702    0.005121
      8          1           0        1.856634   -1.238558    0.028856
      9          1           0        1.688186    1.566931    0.043121
 ---------------------------------------------------------------------

 SCF Done:  E(RB3LYP) =  -228.732076604     A.U. after   14 cycles

 Excitation energies and oscillator strengths:

 Excited State   1:      Singlet-A      7.3354 eV  169.02 nm  f=0.0168  <S**2>=0.000
      17 -> 19         0.44891
      18 -> 19        -0.22684
      18 -> 20         0.48743
 This state for optimization and/or second-order correction.
 Total Energy, E(CIS) =  -228.462505181
 Copying the excited state density for this state as the 1-particle RhoCI density.

 Excited State   2:      Singlet-A      7.5789 eV  163.59 nm  f=0.1784  <S**2>=0.000
      17 -> 19         0.22378
      18 -> 19         0.64256
      18 -> 20         0.10310

 Excited State   3:      Singlet-A      8.6908 eV  142.66 nm  f=0.0007  <S**2>=0.000
      18 -> 21         0.69167

 Excited State   4:      Singlet-A      9.0660 eV  136.76 nm  f=0.1042  <S**2>=0.000
      17 -> 19         0.16119
      17 -> 20         0.62365
      18 -> 20        -0.19684

 Excited State   5:      Singlet-A      9.2756 eV  133.67 nm  f=0.0059  <S**2>=0.000
      16 -> 19         0.68127
      18 -> 23        -0.11879

 Excited State   6:      Singlet-A      9.5394 eV  129.97 nm  f=0.0044  <S**2>=0.000
      15 -> 19         0.10364
      16 -> 19        -0.10207
      17 -> 21         0.29844
      18 -> 22         0.44185
      18 -> 23        -0.41294

 Excited State   7:      Singlet-A      9.6617 eV  128.33 nm  f=0.0066  <S**2>=0.000
      17 -> 21        -0.34837
      18 -> 21         0.10760
      18 -> 22         0.50035
      18 -> 23         0.30573

 Excited State   8:      Singlet-A      9.7323 eV  127.39 nm  f=0.0017  <S**2>=0.000
      17 -> 21         0.51606
      18 -> 23         0.43504

 Excited State   9:      Singlet-A     10.0129 eV  123.82 nm  f=0.0205  <S**2>=0.000
      15 -> 19         0.66854
      18 -> 23         0.10261

 Excited State  10:      Singlet-A     10.0374 eV  123.52 nm  f=0.5228  <S**2>=0.000
      15 -> 19        -0.13392
      16 -> 26        -0.10523
      17 -> 19         0.40463
      17 -> 20        -0.24449
      17 -> 22         0.10960
      18 -> 20        -0.40220
      18 -> 22        -0.10097

 Excited State  11:      Singlet-A     10.2409 eV  121.07 nm  f=0.0015  <S**2>=0.000
      14 -> 19         0.15247
      15 -> 20         0.11283
      16 -> 20         0.66107

 Excited State  12:      Singlet-A     10.5560 eV  117.45 nm  f=0.0019  <S**2>=0.000
      17 -> 23        -0.13172
      18 -> 24         0.66968

 Excited State  13:      Singlet-A     10.5784 eV  117.21 nm  f=0.0154  <S**2>=0.000
      14 -> 19        -0.15251
      17 -> 22         0.65401
      18 -> 24         0.11104

 Excited State  14:      Singlet-A     10.7534 eV  115.30 nm  f=0.0001  <S**2>=0.000
      14 -> 19        -0.13627
      17 -> 23         0.64334
      17 -> 25         0.15794
      18 -> 24         0.13855

 Excited State  15:      Singlet-A     10.7953 eV  114.85 nm  f=0.0036  <S**2>=0.000
      14 -> 19         0.64190
      15 -> 20        -0.10232
      16 -> 20        -0.12272
      17 -> 22         0.16880
      17 -> 23         0.15276

 The electronic state is 1-A.
 Alpha  occ. eigenvalues --  -19.11918 -10.17786 -10.17420 -10.13047 -10.12538
 Alpha  occ. eigenvalues --   -1.14823  -0.80606  -0.75234  -0.61741  -0.55777
 Alpha  occ. eigenvalues --   -0.54771  -0.45923  -0.44977  -0.42047  -0.39232
 Alpha  occ. eigenvalues --   -0.36493  -0.27590  -0.23844
 Alpha virt. eigenvalues --    0.03196   0.07261   0.12723   0.15621   0.16541
 Alpha virt. eigenvalues --    0.19079   0.20769   0.24411   0.36304   0.42055
 Alpha virt. eigenvalues --    0.45712   0.67100   0.69788   0.70263   0.74712

 Mulliken charges:
               1
     1  C   -0.248121
     2  C    0.094162
     3  O   -0.485503
     4  C    0.104832
     5  C   -0.261330
     6  H    0.188575
     7  H    0.212196
     8  H    0.201115
     9  H    0.194074
 Sum of Mulliken charges =   0.00000

 Dipole moment (field-independent basis, Debye):
    X=              0.1074    Y=              0.7510    Z=              0.0529  Tot=              0.7604
 Quadrupole moment (field-independent basis, Debye-Ang):
   XX=            -24.2594   YY=            -27.7787   ZZ=            -31.7737
   XY=             -0.5829   XZ=              0.1702   YZ=              0.0020

 Normal termination of Gaussian 09 at Tue Dec 15 16:23:05 2015.
