 Gaussian 09, Revision D.01,
 Gaussian 09:  ES64L-G09RevD.01 24-Apr-2013

 ------------------------------------------------------------
 #P AM1(Input,print) CIS(Singlets,NStates=15) pop(full) force
 ------------------------------------------------------------

 -----------------
 AM1-Reparam Input
 -----------------
 Symbolic Z-matrix:
 Charge =  0 Multiplicity = 1

                         Standard orientation:
 ---------------------------------------------------------------------
 Center     Atomic      Atomic             Coordinates (Angstroms)
 Number     Number       Type             X           Y           Z
 ---------------------------------------------------------------------
      1          6           0       -0.885270    0.787392    0.015701
      2          6           0       -1.065905   -0.472591   -0.015346
      3          8           0        0.213108   -1.146504    0.022311
      4          6           0        1.169657   -0.156108   -0.021829
      5          6           0        0.536669    1.068398   -0.009674
      6          1           0        1.077165    1.969415    0.057703
      7          1           0        2.133243   -0.528447   -0.004625
      8          1           0       -1.874166   -1.175156   -0.029939
      9          1           0       -1.572016    1.543671   -0.014736
 ---------------------------------------------------------------------

 SCF Done:  E(RAM1) =  -6.24030741665     A.U. after   13 cycles

 Excitation energies and oscillator strengths:

 Excited State   1:      Singlet-A      6.1029 eV  203.16 nm  f=0.4352  <S**2>=0.000
      13 -> 14         0.69869
 This state for optimization and/or second-order correction.
 Total Energy, E(CIS) =  -6.01603064601
 Copying the excited state density for this state as the 1-particle RhoCI density.

 Excited State   2:      Singlet-A      7.5414 eV  164.40 nm  f=0.0011  <S**2>=0.000
      12 -> 14         0.70176

 Excited State   3:      Singlet-A      8.6153 eV  143.91 nm  f=0.0071  <S**2>=0.000
      11 -> 14         0.69547

 Excited State   4:      Singlet-A      8.8425 eV  140.21 nm  f=0.0001  <S**2>=0.000
      13 -> 15         0.58619
      13 -> 16        -0.29558
      13 -> 18        -0.11304
      13 -> 20         0.10783
      13 -> 21        -0.15334

 Excited State   5:      Singlet-A      9.2007 eV  134.76 nm  f=0.0003  <S**2>=0.000
      10 -> 15         0.10437
      13 -> 15         0.32483
      13 -> 16         0.59605
      13 -> 18         0.12782

 Excited State   6:      Singlet-A     10.8009 eV  114.79 nm  f=0.0729  <S**2>=0.000
      10 -> 14         0.64179
      12 -> 15        -0.11019
      13 -> 17         0.18944
      13 -> 18        -0.11276

 Excited State   7:      Singlet-A     10.8743 eV  114.02 nm  f=0.0069  <S**2>=0.000
      10 -> 14         0.14203
      10 -> 16         0.10186
      13 -> 15         0.12126
      13 -> 16        -0.16992
      13 -> 18         0.52072
      13 -> 20        -0.16477
      13 -> 21         0.30240
      13 -> 22        -0.13309

 Excited State   8:      Singlet-A     11.1382 eV  111.31 nm  f=0.0088  <S**2>=0.000
      13 -> 18         0.40163
      13 -> 19        -0.31850
      13 -> 20         0.20076
      13 -> 21        -0.38183
      13 -> 22         0.17543

 Excited State   9:      Singlet-A     11.8107 eV  104.98 nm  f=0.0286  <S**2>=0.000
       9 -> 14        -0.13267
      12 -> 15        -0.10194
      13 -> 17        -0.37251
      13 -> 19         0.48733
      13 -> 20         0.15565
      13 -> 21        -0.22438

 Excited State  10:      Singlet-A     11.8271 eV  104.83 nm  f=0.0610  <S**2>=0.000
      12 -> 15         0.22337
      13 -> 17         0.50244
      13 -> 19         0.32654
      13 -> 21        -0.19797

 Excited State  11:      Singlet-A     12.0594 eV  102.81 nm  f=0.3456  <S**2>=0.000
       8 -> 16        -0.10399
       9 -> 15         0.10855
      10 -> 14         0.17631
      12 -> 15         0.48285
      12 -> 21        -0.13936
      13 -> 17        -0.25210
      13 -> 20        -0.22100

 Excited State  12:      Singlet-A     12.1049 eV  102.43 nm  f=0.1322  <S**2>=0.000
       8 -> 14        -0.12186
       9 -> 14         0.12554
      12 -> 15         0.22303
      13 -> 20         0.55549
      13 -> 21         0.25315
      13 -> 22        -0.11821

 Excited State  13:      Singlet-A     12.3630 eV  100.29 nm  f=0.0089  <S**2>=0.000
       7 -> 14        -0.16779
       8 -> 14         0.17848
       9 -> 14         0.62387
      13 -> 19         0.14007
      13 -> 21        -0.10360

 Excited State  14:      Singlet-A     12.7582 eV   97.18 nm  f=0.0902  <S**2>=0.000
       8 -> 14         0.20062
       8 -> 15        -0.14337
       8 -> 16         0.10234
      11 -> 18         0.15798
      11 -> 19        -0.14354
      12 -> 15         0.17425
      12 -> 16         0.49345
      12 -> 19         0.10658
      12 -> 20        -0.14419
      12 -> 21         0.12373

 Excited State  15:      Singlet-A     12.8568 eV   96.43 nm  f=0.0409  <S**2>=0.000
       8 -> 14         0.61341
       9 -> 14        -0.15481
      12 -> 16        -0.14302
      13 -> 20         0.13394
      13 -> 22        -0.12483

 The electronic state is 1-A.
 Alpha  occ. eigenvalues --   -3.84878  -1.08181  -0.87018  -0.83719  -0.76030
 Alpha  occ. eigenvalues --   -0.73257  -0.67277  -0.58181  -0.56930  -0.49580
 Alpha  occ. eigenvalues --   -0.45291  -0.42522  -0.29072
 Alpha virt. eigenvalues --    0.14565   0.26860   0.27626   0.36484   0.37148
 Alpha virt. eigenvalues --    0.39323   0.40001   0.41190   0.46521   0.49760
 Alpha virt. eigenvalues --    0.53750

 Mulliken charges:
               1
     1  C   -0.154930
     2  C   -1.761787
     3  O    3.208524
     4  C   -1.828637
     5  C   -0.340186
     6  H    0.204751
     7  H    0.244072
     8  H    0.232884
     9  H    0.195307
 Sum of Mulliken charges =   0.00000

 Dipole moment (field-independent basis, Debye):
    X=              1.6984    Y=            -11.9600    Z=              0.6296  Tot=             12.0964
 N-N= 1.020506430230D+02 E-N=-1.706768655673D+02  KE=-2.266631008709D+01
 Orbital energies and kinetic energies (alpha):
                                 1                 2
   1         O                -3.848778         -2.953859
   2         O                -1.081815         -1.067850
   3         O                -0.870185         -0.743070
   4         O                -0.837188         -0.847538
   5         O                -0.760297         -0.937972
   6         O                -0.732568         -0.738557
   7         O                -0.672771         -0.764018

 Normal termination of Gaussian 09 at Fri Dec 11 13:41:41 2015.
