 Gaussian 09, Revision D.01,
 Gaussian 09:  ES64L-G09RevD.01 24-Apr-2013

 ------------------------------------------------------------
 #P AM1(Input,print) CIS(Singlets,NStates=15) pop(full) force
 ------------------------------------------------------------

 -----------------
 AM1-Reparam Input
 -----------------
 Symbolic Z-matrix:
 Charge =  0 Multiplicity = 1

                         Standard orientation:
 ---------------------------------------------------------------------
 Center     Atomic      Atomic             Coordinates (Angstroms)
 Number     Number       Type             X           Y           Z
 ---------------------------------------------------------------------
      1          6           0       -0.539353    1.061019   -0.012649
      2          6           0       -1.170045   -0.182549    0.028961
      3          8           0       -0.201308   -1.090727   -0.017120
      4          6           0        1.014732   -0.522020   -0.001889
      5          6           0        0.911592    0.780923   -0.009582
      6          1           0        1.622497    1.557458    0.076031
      7          1           0        1.845513   -1.197540    0.044122
      8          1           0       -2.155868   -0.461706    0.015911
      9          1           0       -1.003236    2.003364   -0.028147
 ---------------------------------------------------------------------

 SCF Done:  E(RAM1) =  -4.72095577605     A.U. after   14 cycles

 Excitation energies and oscillator strengths:

 Excited State   1:      Singlet-A      6.4501 eV  192.22 nm  f=0.3908  <S**2>=0.000
      13 -> 14         0.69287
 This state for optimization and/or second-order correction.
 Total Energy, E(CIS) =  -4.48391991277
 Copying the excited state density for this state as the 1-particle RhoCI density.

 Excited State   2:      Singlet-A      7.6913 eV  161.20 nm  f=0.0017  <S**2>=0.000
      12 -> 14         0.69029

 Excited State   3:      Singlet-A      8.4130 eV  147.37 nm  f=0.0063  <S**2>=0.000
      13 -> 15         0.67084
      13 -> 17        -0.10341
      13 -> 19         0.10638

 Excited State   4:      Singlet-A      8.5366 eV  145.24 nm  f=0.0121  <S**2>=0.000
      11 -> 14         0.57800
      13 -> 16         0.36194
      13 -> 21         0.10201

 Excited State   5:      Singlet-A      8.5619 eV  144.81 nm  f=0.0028  <S**2>=0.000
      11 -> 14        -0.39447
      13 -> 16         0.54427
      13 -> 21         0.13847

 Excited State   6:      Singlet-A     10.0256 eV  123.67 nm  f=0.0810  <S**2>=0.000
      10 -> 14         0.65324
      13 -> 18         0.21461

 Excited State   7:      Singlet-A     10.3247 eV  120.08 nm  f=0.0038  <S**2>=0.000
      13 -> 15        -0.13329
      13 -> 16         0.12190
      13 -> 19         0.54096
      13 -> 20        -0.12018
      13 -> 21        -0.27742
      13 -> 22         0.23820

 Excited State   8:      Singlet-A     10.6401 eV  116.53 nm  f=0.0026  <S**2>=0.000
       9 -> 14         0.66410
      13 -> 21         0.10076

 Excited State   9:      Singlet-A     10.7338 eV  115.51 nm  f=0.0052  <S**2>=0.000
      10 -> 16        -0.11336
      13 -> 16         0.12392
      13 -> 17         0.66622

 Excited State  10:      Singlet-A     11.2866 eV  109.85 nm  f=0.0770  <S**2>=0.000
      10 -> 16         0.12492
      13 -> 18        -0.29896
      13 -> 19         0.16987
      13 -> 20         0.56826

 Excited State  11:      Singlet-A     11.4011 eV  108.75 nm  f=0.0831  <S**2>=0.000
      10 -> 14        -0.14778
      12 -> 16         0.18666
      13 -> 18         0.49502
      13 -> 19         0.16135
      13 -> 20         0.23550
      13 -> 21         0.25163

 Excited State  12:      Singlet-A     11.4481 eV  108.30 nm  f=0.0369  <S**2>=0.000
       9 -> 14        -0.12021
      12 -> 15         0.24578
      12 -> 16        -0.17428
      12 -> 21        -0.11009
      13 -> 18        -0.12773
      13 -> 19         0.28333
      13 -> 20        -0.16533
      13 -> 21         0.45263

 Excited State  13:      Singlet-A     11.5096 eV  107.72 nm  f=0.1849  <S**2>=0.000
       9 -> 14         0.11213
      10 -> 14        -0.12859
      12 -> 15         0.43747
      12 -> 16        -0.20595
      12 -> 19         0.17304
      12 -> 21        -0.15765
      13 -> 18         0.22200
      13 -> 19        -0.10774
      13 -> 20         0.14416
      13 -> 21        -0.21681

 Excited State  14:      Singlet-A     11.8573 eV  104.56 nm  f=0.0124  <S**2>=0.000
      11 -> 15        -0.25488
      11 -> 16         0.16482
      11 -> 19        -0.10297
      11 -> 21         0.10207
      12 -> 15         0.36634
      12 -> 16         0.38822
      12 -> 17        -0.11852
      13 -> 18        -0.15445

 Excited State  15:      Singlet-A     12.0661 eV  102.75 nm  f=0.0969  <S**2>=0.000
      10 -> 15        -0.10573
      11 -> 15         0.34699
      11 -> 16         0.42234
      11 -> 17        -0.24854
      12 -> 16         0.22089
      12 -> 19         0.15401

 The electronic state is 1-A.
 Alpha  occ. eigenvalues --   -3.89676  -1.20843  -0.93535  -0.85500  -0.84822
 Alpha  occ. eigenvalues --   -0.80585  -0.76165  -0.63150  -0.55971  -0.53446
 Alpha  occ. eigenvalues --   -0.51399  -0.49163  -0.37416
 Alpha virt. eigenvalues --    0.07430   0.16772   0.18350   0.25953   0.26410
 Alpha virt. eigenvalues --    0.27108   0.28331   0.30909   0.34227   0.39395
 Alpha virt. eigenvalues --    0.45688

 Mulliken charges:
               1
     1  C   -0.337152
     2  C   -1.587373
     3  O    2.802877
     4  C   -1.550215
     5  C   -0.258193
     6  H    0.214485
     7  H    0.249541
     8  H    0.248541
     9  H    0.217488
 Sum of Mulliken charges =   0.00000

 Dipole moment (field-independent basis, Debye):
    X=             -1.1568    Y=             -9.1845    Z=             -0.2314  Tot=              9.2600
 N-N= 1.054179396205D+02 E-N=-1.736868212653D+02  KE=-2.175753319062D+01
 Orbital energies and kinetic energies (alpha):
                                 1                 2
   1         O                -3.896760         -3.243703
   2         O                -1.208432         -1.048201
   3         O                -0.935350         -0.688543
   4         O                -0.855003         -0.735654
   5         O                -0.848224         -0.763983
   6         O                -0.805846         -0.831617
   7         O                -0.761654         -0.668519

 Normal termination of Gaussian 09 at Fri Dec 11 13:41:37 2015.
