 Gaussian 09, Revision D.01,
 Gaussian 09:  ES64L-G09RevD.01 24-Apr-2013

 -------------------------------------------------------
 #P B3LYP/3-21G CIS(Singlets,NStates=15) pop(full) force
 -------------------------------------------------------

 --------
 FuranDFT
 --------
 Symbolic Z-matrix:
 Charge =  0 Multiplicity = 1

                         Standard orientation:
 ---------------------------------------------------------------------
 Center     Atomic      Atomic             Coordinates (Angstroms)
 Number     Number       Type             X           Y           Z
 ---------------------------------------------------------------------
      1          6           0        0.788970    0.885096   -0.003663
      2          6           0        1.102359   -0.368707    0.027840
      3          8           0       -0.079589   -1.151040   -0.021614
      4          6           0       -1.150744   -0.252078    0.029135
      5          6           0       -0.671583    0.959252   -0.022512
      6          1           0       -1.227418    1.853659    0.035861
      7          1           0       -2.037413   -0.689635   -0.014642
      8          1           0        2.007510   -1.003691   -0.013128
      9          1           0        1.480020    1.706611   -0.019980
 ---------------------------------------------------------------------

 SCF Done:  E(RB3LYP) =  -228.735424241     A.U. after   15 cycles

 Excitation energies and oscillator strengths:

 Excited State   1:      Singlet-A      7.4939 eV  165.45 nm  f=0.0314  <S**2>=0.000
      17 -> 19         0.50421
      18 -> 19        -0.27880
      18 -> 20         0.38657
 This state for optimization and/or second-order correction.
 Total Energy, E(CIS) =  -228.460029230
 Copying the excited state density for this state as the 1-particle RhoCI density.

 Excited State   2:      Singlet-A      7.6343 eV  162.40 nm  f=0.1725  <S**2>=0.000
      17 -> 19         0.24701
      18 -> 19         0.62157
      18 -> 20         0.14366

 Excited State   3:      Singlet-A      8.6340 eV  143.60 nm  f=0.0038  <S**2>=0.000
      16 -> 19         0.70119

 Excited State   4:      Singlet-A      8.8966 eV  139.36 nm  f=0.0011  <S**2>=0.000
      18 -> 21         0.68913

 Excited State   5:      Singlet-A      9.3886 eV  132.06 nm  f=0.0946  <S**2>=0.000
      17 -> 20         0.58558
      17 -> 21        -0.19327
      18 -> 20        -0.12453
      18 -> 22        -0.25786

 Excited State   6:      Singlet-A      9.4723 eV  130.89 nm  f=0.0279  <S**2>=0.000
      17 -> 20         0.30651
      17 -> 21         0.13524
      18 -> 22         0.58347
      18 -> 23        -0.15252

 Excited State   7:      Singlet-A      9.6912 eV  127.93 nm  f=0.0078  <S**2>=0.000
      17 -> 20         0.11358
      17 -> 21         0.64461
      18 -> 22        -0.20080

 Excited State   8:      Singlet-A      9.9666 eV  124.40 nm  f=0.3641  <S**2>=0.000
      13 -> 19        -0.14692
      15 -> 19         0.10188
      16 -> 21         0.10992
      17 -> 19        -0.33796
      17 -> 20         0.11824
      17 -> 22         0.16763
      18 -> 20         0.48077

 Excited State   9:      Singlet-A     10.0215 eV  123.72 nm  f=0.0062  <S**2>=0.000
      15 -> 19         0.18569
      18 -> 22         0.15510
      18 -> 23         0.64135

 Excited State  10:      Singlet-A     10.1408 eV  122.26 nm  f=0.0008  <S**2>=0.000
      15 -> 19         0.52673
      17 -> 21        -0.10750
      17 -> 22        -0.42326
      18 -> 23        -0.11368

 Excited State  11:      Singlet-A     10.2580 eV  120.87 nm  f=0.0358  <S**2>=0.000
      15 -> 19         0.39745
      17 -> 22         0.51326
      18 -> 20        -0.12353
      18 -> 23        -0.16526

 Excited State  12:      Singlet-A     10.4681 eV  118.44 nm  f=0.0055  <S**2>=0.000
      14 -> 19        -0.28208
      16 -> 20         0.63515

 Excited State  13:      Singlet-A     10.6594 eV  116.31 nm  f=0.0040  <S**2>=0.000
      14 -> 19         0.17341
      17 -> 23         0.63994
      17 -> 25         0.14446

 Excited State  14:      Singlet-A     10.8970 eV  113.78 nm  f=0.0007  <S**2>=0.000
      14 -> 19         0.11375
      18 -> 24         0.67770

 Excited State  15:      Singlet-A     10.9568 eV  113.16 nm  f=0.0034  <S**2>=0.000
      13 -> 19        -0.13324
      14 -> 19         0.56531
      16 -> 20         0.27657
      17 -> 23        -0.17254
      17 -> 24        -0.10563
      18 -> 24        -0.12460

 The electronic state is 1-A.
 Alpha  occ. eigenvalues --  -19.09128 -10.17313 -10.16294 -10.12234 -10.11941
 Alpha  occ. eigenvalues --   -1.09220  -0.80748  -0.75673  -0.60054  -0.57703
 Alpha  occ. eigenvalues --   -0.54151  -0.44588  -0.43232  -0.42509  -0.40139
 Alpha  occ. eigenvalues --   -0.35036  -0.27244  -0.24579
 Alpha virt. eigenvalues --    0.02574   0.08858   0.13109   0.14797   0.17162
 Alpha virt. eigenvalues --    0.19438   0.21012   0.22400   0.37854   0.42415
 Alpha virt. eigenvalues --    0.48360   0.66897   0.69357   0.69818   0.76455

 Mulliken charges:
               1
     1  C   -0.257582
     2  C    0.084262
     3  O   -0.479020
     4  C    0.088994
     5  C   -0.253674
     6  H    0.186509
     7  H    0.222369
     8  H    0.217365
     9  H    0.190777
 Sum of Mulliken charges =   0.00000

 Dipole moment (field-independent basis, Debye):
    X=              0.0816    Y=              0.8444    Z=              0.0143  Tot=              0.8485
 Quadrupole moment (field-independent basis, Debye-Ang):
   XX=            -23.1856   YY=            -28.1870   ZZ=            -31.5149
   XY=             -0.2496   XZ=             -0.0906   YZ=              0.0653

 Normal termination of Gaussian 09 at Tue Dec 15 16:18:50 2015.
