 Gaussian 09, Revision D.01,
 Gaussian 09:  ES64L-G09RevD.01 24-Apr-2013

 ------------------------------------------------------------
 #P AM1(Input,print) CIS(Singlets,NStates=15) pop(full) force
 ------------------------------------------------------------

 -----------------
 AM1-Reparam Input
 -----------------
 Symbolic Z-matrix:
 Charge =  0 Multiplicity = 1

                         Standard orientation:
 ---------------------------------------------------------------------
 Center     Atomic      Atomic             Coordinates (Angstroms)
 Number     Number       Type             X           Y           Z
 ---------------------------------------------------------------------
      1          6           0       -0.585602    1.057473   -0.018000
      2          6           0       -1.120263   -0.201910    0.019622
      3          8           0       -0.163898   -1.148734   -0.002021
      4          6           0        1.014724   -0.518693   -0.021482
      5          6           0        0.875538    0.862879    0.004002
      6          1           0        1.588808    1.641524    0.066881
      7          1           0        1.873576   -1.106909    0.044213
      8          1           0       -2.169753   -0.487836    0.012103
      9          1           0       -1.087835    1.944592   -0.011880
 ---------------------------------------------------------------------

 SCF Done:  E(RAM1) =   1.10127944689     A.U. after   14 cycles

 Excitation energies and oscillator strengths:

 Excited State   1:      Singlet-A      5.4567 eV  227.21 nm  f=0.2299  <S**2>=0.000
      12 -> 16        -0.12468
      13 -> 14         0.68351
 This state for optimization and/or second-order correction.
 Total Energy, E(CIS) =   1.30181013637
 Copying the excited state density for this state as the 1-particle RhoCI density.

 Excited State   2:      Singlet-A      6.5500 eV  189.29 nm  f=0.0057  <S**2>=0.000
      13 -> 15         0.66841
      13 -> 16         0.12252
      13 -> 19        -0.14586

 Excited State   3:      Singlet-A      6.8551 eV  180.86 nm  f=0.0001  <S**2>=0.000
      13 -> 16        -0.19499
      13 -> 17         0.62108
      13 -> 18        -0.21022
      13 -> 21         0.13021

 Excited State   4:      Singlet-A      7.0432 eV  176.03 nm  f=0.0005  <S**2>=0.000
      12 -> 14         0.50821
      13 -> 16         0.43775
      13 -> 17         0.15542

 Excited State   5:      Singlet-A      7.2581 eV  170.82 nm  f=0.0007  <S**2>=0.000
       9 -> 14         0.17794
      11 -> 14         0.67139
      13 -> 16         0.10329

 Excited State   6:      Singlet-A      8.0350 eV  154.30 nm  f=0.1547  <S**2>=0.000
      10 -> 14         0.46155
      12 -> 14         0.34556
      13 -> 16        -0.34190

 Excited State   7:      Singlet-A      8.0965 eV  153.13 nm  f=0.1334  <S**2>=0.000
      10 -> 14         0.50865
      12 -> 14        -0.31398
      13 -> 16         0.31001
      13 -> 18        -0.12670

 Excited State   8:      Singlet-A      8.1491 eV  152.15 nm  f=0.0115  <S**2>=0.000
      12 -> 15        -0.23999
      13 -> 17         0.17361
      13 -> 18         0.59037
      13 -> 22        -0.13882
      13 -> 23         0.10539

 Excited State   9:      Singlet-A      8.5646 eV  144.76 nm  f=0.0071  <S**2>=0.000
      12 -> 15         0.62362
      13 -> 17         0.11448
      13 -> 18         0.19229
      13 -> 21         0.10857

 Excited State  10:      Singlet-A      8.8937 eV  139.41 nm  f=0.1104  <S**2>=0.000
       9 -> 16         0.13961
       9 -> 17        -0.11797
      11 -> 16        -0.14360
      11 -> 17        -0.14710
      11 -> 18         0.10969
      12 -> 16         0.56074
      13 -> 14         0.10149
      13 -> 20        -0.17743

 Excited State  11:      Singlet-A      8.9173 eV  139.04 nm  f=0.0139  <S**2>=0.000
      12 -> 16         0.12722
      12 -> 17         0.22552
      13 -> 19        -0.12733
      13 -> 20         0.59620

 Excited State  12:      Singlet-A      8.9863 eV  137.97 nm  f=0.0051  <S**2>=0.000
       7 -> 15         0.10392
       9 -> 16         0.19037
      11 -> 16        -0.32990
      12 -> 16        -0.15113
      12 -> 17         0.41979
      13 -> 19        -0.22053
      13 -> 20        -0.23270

 Excited State  13:      Singlet-A      9.0041 eV  137.70 nm  f=0.0311  <S**2>=0.000
       9 -> 16        -0.19680
       9 -> 17        -0.12424
      11 -> 15        -0.13841
      11 -> 16         0.40767
      12 -> 16         0.12036
      12 -> 17         0.39770
      13 -> 19        -0.12534
      13 -> 20        -0.12996

 Excited State  14:      Singlet-A      9.2128 eV  134.58 nm  f=0.0014  <S**2>=0.000
       9 -> 14         0.65842
      11 -> 14        -0.17960

 Excited State  15:      Singlet-A      9.4761 eV  130.84 nm  f=0.0257  <S**2>=0.000
       9 -> 15        -0.31001
       9 -> 20        -0.10741
      10 -> 15         0.14280
      10 -> 17        -0.19136
      11 -> 15         0.46354
      11 -> 16         0.14920
      11 -> 19        -0.14157

 The electronic state is 1-A.
 Alpha  occ. eigenvalues --   -1.83589  -1.18222  -0.98986  -0.87925  -0.80671
 Alpha  occ. eigenvalues --   -0.74642  -0.71558  -0.60847  -0.55174  -0.53483
 Alpha  occ. eigenvalues --   -0.50516  -0.47331  -0.38335
 Alpha virt. eigenvalues --    0.02697   0.10013   0.10464   0.11148   0.18233
 Alpha virt. eigenvalues --    0.19572   0.20892   0.21567   0.26530   0.27115
 Alpha virt. eigenvalues --    0.28269

 Mulliken charges:
               1
     1  C   -0.105119
     2  C   -1.277441
     3  O    2.147515
     4  C   -1.265419
     5  C   -0.115315
     6  H    0.104033
     7  H    0.199547
     8  H    0.214649
     9  H    0.097550
 Sum of Mulliken charges =   0.00000

 Dipole moment (field-independent basis, Debye):
    X=             -1.1168    Y=             -6.9343    Z=              0.1031  Tot=              7.0244
 N-N= 1.043258850633D+02 E-N=-1.710192583964D+02  KE=-1.500436255986D+01
 Orbital energies and kinetic energies (alpha):
                                 1                 2
   1         O                -1.835893         -1.249854
   2         O                -1.182216         -0.967825
   3         O                -0.989855         -0.805313
   4         O                -0.879249         -0.641577
   5         O                -0.806710         -0.676572
   6         O                -0.746421         -0.597973
   7         O                -0.715581         -0.507684

 Normal termination of Gaussian 09 at Tue Dec 15 17:05:40 2015.
