 Gaussian 09, Revision D.01,
 Gaussian 09:  ES64L-G09RevD.01 24-Apr-2013

 -------------------------------------------------------
 #P B3LYP/3-21G CIS(Singlets,NStates=15) pop(full) force
 -------------------------------------------------------

 --------
 FuranDFT
 --------
 Symbolic Z-matrix:
 Charge =  0 Multiplicity = 1

                         Standard orientation:
 ---------------------------------------------------------------------
 Center     Atomic      Atomic             Coordinates (Angstroms)
 Number     Number       Type             X           Y           Z
 ---------------------------------------------------------------------
      1          6           0       -0.743460    0.905586    0.007329
      2          6           0       -1.067291   -0.314285    0.004573
      3          8           0        0.009564   -1.178529    0.003626
      4          6           0        1.093313   -0.336497   -0.019341
      5          6           0        0.704809    0.997165   -0.017738
      6          1           0        1.398201    1.779010    0.077998
      7          1           0        2.038640   -0.796708    0.062001
      8          1           0       -2.043865   -0.840370   -0.004796
      9          1           0       -1.393711    1.774489   -0.013147
 ---------------------------------------------------------------------

 SCF Done:  E(RB3LYP) =  -228.735337724     A.U. after   15 cycles

 Excitation energies and oscillator strengths:

 Excited State   1:      Singlet-A      7.3710 eV  168.20 nm  f=0.1972  <S**2>=0.000
      17 -> 19         0.15162
      18 -> 19         0.66678
 This state for optimization and/or second-order correction.
 Total Energy, E(CIS) =  -228.464456925
 Copying the excited state density for this state as the 1-particle RhoCI density.

 Excited State   2:      Singlet-A      7.4787 eV  165.78 nm  f=0.0053  <S**2>=0.000
      17 -> 19         0.51147
      18 -> 19        -0.10640
      18 -> 20         0.46408

 Excited State   3:      Singlet-A      8.5972 eV  144.21 nm  f=0.0032  <S**2>=0.000
      18 -> 21         0.68896

 Excited State   4:      Singlet-A      8.9881 eV  137.94 nm  f=0.0049  <S**2>=0.000
      16 -> 19         0.69869

 Excited State   5:      Singlet-A      9.3516 eV  132.58 nm  f=0.2258  <S**2>=0.000
      17 -> 19         0.29212
      17 -> 20         0.44264
      17 -> 21        -0.10731
      18 -> 20        -0.36785
      18 -> 22        -0.14209

 Excited State   6:      Singlet-A      9.5268 eV  130.14 nm  f=0.0072  <S**2>=0.000
      15 -> 19        -0.11531
      17 -> 20         0.13582
      18 -> 22         0.66559

 Excited State   7:      Singlet-A      9.7289 eV  127.44 nm  f=0.0091  <S**2>=0.000
      15 -> 19         0.19850
      17 -> 21        -0.44080
      18 -> 23         0.48449

 Excited State   8:      Singlet-A      9.8222 eV  126.23 nm  f=0.0138  <S**2>=0.000
      15 -> 19         0.53270
      17 -> 21         0.39770
      18 -> 23         0.14596

 Excited State   9:      Singlet-A      9.9356 eV  124.79 nm  f=0.0045  <S**2>=0.000
      15 -> 19        -0.38055
      17 -> 21         0.33334
      18 -> 23         0.46626

 Excited State  10:      Singlet-A     10.2708 eV  120.72 nm  f=0.3636  <S**2>=0.000
      17 -> 19        -0.25980
      17 -> 20         0.48253
      18 -> 20         0.29427
      18 -> 24        -0.16438

 Excited State  11:      Singlet-A     10.4900 eV  118.19 nm  f=0.0218  <S**2>=0.000
      14 -> 19        -0.11366
      17 -> 20         0.10493
      18 -> 24         0.65729

 Excited State  12:      Singlet-A     10.5762 eV  117.23 nm  f=0.0128  <S**2>=0.000
      14 -> 19         0.55821
      16 -> 20         0.22535
      17 -> 22         0.29142
      18 -> 24         0.14246

 Excited State  13:      Singlet-A     10.7184 eV  115.67 nm  f=0.0034  <S**2>=0.000
      14 -> 19        -0.30274
      17 -> 22         0.62020

 Excited State  14:      Singlet-A     10.9314 eV  113.42 nm  f=0.0067  <S**2>=0.000
      13 -> 19         0.28805
      14 -> 19        -0.21236
      16 -> 20         0.51321
      18 -> 25         0.28984

 Excited State  15:      Singlet-A     10.9778 eV  112.94 nm  f=0.0113  <S**2>=0.000
      16 -> 20        -0.31436
      18 -> 23        -0.10709
      18 -> 25         0.59614

 The electronic state is 1-A.
 Alpha  occ. eigenvalues --  -19.11020 -10.17493 -10.16847 -10.12663 -10.12053
 Alpha  occ. eigenvalues --   -1.12095  -0.81629  -0.74766  -0.60691  -0.56757
 Alpha  occ. eigenvalues --   -0.54370  -0.44694  -0.44183  -0.42466  -0.39419
 Alpha  occ. eigenvalues --   -0.36698  -0.28213  -0.23627
 Alpha virt. eigenvalues --    0.02220   0.08739   0.12660   0.15560   0.17425
 Alpha virt. eigenvalues --    0.18887   0.21127   0.23309   0.34976   0.43243
 Alpha virt. eigenvalues --    0.47620   0.66500   0.69643   0.71007   0.76295

 Mulliken charges:
               1
     1  C   -0.258055
     2  C    0.104646
     3  O   -0.477591
     4  C    0.067264
     5  C   -0.246804
     6  H    0.191417
     7  H    0.215394
     8  H    0.211097
     9  H    0.192633
 Sum of Mulliken charges =   0.00000

 Dipole moment (field-independent basis, Debye):
    X=              0.0198    Y=              0.8251    Z=              0.1292  Tot=              0.8354
 Quadrupole moment (field-independent basis, Debye-Ang):
   XX=            -23.5747   YY=            -28.2967   ZZ=            -31.6433
   XY=              0.0188   XZ=              0.3522   YZ=              0.1062

 Normal termination of Gaussian 09 at Tue Dec 15 16:12:07 2015.
