 Gaussian 09, Revision D.01,
 Gaussian 09:  ES64L-G09RevD.01 24-Apr-2013

 ------------------------------------------------------------
 #P AM1(Input,print) CIS(Singlets,NStates=15) pop(full) force
 ------------------------------------------------------------

 -----------------
 AM1-Reparam Input
 -----------------
 Symbolic Z-matrix:
 Charge =  0 Multiplicity = 1

                         Standard orientation:
 ---------------------------------------------------------------------
 Center     Atomic      Atomic             Coordinates (Angstroms)
 Number     Number       Type             X           Y           Z
 ---------------------------------------------------------------------
      1          6           0        0.757171    0.896867   -0.007864
      2          6           0        1.115852   -0.438017   -0.018797
      3          8           0       -0.113448   -1.144788    0.022470
      4          6           0       -1.135647   -0.256853   -0.027972
      5          6           0       -0.613125    0.984238    0.020463
      6          1           0       -1.228986    1.966866   -0.028794
      7          1           0       -2.111270   -0.674049    0.012461
      8          1           0        1.989501   -0.939612   -0.011258
      9          1           0        1.512834    1.687690    0.052856
 ---------------------------------------------------------------------

 SCF Done:  E(RAM1) =   1.83598924519     A.U. after   14 cycles

 Excitation energies and oscillator strengths:

 Excited State   1:      Singlet-A      5.8123 eV  213.31 nm  f=0.2882  <S**2>=0.000
      11 -> 17        -0.10075
      13 -> 14         0.68306
 This state for optimization and/or second-order correction.
 Total Energy, E(CIS) =   2.04958625750
 Copying the excited state density for this state as the 1-particle RhoCI density.

 Excited State   2:      Singlet-A      6.6893 eV  185.35 nm  f=0.0043  <S**2>=0.000
      10 -> 15         0.12805
      13 -> 15         0.64584
      13 -> 16         0.15790
      13 -> 17        -0.14153

 Excited State   3:      Singlet-A      6.9748 eV  177.76 nm  f=0.0002  <S**2>=0.000
      12 -> 14         0.69766

 Excited State   4:      Singlet-A      7.1500 eV  173.40 nm  f=0.0041  <S**2>=0.000
      13 -> 15        -0.15278
      13 -> 16         0.64252
      13 -> 19         0.13484

 Excited State   5:      Singlet-A      7.5358 eV  164.53 nm  f=0.0038  <S**2>=0.000
      11 -> 14         0.69183
      13 -> 16         0.10739

 Excited State   6:      Singlet-A      8.3080 eV  149.24 nm  f=0.0003  <S**2>=0.000
      10 -> 16        -0.12053
      13 -> 17         0.49490
      13 -> 18        -0.42055
      13 -> 22        -0.21180

 Excited State   7:      Singlet-A      8.3872 eV  147.83 nm  f=0.0063  <S**2>=0.000
      10 -> 15         0.11400
      13 -> 15         0.13309
      13 -> 17         0.43732
      13 -> 18         0.46594
      13 -> 22         0.19030

 Excited State   8:      Singlet-A      9.0383 eV  137.18 nm  f=0.1106  <S**2>=0.000
       9 -> 15         0.10364
       9 -> 19        -0.10132
      10 -> 14         0.11688
      11 -> 15         0.25515
      11 -> 16         0.26013
      11 -> 17        -0.26008
      11 -> 18        -0.11307
      12 -> 15        -0.13449
      12 -> 16         0.22691
      12 -> 18         0.30454
      12 -> 22         0.12190
      13 -> 14        -0.13891

 Excited State   9:      Singlet-A      9.0668 eV  136.75 nm  f=0.0393  <S**2>=0.000
      10 -> 14         0.62510
      12 -> 15         0.22993

 Excited State  10:      Singlet-A      9.2884 eV  133.48 nm  f=0.0003  <S**2>=0.000
      10 -> 16         0.12496
      13 -> 18        -0.12869
      13 -> 19         0.62864
      13 -> 22         0.14472

 Excited State  11:      Singlet-A      9.4122 eV  131.73 nm  f=0.1012  <S**2>=0.000
       9 -> 15         0.10423
      10 -> 14        -0.19837
      11 -> 15         0.26635
      12 -> 15         0.56243
      12 -> 17        -0.15129
      12 -> 19        -0.10829

 Excited State  12:      Singlet-A      9.6907 eV  127.94 nm  f=0.0206  <S**2>=0.000
      13 -> 18        -0.26379
      13 -> 19        -0.21489
      13 -> 20        -0.25707
      13 -> 22         0.52648

 Excited State  13:      Singlet-A      9.8204 eV  126.25 nm  f=0.1450  <S**2>=0.000
      11 -> 16         0.45668
      11 -> 19         0.19053
      12 -> 16        -0.39930
      12 -> 17         0.15756

 Excited State  14:      Singlet-A      9.9867 eV  124.15 nm  f=0.0733  <S**2>=0.000
      10 -> 15         0.26212
      13 -> 20         0.58649
      13 -> 22         0.21425

 Excited State  15:      Singlet-A     10.0680 eV  123.15 nm  f=0.0957  <S**2>=0.000
       8 -> 16         0.12465
       9 -> 15        -0.14482
      10 -> 14        -0.17614
      11 -> 15        -0.21946
      11 -> 18        -0.26952
      11 -> 19         0.18941
      12 -> 15         0.12749
      12 -> 16         0.33376
      12 -> 17         0.20460
      12 -> 20        -0.18540

 The electronic state is 1-A.
 Alpha  occ. eigenvalues --   -1.93862  -1.22042  -0.98538  -0.81594  -0.80187
 Alpha  occ. eigenvalues --   -0.68902  -0.66668  -0.53431  -0.49963  -0.42355
 Alpha  occ. eigenvalues --   -0.39928  -0.38485  -0.28658
 Alpha virt. eigenvalues --    0.14241   0.18964   0.21998   0.25701   0.27419
 Alpha virt. eigenvalues --    0.30570   0.31890   0.34707   0.34757   0.43392
 Alpha virt. eigenvalues --    0.48436

 Mulliken charges:
               1
     1  C   -0.074971
     2  C   -1.948745
     3  O    3.146855
     4  C   -1.934379
     5  C   -0.114331
     6  H    0.157295
     7  H    0.307288
     8  H    0.304427
     9  H    0.156561
 Sum of Mulliken charges =   0.00000

 Dipole moment (field-independent basis, Debye):
    X=             -1.4744    Y=             -9.9561    Z=              0.7106  Tot=             10.0897
 N-N= 1.040477984411D+02 E-N=-1.694745920807D+02  KE=-1.565675476015D+01
 Orbital energies and kinetic energies (alpha):
                                 1                 2
   1         O                -1.938625         -1.401890
   2         O                -1.220418         -1.077416
   3         O                -0.985382         -0.911323
   4         O                -0.815937         -0.695088
   5         O                -0.801867         -0.626565
   6         O                -0.689024         -0.575064
   7         O                -0.666679         -0.580022

 Normal termination of Gaussian 09 at Tue Dec 15 17:10:03 2015.
