 Gaussian 09, Revision D.01,
 Gaussian 09:  ES64L-G09RevD.01 24-Apr-2013

 ------------------------------------------------------------
 #P AM1(Input,print) CIS(Singlets,NStates=15) pop(full) force
 ------------------------------------------------------------

 -----------------
 AM1-Reparam Input
 -----------------
 Symbolic Z-matrix:
 Charge =  0 Multiplicity = 1

                         Standard orientation:
 ---------------------------------------------------------------------
 Center     Atomic      Atomic             Coordinates (Angstroms)
 Number     Number       Type             X           Y           Z
 ---------------------------------------------------------------------
      1          6           0       -0.758455    0.927988   -0.011958
      2          6           0       -1.090365   -0.318593    0.029877
      3          8           0        0.016607   -1.170386   -0.037171
      4          6           0        1.068205   -0.332823    0.042094
      5          6           0        0.758371    0.984817   -0.009150
      6          1           0        1.365174    1.773344   -0.016099
      7          1           0        2.037449   -0.902824   -0.007160
      8          1           0       -2.057556   -0.851726    0.034843
      9          1           0       -1.344462    1.775963   -0.019400
 ---------------------------------------------------------------------

 SCF Done:  E(RAM1) =   1.79591691697     A.U. after   14 cycles

 Excitation energies and oscillator strengths:

 Excited State   1:      Singlet-A      5.0047 eV  247.74 nm  f=0.3822  <S**2>=0.000
      13 -> 14         0.69776
 This state for optimization and/or second-order correction.
 Total Energy, E(CIS) =   1.97983641652
 Copying the excited state density for this state as the 1-particle RhoCI density.

 Excited State   2:      Singlet-A      6.1465 eV  201.72 nm  f=0.0004  <S**2>=0.000
      13 -> 15         0.67748
      13 -> 17        -0.15504

 Excited State   3:      Singlet-A      6.5861 eV  188.25 nm  f=0.0005  <S**2>=0.000
      12 -> 14         0.70376

 Excited State   4:      Singlet-A      6.6819 eV  185.55 nm  f=0.0009  <S**2>=0.000
      13 -> 16         0.67854
      13 -> 18        -0.14243

 Excited State   5:      Singlet-A      8.0438 eV  154.14 nm  f=0.0014  <S**2>=0.000
      13 -> 15         0.13009
      13 -> 17         0.62170
      13 -> 18        -0.20581
      13 -> 22         0.17022

 Excited State   6:      Singlet-A      8.2346 eV  150.57 nm  f=0.0069  <S**2>=0.000
      11 -> 14         0.69071

 Excited State   7:      Singlet-A      8.9103 eV  139.15 nm  f=0.0183  <S**2>=0.000
      13 -> 17         0.25063
      13 -> 18         0.62167
      13 -> 19        -0.12561

 Excited State   8:      Singlet-A      9.1922 eV  134.88 nm  f=0.0611  <S**2>=0.000
      10 -> 14         0.60758
      12 -> 16        -0.22438
      12 -> 17        -0.13806
      13 -> 20         0.14179

 Excited State   9:      Singlet-A      9.3339 eV  132.83 nm  f=0.1825  <S**2>=0.000
       9 -> 15         0.12886
      10 -> 14        -0.17206
      11 -> 18        -0.10840
      12 -> 15         0.55897
      12 -> 16        -0.19138
      12 -> 17        -0.20688
      12 -> 18         0.10012

 Excited State  10:      Singlet-A      9.4384 eV  131.36 nm  f=0.0010  <S**2>=0.000
      13 -> 18         0.14856
      13 -> 19         0.66867

 Excited State  11:      Singlet-A     10.0546 eV  123.31 nm  f=0.0903  <S**2>=0.000
      10 -> 14         0.20235
      11 -> 15        -0.10236
      12 -> 15         0.26111
      12 -> 16         0.58114

 Excited State  12:      Singlet-A     10.3655 eV  119.61 nm  f=0.0633  <S**2>=0.000
      11 -> 15        -0.14043
      12 -> 15         0.11298
      12 -> 16        -0.11476
      12 -> 17         0.23817
      12 -> 19         0.10752
      13 -> 20         0.54357
      13 -> 21        -0.18366

 Excited State  13:      Singlet-A     10.4425 eV  118.73 nm  f=0.1114  <S**2>=0.000
      10 -> 14         0.14033
      11 -> 16        -0.17549
      11 -> 18         0.17267
      12 -> 15         0.17588
      12 -> 16        -0.10987
      12 -> 17         0.34453
      12 -> 18        -0.14803
      12 -> 19         0.16070
      13 -> 20        -0.27109
      13 -> 21         0.22401
      13 -> 22         0.16641

 Excited State  14:      Singlet-A     10.5248 eV  117.80 nm  f=0.0204  <S**2>=0.000
      12 -> 17        -0.11155
      13 -> 17        -0.11892
      13 -> 19        -0.10201
      13 -> 20         0.14862
      13 -> 21         0.19249
      13 -> 22         0.59442

 Excited State  15:      Singlet-A     10.5644 eV  117.36 nm  f=0.0690  <S**2>=0.000
      10 -> 15         0.16384
      13 -> 20         0.21569
      13 -> 21         0.57323
      13 -> 22        -0.22425

 The electronic state is 1-A.
 Alpha  occ. eigenvalues --   -1.90720  -1.16758  -0.92438  -0.82292  -0.77683
 Alpha  occ. eigenvalues --   -0.70534  -0.67008  -0.55206  -0.54294  -0.46777
 Alpha  occ. eigenvalues --   -0.45673  -0.40057  -0.27635
 Alpha virt. eigenvalues --    0.10737   0.16955   0.18876   0.28292   0.30059
 Alpha virt. eigenvalues --    0.31901   0.32940   0.35031   0.36675   0.42287
 Alpha virt. eigenvalues --    0.44928

 Mulliken charges:
               1
     1  C   -0.136410
     2  C   -1.955507
     3  O    3.275728
     4  C   -1.981884
     5  C   -0.247861
     6  H    0.204908
     7  H    0.321618
     8  H    0.321795
     9  H    0.197613
 Sum of Mulliken charges =   0.00000

 Dipole moment (field-independent basis, Debye):
    X=              0.0189    Y=            -11.8939    Z=             -1.1038  Tot=             11.9451
 N-N= 1.037647631937D+02 E-N=-1.691049834843D+02  KE=-1.549119879108D+01
 Orbital energies and kinetic energies (alpha):
                                 1                 2
   1         O                -1.907195         -1.357980
   2         O                -1.167582         -1.057101
   3         O                -0.924380         -0.898017
   4         O                -0.822922         -0.572898
   5         O                -0.776834         -0.679818
   6         O                -0.705337         -0.586320
   7         O                -0.670078         -0.535619

 Normal termination of Gaussian 09 at Tue Dec 15 17:09:31 2015.
