 Gaussian 09, Revision D.01,
 Gaussian 09:  ES64L-G09RevD.01 24-Apr-2013

 ------------------------------------------------------------
 #P AM1(Input,print) CIS(Singlets,NStates=15) pop(full) force
 ------------------------------------------------------------

 -----------------
 AM1-Reparam Input
 -----------------
 Symbolic Z-matrix:
 Charge =  0 Multiplicity = 1

                         Standard orientation:
 ---------------------------------------------------------------------
 Center     Atomic      Atomic             Coordinates (Angstroms)
 Number     Number       Type             X           Y           Z
 ---------------------------------------------------------------------
      1          6           0        0.811789    0.906537    0.025962
      2          6           0        1.075719   -0.432537   -0.019495
      3          8           0       -0.075229   -1.151355    0.012376
      4          6           0       -1.172783   -0.259584   -0.018905
      5          6           0       -0.628214    1.018835    0.000406
      6          1           0       -1.201693    1.945600   -0.018772
      7          1           0       -2.175478   -0.712502    0.035409
      8          1           0        1.920125   -1.066049   -0.008658
      9          1           0        1.539818    1.644287   -0.034797
 ---------------------------------------------------------------------

 SCF Done:  E(RAM1) =  0.129420468290E-01 A.U. after   13 cycles

 Excitation energies and oscillator strengths:

 Excited State   1:      Singlet-A      4.3571 eV  284.56 nm  f=0.0906  <S**2>=0.000
      12 -> 15         0.20370
      13 -> 14         0.66814
 This state for optimization and/or second-order correction.
 Total Energy, E(CIS) =  0.173063046184
 Copying the excited state density for this state as the 1-particle RhoCI density.

 Excited State   2:      Singlet-A      4.8808 eV  254.02 nm  f=0.0005  <S**2>=0.000
      13 -> 15         0.10142
      13 -> 16         0.67770

 Excited State   3:      Singlet-A      4.9686 eV  249.53 nm  f=0.0052  <S**2>=0.000
      12 -> 14        -0.43056
      13 -> 15         0.54177
      13 -> 16        -0.12071

 Excited State   4:      Singlet-A      5.8041 eV  213.62 nm  f=0.0016  <S**2>=0.000
      12 -> 16         0.26617
      12 -> 17         0.13230
      12 -> 19        -0.12579
      12 -> 22        -0.15258
      13 -> 17         0.39153
      13 -> 18         0.18974
      13 -> 19        -0.27212
      13 -> 22        -0.19992
      13 -> 23         0.17152

 Excited State   5:      Singlet-A      5.8655 eV  211.38 nm  f=0.0021  <S**2>=0.000
       7 -> 16        -0.18576
      12 -> 16         0.59327
      12 -> 17        -0.12084
      13 -> 17        -0.16913

 Excited State   6:      Singlet-A      5.9514 eV  208.33 nm  f=0.0006  <S**2>=0.000
      12 -> 18        -0.20252
      12 -> 19        -0.10202
      12 -> 20         0.10959
      12 -> 22         0.10344
      12 -> 23         0.10466
      13 -> 17        -0.13083
      13 -> 18         0.45145
      13 -> 19         0.21114
      13 -> 20        -0.16235
      13 -> 22        -0.22201
      13 -> 23        -0.19771

 Excited State   7:      Singlet-A      6.0821 eV  203.85 nm  f=0.3752  <S**2>=0.000
      11 -> 16        -0.11921
      12 -> 14         0.51155
      13 -> 15         0.41638

 Excited State   8:      Singlet-A      6.2957 eV  196.93 nm  f=0.1345  <S**2>=0.000
      12 -> 15         0.65730
      13 -> 14        -0.18860

 Excited State   9:      Singlet-A      6.4599 eV  191.93 nm  f=0.0028  <S**2>=0.000
      13 -> 17         0.42784
      13 -> 19         0.51405

 Excited State  10:      Singlet-A      6.9523 eV  178.34 nm  f=0.0041  <S**2>=0.000
       9 -> 15        -0.19142
      10 -> 15        -0.14930
      11 -> 14         0.56543
      12 -> 17        -0.18351
      12 -> 19        -0.16900

 Excited State  11:      Singlet-A      6.9675 eV  177.95 nm  f=0.0003  <S**2>=0.000
      11 -> 14         0.27664
      12 -> 17         0.35653
      12 -> 19         0.36934
      12 -> 20        -0.19887
      12 -> 23         0.10729
      13 -> 18         0.15744
      13 -> 22         0.18192

 Excited State  12:      Singlet-A      7.3360 eV  169.01 nm  f=0.0004  <S**2>=0.000
       9 -> 14         0.21852
      10 -> 14         0.24067
      11 -> 15        -0.19262
      12 -> 17        -0.24602
      12 -> 19         0.23534
      12 -> 20         0.17982
      12 -> 21        -0.13423
      12 -> 23        -0.10616
      13 -> 17         0.10238
      13 -> 18         0.27365
      13 -> 19        -0.13256
      13 -> 21         0.13499
      13 -> 22         0.13904

 Excited State  13:      Singlet-A      7.3646 eV  168.35 nm  f=0.0008  <S**2>=0.000
       9 -> 14         0.34304
      10 -> 14         0.30522
      10 -> 15        -0.22883
      11 -> 15        -0.22579
      12 -> 17         0.13972
      12 -> 20        -0.11725
      12 -> 21         0.11175
      12 -> 23         0.13012
      13 -> 18        -0.11424
      13 -> 22        -0.22074

 Excited State  14:      Singlet-A      7.4566 eV  166.27 nm  f=0.0014  <S**2>=0.000
      11 -> 14         0.10346
      12 -> 18         0.39773
      12 -> 22        -0.21184
      13 -> 17        -0.16225
      13 -> 18         0.19359
      13 -> 19         0.18770
      13 -> 20         0.29204
      13 -> 24         0.22581

 Excited State  15:      Singlet-A      7.5465 eV  164.29 nm  f=0.0063  <S**2>=0.000
       9 -> 14        -0.14901
      12 -> 17        -0.12750
      12 -> 19         0.29928
      13 -> 20        -0.18832
      13 -> 21         0.37967
      13 -> 22        -0.26652
      13 -> 23         0.21117

 The electronic state is 1-A.
 Alpha  occ. eigenvalues --   -1.53853  -1.22285  -1.09437  -0.82109  -0.81098
 Alpha  occ. eigenvalues --   -0.67915  -0.59012  -0.56498  -0.50986  -0.50136
 Alpha  occ. eigenvalues --   -0.49838  -0.39099  -0.34323
 Alpha virt. eigenvalues --    0.02719   0.06145   0.09557   0.13511   0.14739
 Alpha virt. eigenvalues --    0.15384   0.17704   0.18430   0.19144   0.20825
 Alpha virt. eigenvalues --    0.22207

 Mulliken charges:
               1
     1  C   -0.203854
     2  C   -0.080219
     3  O   -0.113962
     4  C   -0.110175
     5  C   -0.188478
     6  H    0.156263
     7  H    0.201536
     8  H    0.182795
     9  H    0.156094
 Sum of Mulliken charges =   0.00000

 Dipole moment (field-independent basis, Debye):
    X=             -0.0961    Y=              0.3298    Z=             -0.0194  Tot=              0.3441
 N-N= 1.029200727657D+02 E-N=-1.701950654563D+02  KE=-1.648742192232D+01
 Orbital energies and kinetic energies (alpha):
                                 1                 2
   1         O                -1.538529         -1.293812
   2         O                -1.222850         -1.042984
   3         O                -1.094374         -0.959120
   4         O                -0.821090         -0.714236
   5         O                -0.810979         -0.720219
   6         O                -0.679148         -0.600568
   7         O                -0.590115         -0.480293

 Normal termination of Gaussian 09 at Tue Dec 15 16:25:37 2015.
