 Gaussian 09, Revision D.01,
 Gaussian 09:  ES64L-G09RevD.01 24-Apr-2013

 ------------------------------------------------------------
 #P AM1(Input,print) CIS(Singlets,NStates=15) pop(full) force
 ------------------------------------------------------------

 -----------------
 AM1-Reparam Input
 -----------------
 Symbolic Z-matrix:
 Charge =  0 Multiplicity = 1

                         Standard orientation:
 ---------------------------------------------------------------------
 Center     Atomic      Atomic             Coordinates (Angstroms)
 Number     Number       Type             X           Y           Z
 ---------------------------------------------------------------------
      1          6           0       -0.611481    1.018234   -0.012699
      2          6           0       -1.096582   -0.170793    0.015960
      3          8           0       -0.181562   -1.109748   -0.010608
      4          6           0        1.017743   -0.505011    0.001332
      5          6           0        0.894040    0.834652    0.013340
      6          1           0        1.602161    1.597933   -0.015683
      7          1           0        1.865715   -1.158445   -0.001804
      8          1           0       -2.192187   -0.563814    0.011929
      9          1           0       -1.045513    1.939813   -0.017174
 ---------------------------------------------------------------------

 SCF Done:  E(RAM1) =   1.89273940361     A.U. after   14 cycles

 Excitation energies and oscillator strengths:

 Excited State   1:      Singlet-A      5.2731 eV  235.12 nm  f=0.3561  <S**2>=0.000
      13 -> 14         0.69469
 This state for optimization and/or second-order correction.
 Total Energy, E(CIS) =   2.08652319144
 Copying the excited state density for this state as the 1-particle RhoCI density.

 Excited State   2:      Singlet-A      5.5617 eV  222.92 nm  f=0.0010  <S**2>=0.000
      13 -> 15         0.68420
      13 -> 18         0.11378

 Excited State   3:      Singlet-A      6.2086 eV  199.70 nm  f=0.0003  <S**2>=0.000
      12 -> 14         0.68688
      13 -> 16        -0.14059

 Excited State   4:      Singlet-A      6.2513 eV  198.33 nm  f=0.0012  <S**2>=0.000
      12 -> 14         0.15013
      13 -> 16         0.64911
      13 -> 17        -0.15991

 Excited State   5:      Singlet-A      7.5262 eV  164.74 nm  f=0.0003  <S**2>=0.000
      13 -> 16         0.13186
      13 -> 17         0.12983
      13 -> 18         0.62813
      13 -> 21         0.22672

 Excited State   6:      Singlet-A      7.8906 eV  157.13 nm  f=0.0137  <S**2>=0.000
      10 -> 14        -0.10363
      11 -> 14         0.57219
      13 -> 17        -0.37280

 Excited State   7:      Singlet-A      8.0705 eV  153.63 nm  f=0.0057  <S**2>=0.000
      11 -> 14         0.38973
      13 -> 17         0.54796
      13 -> 18        -0.13878

 Excited State   8:      Singlet-A      8.2749 eV  149.83 nm  f=0.1662  <S**2>=0.000
       8 -> 15         0.13092
      10 -> 14         0.13062
      12 -> 15         0.61368
      12 -> 16        -0.14275
      12 -> 18         0.18802

 Excited State   9:      Singlet-A      8.7000 eV  142.51 nm  f=0.0003  <S**2>=0.000
      13 -> 19         0.68367

 Excited State  10:      Singlet-A      8.8378 eV  140.29 nm  f=0.0534  <S**2>=0.000
       8 -> 16        -0.12095
      10 -> 14         0.48097
      12 -> 16         0.39659
      12 -> 18        -0.18468

 Excited State  11:      Singlet-A      9.0986 eV  136.27 nm  f=0.0519  <S**2>=0.000
       9 -> 15         0.15106
      10 -> 14         0.38271
      11 -> 15         0.22906
      11 -> 17        -0.13742
      12 -> 15        -0.26729
      12 -> 16        -0.24500
      12 -> 17         0.21872
      12 -> 18         0.20799

 Excited State  12:      Singlet-A      9.4649 eV  130.99 nm  f=0.0136  <S**2>=0.000
      10 -> 15        -0.18994
      13 -> 18        -0.21722
      13 -> 20        -0.33131
      13 -> 21         0.53125

 Excited State  13:      Singlet-A      9.5867 eV  129.33 nm  f=0.0849  <S**2>=0.000
       8 -> 16        -0.10090
      10 -> 14        -0.16446
      11 -> 16         0.16862
      11 -> 17        -0.16563
      12 -> 16         0.42329
      12 -> 18         0.34547
      12 -> 19         0.12978
      12 -> 21         0.10822
      13 -> 20        -0.15734
      13 -> 21        -0.11685

 Excited State  14:      Singlet-A      9.6410 eV  128.60 nm  f=0.0763  <S**2>=0.000
      12 -> 16         0.11864
      13 -> 20         0.55529
      13 -> 21         0.34259

 Excited State  15:      Singlet-A      9.7190 eV  127.57 nm  f=0.0342  <S**2>=0.000
       8 -> 15        -0.13250
       9 -> 15        -0.21568
      10 -> 14         0.12681
      10 -> 15         0.50220
      11 -> 15        -0.22409
      12 -> 18         0.20228
      13 -> 20        -0.10241

 The electronic state is 1-A.
 Alpha  occ. eigenvalues --   -1.96497  -1.21584  -0.99503  -0.82377  -0.79643
 Alpha  occ. eigenvalues --   -0.70288  -0.67336  -0.52158  -0.49005  -0.43288
 Alpha  occ. eigenvalues --   -0.42660  -0.36821  -0.26283
 Alpha virt. eigenvalues --    0.12968   0.15904   0.19377   0.27977   0.28262
 Alpha virt. eigenvalues --    0.30979   0.32949   0.34682   0.38046   0.46724
 Alpha virt. eigenvalues --    0.51488

 Mulliken charges:
               1
     1  C   -0.134020
     2  C   -1.883457
     3  O    3.123277
     4  C   -1.905682
     5  C   -0.121645
     6  H    0.154717
     7  H    0.302700
     8  H    0.308485
     9  H    0.155624
 Sum of Mulliken charges =   0.00000

 Dipole moment (field-independent basis, Debye):
    X=             -2.1472    Y=            -10.1571    Z=             -0.2847  Tot=             10.3855
 N-N= 1.048256111372D+02 E-N=-1.708014535313D+02  KE=-1.571543017937D+01
 Orbital energies and kinetic energies (alpha):
                                 1                 2
   1         O                -1.964973         -1.450374
   2         O                -1.215844         -1.079534
   3         O                -0.995026         -0.911959
   4         O                -0.823770         -0.620462
   5         O                -0.796428         -0.696721
   6         O                -0.702880         -0.577301
   7         O                -0.673362         -0.576741

 Normal termination of Gaussian 09 at Tue Dec 15 17:09:53 2015.
