 Gaussian 09, Revision D.01,
 Gaussian 09:  ES64L-G09RevD.01 24-Apr-2013

 ------------------------------------------------------------
 #P AM1(Input,print) CIS(Singlets,NStates=15) pop(full) force
 ------------------------------------------------------------

 -----------------
 AM1-Reparam Input
 -----------------
 Symbolic Z-matrix:
 Charge =  0 Multiplicity = 1

                         Standard orientation:
 ---------------------------------------------------------------------
 Center     Atomic      Atomic             Coordinates (Angstroms)
 Number     Number       Type             X           Y           Z
 ---------------------------------------------------------------------
      1          6           0        0.793690    0.909031   -0.010062
      2          6           0        1.055359   -0.510029    0.011774
      3          8           0       -0.149891   -1.129275   -0.013064
      4          6           0       -1.121935   -0.230682   -0.006400
      5          6           0       -0.571771    1.008855    0.009104
      6          1           0       -1.136870    2.020088    0.001615
      7          1           0       -2.183792   -0.585309    0.049894
      8          1           0        1.969325   -1.125736    0.039170
      9          1           0        1.618412    1.662100   -0.012663
 ---------------------------------------------------------------------

 SCF Done:  E(RAM1) =   1.07614744504     A.U. after   14 cycles

 Excitation energies and oscillator strengths:

 Excited State   1:      Singlet-A      5.8965 eV  210.27 nm  f=0.1791  <S**2>=0.000
      12 -> 16         0.14992
      13 -> 14         0.67234
 This state for optimization and/or second-order correction.
 Total Energy, E(CIS) =   1.29284017502
 Copying the excited state density for this state as the 1-particle RhoCI density.

 Excited State   2:      Singlet-A      6.7602 eV  183.40 nm  f=0.0044  <S**2>=0.000
      13 -> 15         0.66950
      13 -> 17         0.11598

 Excited State   3:      Singlet-A      7.2866 eV  170.15 nm  f=0.0134  <S**2>=0.000
      12 -> 14         0.58506
      13 -> 16        -0.38176

 Excited State   4:      Singlet-A      7.4012 eV  167.52 nm  f=0.0005  <S**2>=0.000
      10 -> 14        -0.10826
      11 -> 14         0.29529
      12 -> 15        -0.18870
      13 -> 15        -0.11384
      13 -> 17         0.55336
      13 -> 21         0.15306

 Excited State   5:      Singlet-A      7.4162 eV  167.18 nm  f=0.0012  <S**2>=0.000
       9 -> 14         0.10928
      10 -> 14        -0.16241
      11 -> 14         0.59095
      13 -> 17        -0.29329

 Excited State   6:      Singlet-A      7.8348 eV  158.25 nm  f=0.0009  <S**2>=0.000
       9 -> 14         0.20922
      10 -> 14         0.64235
      11 -> 14         0.15621

 Excited State   7:      Singlet-A      8.1747 eV  151.67 nm  f=0.0050  <S**2>=0.000
      12 -> 15         0.59254
      12 -> 17         0.14267
      12 -> 20         0.11934
      13 -> 17         0.13186
      13 -> 18        -0.22385

 Excited State   8:      Singlet-A      8.2741 eV  149.85 nm  f=0.2031  <S**2>=0.000
      11 -> 15         0.10982
      12 -> 14         0.37143
      13 -> 16         0.54542

 Excited State   9:      Singlet-A      8.6268 eV  143.72 nm  f=0.0010  <S**2>=0.000
      12 -> 15         0.20599
      13 -> 17         0.16143
      13 -> 18         0.57676
      13 -> 19        -0.20615
      13 -> 23         0.17187

 Excited State  10:      Singlet-A      8.6922 eV  142.64 nm  f=0.0213  <S**2>=0.000
       9 -> 16        -0.22239
      10 -> 15        -0.10643
      10 -> 16         0.34296
      11 -> 15        -0.18178
      11 -> 16         0.49328

 Excited State  11:      Singlet-A      8.8919 eV  139.43 nm  f=0.0354  <S**2>=0.000
      12 -> 15        -0.13897
      12 -> 16         0.25025
      12 -> 17         0.56739
      13 -> 19        -0.21615

 Excited State  12:      Singlet-A      8.9197 eV  139.00 nm  f=0.1720  <S**2>=0.000
      11 -> 15        -0.10828
      12 -> 16         0.56747
      12 -> 17        -0.26069
      13 -> 14        -0.11778

 Excited State  13:      Singlet-A      9.0194 eV  137.46 nm  f=0.0263  <S**2>=0.000
       9 -> 15        -0.16331
      10 -> 15         0.11233
      10 -> 17         0.10743
      11 -> 15         0.37683
      11 -> 16         0.10700
      12 -> 16         0.18607
      13 -> 19         0.24772
      13 -> 20         0.34764
      13 -> 22         0.10914

 Excited State  14:      Singlet-A      9.0611 eV  136.83 nm  f=0.0220  <S**2>=0.000
       9 -> 15         0.13708
      10 -> 15        -0.11591
      10 -> 17        -0.10942
      11 -> 15        -0.31425
      11 -> 16        -0.10721
      12 -> 16        -0.13570
      13 -> 18         0.10047
      13 -> 19         0.27934
      13 -> 20         0.41534
      13 -> 22         0.12318

 Excited State  15:      Singlet-A      9.2198 eV  134.48 nm  f=0.1199  <S**2>=0.000
       8 -> 15         0.10221
       9 -> 17        -0.18196
      10 -> 15         0.45468
      10 -> 17         0.21663
      10 -> 19        -0.18896
      11 -> 15        -0.18711
      11 -> 18         0.23987
      13 -> 14        -0.11479

 The electronic state is 1-A.
 Alpha  occ. eigenvalues --   -1.84027  -1.18945  -0.97826  -0.86597  -0.80353
 Alpha  occ. eigenvalues --   -0.72572  -0.71831  -0.61167  -0.55699  -0.51048
 Alpha  occ. eigenvalues --   -0.49873  -0.46606  -0.40176
 Alpha virt. eigenvalues --    0.03700   0.09189   0.10810   0.11286   0.17151
 Alpha virt. eigenvalues --    0.18270   0.19814   0.20916   0.26114   0.26798
 Alpha virt. eigenvalues --    0.28938

 Mulliken charges:
               1
     1  C   -0.104015
     2  C   -1.311267
     3  O    2.179321
     4  C   -1.298657
     5  C   -0.141338
     6  H    0.129846
     7  H    0.222896
     8  H    0.205784
     9  H    0.117430
 Sum of Mulliken charges =   0.00000

 Dipole moment (field-independent basis, Debye):
    X=             -1.2321    Y=             -6.4409    Z=             -0.0331  Tot=              6.5578
 N-N= 1.041434000792D+02 E-N=-1.708573418095D+02  KE=-1.494276654381D+01
 Orbital energies and kinetic energies (alpha):
                                 1                 2
   1         O                -1.840265         -1.257214
   2         O                -1.189449         -0.963203
   3         O                -0.978263         -0.773545
   4         O                -0.865972         -0.643480
   5         O                -0.803532         -0.656294
   6         O                -0.725725         -0.592850
   7         O                -0.718308         -0.525655

 Normal termination of Gaussian 09 at Tue Dec 15 17:05:31 2015.
