 Gaussian 09, Revision D.01,
 Gaussian 09:  ES64L-G09RevD.01 24-Apr-2013

 ------------------------------------------------------------
 #P AM1(Input,print) CIS(Singlets,NStates=15) pop(full) force
 ------------------------------------------------------------

 -----------------
 AM1-Reparam Input
 -----------------
 Symbolic Z-matrix:
 Charge =  0 Multiplicity = 1

                         Standard orientation:
 ---------------------------------------------------------------------
 Center     Atomic      Atomic             Coordinates (Angstroms)
 Number     Number       Type             X           Y           Z
 ---------------------------------------------------------------------
      1          6           0       -0.923480    0.800700    0.007144
      2          6           0       -1.009410   -0.554554   -0.002617
      3          8           0        0.229269   -1.121560    0.003120
      4          6           0        1.170285   -0.149929    0.002709
      5          6           0        0.523621    1.086046   -0.008737
      6          1           0        0.971874    2.054273    0.038401
      7          1           0        2.139677   -0.461506   -0.026468
      8          1           0       -1.856605   -1.193391    0.002057
      9          1           0       -1.655201    1.479529   -0.029949
 ---------------------------------------------------------------------

 SCF Done:  E(RAM1) =   1.11886934677     A.U. after   14 cycles

 Excitation energies and oscillator strengths:

 Excited State   1:      Singlet-A      5.4042 eV  229.42 nm  f=0.2245  <S**2>=0.000
      12 -> 15        -0.13595
      13 -> 14         0.68293
 This state for optimization and/or second-order correction.
 Total Energy, E(CIS) =   1.31747160799
 Copying the excited state density for this state as the 1-particle RhoCI density.

 Excited State   2:      Singlet-A      6.4629 eV  191.84 nm  f=0.0045  <S**2>=0.000
      13 -> 16         0.67859
      13 -> 19         0.13979

 Excited State   3:      Singlet-A      6.8923 eV  179.89 nm  f=0.0001  <S**2>=0.000
      13 -> 17         0.64242
      13 -> 18        -0.20697
      13 -> 21        -0.12953

 Excited State   4:      Singlet-A      6.9266 eV  179.00 nm  f=0.0026  <S**2>=0.000
      12 -> 14         0.43146
      13 -> 15         0.53671

 Excited State   5:      Singlet-A      7.1869 eV  172.51 nm  f=0.0002  <S**2>=0.000
       9 -> 14        -0.18630
      11 -> 14         0.67746

 Excited State   6:      Singlet-A      7.9689 eV  155.58 nm  f=0.2884  <S**2>=0.000
      12 -> 14         0.54461
      13 -> 15        -0.40882

 Excited State   7:      Singlet-A      8.0235 eV  154.53 nm  f=0.0010  <S**2>=0.000
      10 -> 14         0.66198
      11 -> 15        -0.18334

 Excited State   8:      Singlet-A      8.0947 eV  153.17 nm  f=0.0001  <S**2>=0.000
      12 -> 16        -0.19001
      13 -> 17         0.17394
      13 -> 18         0.61687
      13 -> 22        -0.13844

 Excited State   9:      Singlet-A      8.5792 eV  144.52 nm  f=0.0004  <S**2>=0.000
      12 -> 16         0.54310
      13 -> 18         0.14950
      13 -> 19        -0.21727
      13 -> 20        -0.28320

 Excited State  10:      Singlet-A      8.5981 eV  144.20 nm  f=0.0216  <S**2>=0.000
       6 -> 15         0.10077
       9 -> 15         0.24976
      10 -> 14         0.19764
      11 -> 15         0.59634

 Excited State  11:      Singlet-A      8.6294 eV  143.68 nm  f=0.0002  <S**2>=0.000
      12 -> 16         0.33581
      12 -> 17         0.10644
      13 -> 19         0.34120
      13 -> 20         0.44998

 Excited State  12:      Singlet-A      8.8713 eV  139.76 nm  f=0.1926  <S**2>=0.000
       9 -> 17        -0.15205
      11 -> 18        -0.11967
      12 -> 15         0.62299
      13 -> 14         0.12490

 Excited State  13:      Singlet-A      9.1317 eV  135.77 nm  f=0.0029  <S**2>=0.000
       7 -> 16         0.11749
      12 -> 17         0.59487
      13 -> 19         0.22571
      13 -> 20        -0.23059

 Excited State  14:      Singlet-A      9.2176 eV  134.51 nm  f=0.0006  <S**2>=0.000
       9 -> 14         0.65807
      11 -> 14         0.18469

 Excited State  15:      Singlet-A      9.2518 eV  134.01 nm  f=0.0456  <S**2>=0.000
       9 -> 16         0.26756
      10 -> 17         0.16777
      11 -> 16         0.54971
      11 -> 17         0.12651
      11 -> 19         0.16754

 The electronic state is 1-A.
 Alpha  occ. eigenvalues --   -1.82897  -1.17973  -0.99866  -0.88023  -0.81223
 Alpha  occ. eigenvalues --   -0.74729  -0.71292  -0.62046  -0.55910  -0.53648
 Alpha  occ. eigenvalues --   -0.50200  -0.47737  -0.38441
 Alpha virt. eigenvalues --    0.02377   0.09488   0.09943   0.11414   0.17937
 Alpha virt. eigenvalues --    0.19425   0.19946   0.21478   0.26072   0.27074
 Alpha virt. eigenvalues --    0.27576

 Mulliken charges:
               1
     1  C   -0.098139
     2  C   -1.264594
     3  O    2.148445
     4  C   -1.245341
     5  C   -0.140080
     6  H    0.110454
     7  H    0.187045
     8  H    0.205629
     9  H    0.096580
 Sum of Mulliken charges =   0.00000

 Dipole moment (field-independent basis, Debye):
    X=              1.1791    Y=             -6.8878    Z=              0.0056  Tot=              6.9880
 N-N= 1.042533737540D+02 E-N=-1.707930878959D+02  KE=-1.499622387144D+01
 Orbital energies and kinetic energies (alpha):
                                 1                 2
   1         O                -1.828972         -1.238616
   2         O                -1.179725         -0.961428
   3         O                -0.998660         -0.809921
   4         O                -0.880234         -0.645831
   5         O                -0.812228         -0.682316
   6         O                -0.747285         -0.599388
   7         O                -0.712921         -0.504134

 Normal termination of Gaussian 09 at Tue Dec 15 17:05:34 2015.
