 Gaussian 09, Revision D.01,
 Gaussian 09:  ES64L-G09RevD.01 24-Apr-2013

 ------------------------------------------------------------
 #P AM1(Input,print) CIS(Singlets,NStates=15) pop(full) force
 ------------------------------------------------------------

 -----------------
 AM1-Reparam Input
 -----------------
 Symbolic Z-matrix:
 Charge =  0 Multiplicity = 1

                         Standard orientation:
 ---------------------------------------------------------------------
 Center     Atomic      Atomic             Coordinates (Angstroms)
 Number     Number       Type             X           Y           Z
 ---------------------------------------------------------------------
      1          6           0       -0.876845    0.810863    0.003037
      2          6           0       -1.038661   -0.488756    0.018427
      3          8           0        0.198093   -1.086035   -0.031322
      4          6           0        1.112108   -0.203469    0.036920
      5          6           0        0.596026    1.014068   -0.009220
      6          1           0        1.077561    1.972741   -0.017671
      7          1           0        2.108694   -0.511949   -0.013008
      8          1           0       -1.906568   -1.134547    0.030369
      9          1           0       -1.620199    1.565802   -0.044097
 ---------------------------------------------------------------------

 SCF Done:  E(RAM1) =   1.85534306546     A.U. after   14 cycles

 Excitation energies and oscillator strengths:

 Excited State   1:      Singlet-A      5.1630 eV  240.14 nm  f=0.3668  <S**2>=0.000
      13 -> 14         0.69558
 This state for optimization and/or second-order correction.
 Total Energy, E(CIS) =   2.04508107465
 Copying the excited state density for this state as the 1-particle RhoCI density.

 Excited State   2:      Singlet-A      6.2139 eV  199.53 nm  f=0.0044  <S**2>=0.000
      13 -> 15         0.67861
      13 -> 17        -0.11336
      13 -> 18         0.10772

 Excited State   3:      Singlet-A      6.7157 eV  184.62 nm  f=0.0040  <S**2>=0.000
      13 -> 16         0.65953
      13 -> 17         0.16650
      13 -> 18         0.12575

 Excited State   4:      Singlet-A      7.1207 eV  174.12 nm  f=0.0001  <S**2>=0.000
      12 -> 14         0.70100

 Excited State   5:      Singlet-A      7.7164 eV  160.68 nm  f=0.0001  <S**2>=0.000
      13 -> 16        -0.17032
      13 -> 17         0.63752
      13 -> 21         0.18541

 Excited State   6:      Singlet-A      8.3308 eV  148.83 nm  f=0.0075  <S**2>=0.000
      10 -> 14         0.24079
      11 -> 14         0.64972
      13 -> 18         0.10895

 Excited State   7:      Singlet-A      8.7922 eV  141.02 nm  f=0.0072  <S**2>=0.000
      11 -> 14        -0.10725
      13 -> 15        -0.12269
      13 -> 17        -0.10870
      13 -> 18         0.65237
      13 -> 19        -0.11159

 Excited State   8:      Singlet-A      9.1409 eV  135.64 nm  f=0.1020  <S**2>=0.000
      10 -> 14         0.62083
      11 -> 14        -0.22232
      12 -> 16         0.10975

 Excited State   9:      Singlet-A      9.3704 eV  132.31 nm  f=0.0003  <S**2>=0.000
      13 -> 16        -0.11011
      13 -> 18         0.10815
      13 -> 19         0.67339

 Excited State  10:      Singlet-A      9.5762 eV  129.47 nm  f=0.0410  <S**2>=0.000
      10 -> 14         0.11216
      11 -> 16         0.10949
      11 -> 18         0.15255
      12 -> 15         0.44011
      12 -> 16        -0.24056
      12 -> 17        -0.36906

 Excited State  11:      Singlet-A      9.9752 eV  124.29 nm  f=0.0566  <S**2>=0.000
       9 -> 15         0.12427
      10 -> 15        -0.12241
      11 -> 15        -0.29388
      11 -> 18        -0.13549
      12 -> 15         0.46753
      12 -> 16         0.17629
      12 -> 17         0.21436
      12 -> 18         0.15075

 Excited State  12:      Singlet-A     10.1453 eV  122.21 nm  f=0.0285  <S**2>=0.000
      13 -> 17        -0.16464
      13 -> 20        -0.42545
      13 -> 21         0.52796

 Excited State  13:      Singlet-A     10.3346 eV  119.97 nm  f=0.1714  <S**2>=0.000
      11 -> 16         0.28663
      12 -> 16         0.55653
      12 -> 17        -0.18022
      12 -> 19         0.11237

 Excited State  14:      Singlet-A     10.4066 eV  119.14 nm  f=0.0750  <S**2>=0.000
      10 -> 15         0.14113
      13 -> 20         0.52898
      13 -> 21         0.40065

 Excited State  15:      Singlet-A     10.6427 eV  116.50 nm  f=0.0045  <S**2>=0.000
       7 -> 15        -0.10898
      10 -> 15         0.56536
      10 -> 16         0.15270
      11 -> 15        -0.28019
      13 -> 20        -0.12274
      13 -> 21        -0.10292

 The electronic state is 1-A.
 Alpha  occ. eigenvalues --   -2.03166  -1.27861  -1.03977  -0.91518  -0.85149
 Alpha  occ. eigenvalues --   -0.78083  -0.76500  -0.65494  -0.61513  -0.54282
 Alpha  occ. eigenvalues --   -0.53485  -0.49650  -0.36431
 Alpha virt. eigenvalues --    0.02960   0.09723   0.11758   0.19036   0.19539
 Alpha virt. eigenvalues --    0.22200   0.25136   0.26218   0.31073   0.38448
 Alpha virt. eigenvalues --    0.44530

 Mulliken charges:
               1
     1  C   -0.063302
     2  C   -1.876827
     3  O    3.171622
     4  C   -1.899630
     5  C   -0.234086
     6  H    0.165744
     7  H    0.301650
     8  H    0.288077
     9  H    0.146751
 Sum of Mulliken charges =   0.00000

 Dipole moment (field-independent basis, Debye):
    X=              1.8211    Y=             -9.8026    Z=             -0.8624  Tot=             10.0076
 N-N= 1.066277194955D+02 E-N=-1.720581272085D+02  KE=-1.574444032574D+01
 Orbital energies and kinetic energies (alpha):
                                 1                 2
   1         O                -2.031663         -1.425798
   2         O                -1.278606         -1.038468
   3         O                -1.039768         -0.892115
   4         O                -0.915181         -0.596728
   5         O                -0.851494         -0.716917
   6         O                -0.780830         -0.575486
   7         O                -0.765000         -0.557340

 Normal termination of Gaussian 09 at Tue Dec 15 17:09:05 2015.
