 Gaussian 09, Revision D.01,
 Gaussian 09:  ES64L-G09RevD.01 24-Apr-2013

 ------------------------------------------------------------
 #P AM1(Input,print) CIS(Singlets,NStates=15) pop(full) force
 ------------------------------------------------------------

 -----------------
 AM1-Reparam Input
 -----------------
 Symbolic Z-matrix:
 Charge =  0 Multiplicity = 1

                         Standard orientation:
 ---------------------------------------------------------------------
 Center     Atomic      Atomic             Coordinates (Angstroms)
 Number     Number       Type             X           Y           Z
 ---------------------------------------------------------------------
      1          6           0       -0.854886    0.855175    0.007371
      2          6           0       -1.039381   -0.523795   -0.018260
      3          8           0        0.161980   -1.110345    0.011342
      4          6           0        1.149741   -0.200510   -0.033841
      5          6           0        0.565601    1.020617    0.019370
      6          1           0        1.073919    1.971679   -0.025861
      7          1           0        2.154652   -0.508292    0.067459
      8          1           0       -1.846721   -1.133546    0.036402
      9          1           0       -1.604135    1.643992   -0.016579
 ---------------------------------------------------------------------

 SCF Done:  E(RAM1) =   2.02417869169     A.U. after   13 cycles

 Excitation energies and oscillator strengths:

 Excited State   1:      Singlet-A      5.4138 eV  229.01 nm  f=0.3538  <S**2>=0.000
      13 -> 14         0.69502
 This state for optimization and/or second-order correction.
 Total Energy, E(CIS) =   2.22313316054
 Copying the excited state density for this state as the 1-particle RhoCI density.

 Excited State   2:      Singlet-A      6.7670 eV  183.22 nm  f=0.0007  <S**2>=0.000
      12 -> 14         0.69576

 Excited State   3:      Singlet-A      6.9293 eV  178.93 nm  f=0.0186  <S**2>=0.000
      13 -> 15         0.65521
      13 -> 16         0.14827
      13 -> 17        -0.18611

 Excited State   4:      Singlet-A      7.1248 eV  174.02 nm  f=0.0004  <S**2>=0.000
      13 -> 15        -0.15336
      13 -> 16         0.59578
      13 -> 18         0.30908

 Excited State   5:      Singlet-A      7.6880 eV  161.27 nm  f=0.0057  <S**2>=0.000
      10 -> 14         0.50973
      11 -> 14        -0.47892

 Excited State   6:      Singlet-A      7.9865 eV  155.24 nm  f=0.0002  <S**2>=0.000
      13 -> 16        -0.22782
      13 -> 17        -0.10406
      13 -> 18         0.38260
      13 -> 19         0.49462
      13 -> 20        -0.10190
      13 -> 21         0.12416

 Excited State   7:      Singlet-A      8.6956 eV  142.58 nm  f=0.1267  <S**2>=0.000
      10 -> 14         0.47606
      11 -> 14         0.50792

 Excited State   8:      Singlet-A      9.0772 eV  136.59 nm  f=0.0119  <S**2>=0.000
      10 -> 16        -0.11197
      11 -> 16        -0.14046
      13 -> 15         0.14760
      13 -> 17         0.62924
      13 -> 18         0.14617
      13 -> 21         0.10530

 Excited State   9:      Singlet-A      9.3471 eV  132.64 nm  f=0.0007  <S**2>=0.000
      10 -> 15        -0.10372
      11 -> 15        -0.15917
      13 -> 16         0.17927
      13 -> 17         0.10315
      13 -> 18        -0.38867
      13 -> 19         0.48498
      13 -> 20         0.11195

 Excited State  10:      Singlet-A      9.5547 eV  129.76 nm  f=0.0065  <S**2>=0.000
       9 -> 16         0.13875
      10 -> 15         0.24094
      10 -> 17        -0.13575
      11 -> 15        -0.21239
      11 -> 17         0.12808
      12 -> 15         0.14761
      12 -> 16         0.26980
      12 -> 17        -0.12861
      12 -> 18         0.31990
      12 -> 19         0.25171

 Excited State  11:      Singlet-A      9.7522 eV  127.13 nm  f=0.0016  <S**2>=0.000
      13 -> 18         0.23114
      13 -> 20         0.54546
      13 -> 21        -0.37090

 Excited State  12:      Singlet-A      9.9965 eV  124.03 nm  f=0.0701  <S**2>=0.000
      11 -> 16         0.14154
      12 -> 15         0.32821
      12 -> 16        -0.17492
      12 -> 18        -0.12214
      13 -> 20         0.30446
      13 -> 21         0.44975

 Excited State  13:      Singlet-A     10.0058 eV  123.91 nm  f=0.0724  <S**2>=0.000
      10 -> 16        -0.13360
      12 -> 15         0.44249
      12 -> 16        -0.20105
      12 -> 17        -0.12473
      12 -> 18        -0.13405
      13 -> 20        -0.25078
      13 -> 21        -0.33195

 Excited State  14:      Singlet-A     10.2542 eV  120.91 nm  f=0.1785  <S**2>=0.000
      10 -> 15        -0.15535
      10 -> 16        -0.10860
      11 -> 15         0.37771
      11 -> 16         0.14643
      11 -> 17        -0.10712
      12 -> 15         0.19767
      12 -> 16         0.41864
      12 -> 19        -0.14755

 Excited State  15:      Singlet-A     10.3963 eV  119.26 nm  f=0.0188  <S**2>=0.000
       7 -> 16         0.10152
       9 -> 14         0.16546
      10 -> 15         0.50013
      10 -> 17        -0.10964
      11 -> 15         0.34152
      12 -> 16        -0.10581
      13 -> 16         0.14862
      13 -> 18        -0.10712

 The electronic state is 1-A.
 Alpha  occ. eigenvalues --   -1.95443  -1.19860  -0.97513  -0.82950  -0.79615
 Alpha  occ. eigenvalues --   -0.69419  -0.65913  -0.57210  -0.54510  -0.45321
 Alpha  occ. eigenvalues --   -0.45134  -0.42578  -0.31066
 Alpha virt. eigenvalues --    0.09478   0.18778   0.19878   0.25188   0.26265
 Alpha virt. eigenvalues --    0.27188   0.29142   0.29427   0.36858   0.44952
 Alpha virt. eigenvalues --    0.50716

 Mulliken charges:
               1
     1  C   -0.204062
     2  C   -2.029392
     3  O    3.199104
     4  C   -2.023456
     5  C   -0.213724
     6  H    0.264451
     7  H    0.379304
     8  H    0.364331
     9  H    0.263444
 Sum of Mulliken charges =   0.00000

 Dipole moment (field-independent basis, Debye):
    X=              1.5185    Y=             -9.0126    Z=              0.7722  Tot=              9.1722
 N-N= 1.047078802391D+02 E-N=-1.701023358414D+02  KE=-1.553438640605D+01
 Orbital energies and kinetic energies (alpha):
                                 1                 2
   1         O                -1.954429         -1.411261
   2         O                -1.198604         -1.052964
   3         O                -0.975130         -0.865379
   4         O                -0.829499         -0.615174
   5         O                -0.796153         -0.690328
   6         O                -0.694194         -0.569730
   7         O                -0.659134         -0.523377

 Normal termination of Gaussian 09 at Tue Dec 15 17:07:22 2015.
