 Gaussian 09, Revision D.01,
 Gaussian 09:  ES64L-G09RevD.01 24-Apr-2013

 ------------------------------------------------------------
 #P AM1(Input,print) CIS(Singlets,NStates=15) pop(full) force
 ------------------------------------------------------------

 -----------------
 AM1-Reparam Input
 -----------------
 Symbolic Z-matrix:
 Charge =  0 Multiplicity = 1

                         Standard orientation:
 ---------------------------------------------------------------------
 Center     Atomic      Atomic             Coordinates (Angstroms)
 Number     Number       Type             X           Y           Z
 ---------------------------------------------------------------------
      1          6           0       -1.019134    0.700298   -0.028078
      2          6           0       -0.896149   -0.702093    0.005899
      3          8           0        0.366618   -1.083516   -0.012352
      4          6           0        1.164285   -0.002440    0.015332
      5          6           0        0.363164    1.140054    0.027278
      6          1           0        0.743042    2.129363   -0.022659
      7          1           0        2.214252   -0.156025   -0.065589
      8          1           0       -1.697125   -1.438065    0.071687
      9          1           0       -1.866105    1.317940   -0.007204
 ---------------------------------------------------------------------

 SCF Done:  E(RAM1) =   1.65433010114     A.U. after   13 cycles

 Excitation energies and oscillator strengths:

 Excited State   1:      Singlet-A      5.4345 eV  228.14 nm  f=0.3550  <S**2>=0.000
      13 -> 14         0.69451
 This state for optimization and/or second-order correction.
 Total Energy, E(CIS) =   1.85404396100
 Copying the excited state density for this state as the 1-particle RhoCI density.

 Excited State   2:      Singlet-A      6.4734 eV  191.53 nm  f=0.0101  <S**2>=0.000
      13 -> 15         0.64182
      13 -> 17         0.24870

 Excited State   3:      Singlet-A      6.8619 eV  180.69 nm  f=0.0010  <S**2>=0.000
      12 -> 14         0.10643
      13 -> 16         0.60053
      13 -> 18        -0.11401
      13 -> 19         0.26380
      13 -> 20        -0.11894

 Excited State   4:      Singlet-A      7.0345 eV  176.25 nm  f=0.0009  <S**2>=0.000
      11 -> 14        -0.21832
      12 -> 14         0.63428
      13 -> 16        -0.13563

 Excited State   5:      Singlet-A      7.5252 eV  164.76 nm  f=0.0010  <S**2>=0.000
      12 -> 14        -0.14530
      13 -> 16        -0.14152
      13 -> 17        -0.15252
      13 -> 18         0.22436
      13 -> 19         0.46585
      13 -> 20        -0.18663
      13 -> 21        -0.32438

 Excited State   6:      Singlet-A      8.0199 eV  154.60 nm  f=0.0233  <S**2>=0.000
      10 -> 14         0.24933
      11 -> 16         0.11883
      13 -> 15        -0.18561
      13 -> 16        -0.12280
      13 -> 17         0.57182
      13 -> 19         0.14355

 Excited State   7:      Singlet-A      8.1825 eV  151.52 nm  f=0.0023  <S**2>=0.000
      10 -> 14         0.63108
      11 -> 14        -0.13824
      13 -> 17        -0.24428

 Excited State   8:      Singlet-A      8.4631 eV  146.50 nm  f=0.0270  <S**2>=0.000
      11 -> 14        -0.28496
      12 -> 14        -0.12316
      13 -> 16         0.16311
      13 -> 18         0.54569
      13 -> 19        -0.20105

 Excited State   9:      Singlet-A      8.4948 eV  145.95 nm  f=0.0908  <S**2>=0.000
      10 -> 14         0.16178
      11 -> 14         0.57228
      12 -> 14         0.19638
      13 -> 18         0.25080
      13 -> 19        -0.10540

 Excited State  10:      Singlet-A      8.8506 eV  140.09 nm  f=0.0011  <S**2>=0.000
      13 -> 18         0.22188
      13 -> 19         0.26515
      13 -> 21         0.60529

 Excited State  11:      Singlet-A      9.1319 eV  135.77 nm  f=0.0803  <S**2>=0.000
      13 -> 19         0.21437
      13 -> 20         0.64868

 Excited State  12:      Singlet-A      9.4911 eV  130.63 nm  f=0.0189  <S**2>=0.000
       8 -> 15        -0.12855
      10 -> 15         0.18090
      10 -> 16         0.12525
      10 -> 17         0.19714
      11 -> 15         0.16189
      12 -> 15         0.42012
      12 -> 16        -0.15659
      12 -> 17         0.14735
      12 -> 19        -0.16409
      12 -> 21         0.14121

 Excited State  13:      Singlet-A      9.5904 eV  129.28 nm  f=0.0050  <S**2>=0.000
      10 -> 15        -0.10166
      10 -> 17        -0.14305
      11 -> 15         0.49760
      11 -> 17         0.17150
      12 -> 15         0.14812
      12 -> 16         0.18156
      12 -> 19         0.11464
      12 -> 20        -0.10352
      12 -> 21        -0.14051
      13 -> 16         0.13779

 Excited State  14:      Singlet-A     10.0014 eV  123.97 nm  f=0.0377  <S**2>=0.000
       8 -> 16         0.10542
      10 -> 21        -0.10317
      11 -> 15        -0.30747
      11 -> 16        -0.13835
      11 -> 20         0.10132
      12 -> 15         0.38501
      12 -> 16         0.24429
      12 -> 19         0.10947
      12 -> 20        -0.20964
      12 -> 21        -0.15486

 Excited State  15:      Singlet-A     10.0763 eV  123.05 nm  f=0.0239  <S**2>=0.000
       7 -> 15         0.10126
      11 -> 16         0.41619
      12 -> 16         0.39815
      12 -> 17         0.14095
      12 -> 18        -0.12188
      12 -> 21         0.14999
      13 -> 15         0.11328

 The electronic state is 1-A.
 Alpha  occ. eigenvalues --   -1.91792  -1.20579  -0.99127  -0.82674  -0.80202
 Alpha  occ. eigenvalues --   -0.69077  -0.63454  -0.55270  -0.51733  -0.45410
 Alpha  occ. eigenvalues --   -0.42619  -0.41711  -0.29236
 Alpha virt. eigenvalues --    0.11223   0.17617   0.19099   0.24122   0.25975
 Alpha virt. eigenvalues --    0.27340   0.28178   0.28521   0.38826   0.47222
 Alpha virt. eigenvalues --    0.52743

 Mulliken charges:
               1
     1  C   -0.126343
     2  C   -1.985049
     3  O    3.187783
     4  C   -1.961984
     5  C   -0.106771
     6  H    0.178981
     7  H    0.306417
     8  H    0.322188
     9  H    0.184778
 Sum of Mulliken charges =   0.00000

 Dipole moment (field-independent basis, Debye):
    X=              2.8107    Y=             -9.0450    Z=             -0.3513  Tot=              9.4782
 N-N= 1.038222102178D+02 E-N=-1.691457255773D+02  KE=-1.573234738912D+01
 Orbital energies and kinetic energies (alpha):
                                 1                 2
   1         O                -1.917923         -1.397879
   2         O                -1.205794         -1.088085
   3         O                -0.991272         -0.898589
   4         O                -0.826740         -0.642228
   5         O                -0.802020         -0.705497
   6         O                -0.690766         -0.589484
   7         O                -0.634540         -0.505605

 Normal termination of Gaussian 09 at Tue Dec 15 17:06:51 2015.
