 Gaussian 09, Revision D.01,
 Gaussian 09:  ES64L-G09RevD.01 24-Apr-2013

 ------------------------------------------------------------
 #P AM1(Input,print) CIS(Singlets,NStates=15) pop(full) force
 ------------------------------------------------------------

 -----------------
 AM1-Reparam Input
 -----------------
 Symbolic Z-matrix:
 Charge =  0 Multiplicity = 1

                         Standard orientation:
 ---------------------------------------------------------------------
 Center     Atomic      Atomic             Coordinates (Angstroms)
 Number     Number       Type             X           Y           Z
 ---------------------------------------------------------------------
      1          6           0        0.891225    0.800723    0.015921
      2          6           0        1.016608   -0.509661    0.031629
      3          8           0       -0.214954   -1.150807   -0.014098
      4          6           0       -1.141199   -0.136255   -0.007561
      5          6           0       -0.532356    1.050949   -0.024795
      6          1           0       -1.111574    2.035757    0.060398
      7          1           0       -2.156911   -0.506916    0.075583
      8          1           0        1.919511   -1.151118   -0.050373
      9          1           0        1.662937    1.594196   -0.063994
 ---------------------------------------------------------------------

 SCF Done:  E(RAM1) =   2.56052183873     A.U. after   14 cycles

 Excitation energies and oscillator strengths:

 Excited State   1:      Singlet-A      5.1852 eV  239.11 nm  f=0.3380  <S**2>=0.000
      13 -> 14         0.69462
 This state for optimization and/or second-order correction.
 Total Energy, E(CIS) =   2.75107395174
 Copying the excited state density for this state as the 1-particle RhoCI density.

 Excited State   2:      Singlet-A      6.1029 eV  203.16 nm  f=0.0003  <S**2>=0.000
      10 -> 16        -0.10739
      13 -> 15         0.66627
      13 -> 19        -0.15559

 Excited State   3:      Singlet-A      6.1933 eV  200.19 nm  f=0.0063  <S**2>=0.000
      10 -> 15        -0.10659
      13 -> 16         0.66330
      13 -> 17        -0.17645

 Excited State   4:      Singlet-A      6.7947 eV  182.47 nm  f=0.0006  <S**2>=0.000
      12 -> 14         0.69656

 Excited State   5:      Singlet-A      7.6755 eV  161.53 nm  f=0.0017  <S**2>=0.000
      13 -> 17        -0.21395
      13 -> 18         0.55200
      13 -> 19         0.15331
      13 -> 21         0.30358

 Excited State   6:      Singlet-A      7.7238 eV  160.52 nm  f=0.0093  <S**2>=0.000
      11 -> 14         0.47429
      13 -> 16        -0.11601
      13 -> 17        -0.44697
      13 -> 18        -0.19187

 Excited State   7:      Singlet-A      7.9160 eV  156.63 nm  f=0.0046  <S**2>=0.000
      11 -> 14         0.50748
      13 -> 17         0.46041

 Excited State   8:      Singlet-A      8.5834 eV  144.45 nm  f=0.0004  <S**2>=0.000
      13 -> 18        -0.24388
      13 -> 19         0.64170

 Excited State   9:      Singlet-A      8.8510 eV  140.08 nm  f=0.0655  <S**2>=0.000
      10 -> 14         0.66012
      12 -> 16         0.17129

 Excited State  10:      Singlet-A      9.1597 eV  135.36 nm  f=0.0695  <S**2>=0.000
       8 -> 16         0.16710
      11 -> 17         0.18596
      12 -> 15         0.55665
      12 -> 18        -0.23480
      12 -> 19        -0.10058

 Excited State  11:      Singlet-A      9.2416 eV  134.16 nm  f=0.0025  <S**2>=0.000
      13 -> 18        -0.28275
      13 -> 19        -0.15272
      13 -> 20        -0.23620
      13 -> 21         0.57081

 Excited State  12:      Singlet-A      9.5581 eV  129.72 nm  f=0.1108  <S**2>=0.000
      10 -> 15        -0.11935
      11 -> 15         0.17396
      11 -> 16         0.15964
      11 -> 17        -0.13857
      12 -> 15         0.23192
      12 -> 16         0.23765
      12 -> 17        -0.11751
      12 -> 18         0.12751
      13 -> 20         0.44812
      13 -> 21         0.16531

 Excited State  13:      Singlet-A      9.5929 eV  129.25 nm  f=0.0895  <S**2>=0.000
      10 -> 14         0.10717
      11 -> 15        -0.19464
      11 -> 17         0.10416
      12 -> 15        -0.16839
      12 -> 16        -0.35027
      12 -> 17         0.10868
      13 -> 20         0.44889
      13 -> 21         0.17042

 Excited State  14:      Singlet-A      9.7104 eV  127.68 nm  f=0.1880  <S**2>=0.000
       8 -> 15         0.10532
      10 -> 14        -0.12292
      11 -> 16        -0.29208
      11 -> 17         0.24058
      12 -> 15        -0.14465
      12 -> 16         0.42362
      12 -> 18        -0.25561
      13 -> 20         0.11796

 Excited State  15:      Singlet-A      9.9975 eV  124.02 nm  f=0.0181  <S**2>=0.000
       7 -> 15         0.12089
      10 -> 15         0.36000
      10 -> 16         0.49468
      11 -> 15        -0.13037
      13 -> 15         0.12532

 The electronic state is 1-A.
 Alpha  occ. eigenvalues --   -1.73017  -1.15389  -0.94883  -0.80216  -0.75800
 Alpha  occ. eigenvalues --   -0.66408  -0.64147  -0.54071  -0.49920  -0.43608
 Alpha  occ. eigenvalues --   -0.42782  -0.39556  -0.27274
 Alpha virt. eigenvalues --    0.12210   0.17675   0.17979   0.25705   0.27468
 Alpha virt. eigenvalues --    0.29773   0.31668   0.32970   0.38180   0.47769
 Alpha virt. eigenvalues --    0.51689

 Mulliken charges:
               1
     1  C   -0.058986
     2  C   -1.904838
     3  O    3.221580
     4  C   -1.891898
     5  C   -0.100023
     6  H    0.118607
     7  H    0.242012
     8  H    0.260052
     9  H    0.113493
 Sum of Mulliken charges =   0.00000

 Dipole moment (field-independent basis, Debye):
    X=             -1.8691    Y=            -11.0933    Z=             -0.3469  Tot=             11.2550
 N-N= 1.034854190837D+02 E-N=-1.683203431006D+02  KE=-1.498807398593D+01
 Orbital energies and kinetic energies (alpha):
                                 1                 2
   1         O                -1.730166         -1.221290
   2         O                -1.153892         -1.006976
   3         O                -0.948827         -0.870221
   4         O                -0.802158         -0.606129
   5         O                -0.758000         -0.683541
   6         O                -0.664078         -0.556046
   7         O                -0.641471         -0.525491

 Normal termination of Gaussian 09 at Tue Dec 15 17:06:27 2015.
