 Gaussian 09, Revision D.01,
 Gaussian 09:  ES64L-G09RevD.01 24-Apr-2013

 ------------------------------------------------------------
 #P AM1(Input,print) CIS(Singlets,NStates=15) pop(full) force
 ------------------------------------------------------------

 -----------------
 AM1-Reparam Input
 -----------------
 Symbolic Z-matrix:
 Charge =  0 Multiplicity = 1

                         Standard orientation:
 ---------------------------------------------------------------------
 Center     Atomic      Atomic             Coordinates (Angstroms)
 Number     Number       Type             X           Y           Z
 ---------------------------------------------------------------------
      1          6           0       -0.409688    1.107866    0.020502
      2          6           0       -1.136864   -0.016702   -0.004374
      3          8           0       -0.361389   -1.094562    0.000825
      4          6           0        0.901189   -0.638383    0.008814
      5          6           0        1.003535    0.698559   -0.022100
      6          1           0        1.949464    1.271398    0.049859
      7          1           0        1.671334   -1.509186   -0.021189
      8          1           0       -2.193206   -0.109073   -0.007104
      9          1           0       -0.685512    2.195320   -0.045213
 ---------------------------------------------------------------------

 SCF Done:  E(RAM1) =   2.12323946744     A.U. after   13 cycles

 Excitation energies and oscillator strengths:

 Excited State   1:      Singlet-A      5.3506 eV  231.72 nm  f=0.3619  <S**2>=0.000
      13 -> 14         0.69637
 This state for optimization and/or second-order correction.
 Total Energy, E(CIS) =   2.31987120814
 Copying the excited state density for this state as the 1-particle RhoCI density.

 Excited State   2:      Singlet-A      5.9437 eV  208.60 nm  f=0.0008  <S**2>=0.000
      11 -> 15        -0.11110
      13 -> 15         0.67914
      13 -> 17        -0.11170

 Excited State   3:      Singlet-A      6.4732 eV  191.53 nm  f=0.0024  <S**2>=0.000
      13 -> 16         0.67520
      13 -> 19         0.11845

 Excited State   4:      Singlet-A      6.9548 eV  178.27 nm  f=0.0005  <S**2>=0.000
      12 -> 14         0.70135

 Excited State   5:      Singlet-A      7.7581 eV  159.81 nm  f=0.0022  <S**2>=0.000
      13 -> 15         0.10600
      13 -> 17         0.51933
      13 -> 18        -0.30356
      13 -> 19         0.22031
      13 -> 21        -0.24350

 Excited State   6:      Singlet-A      8.1792 eV  151.58 nm  f=0.0079  <S**2>=0.000
      10 -> 14         0.54443
      11 -> 14        -0.19271
      13 -> 17         0.18912
      13 -> 18         0.29647
      13 -> 19        -0.10630
      13 -> 21         0.13555

 Excited State   7:      Singlet-A      8.3561 eV  148.37 nm  f=0.0009  <S**2>=0.000
      10 -> 14        -0.36547
      11 -> 14         0.13237
      13 -> 17         0.39089
      13 -> 18         0.36980
      13 -> 21         0.17088

 Excited State   8:      Singlet-A      8.8201 eV  140.57 nm  f=0.0015  <S**2>=0.000
      13 -> 17        -0.11425
      13 -> 18         0.32740
      13 -> 19         0.59420

 Excited State   9:      Singlet-A      8.9376 eV  138.72 nm  f=0.0664  <S**2>=0.000
       8 -> 15         0.11065
      10 -> 14         0.21429
      11 -> 14         0.58850
      12 -> 15        -0.22564
      13 -> 22        -0.12242

 Excited State  10:      Singlet-A      9.2970 eV  133.36 nm  f=0.1414  <S**2>=0.000
       8 -> 15        -0.16320
      10 -> 17         0.10367
      11 -> 14         0.19437
      12 -> 15         0.53580
      12 -> 16        -0.21942
      12 -> 17        -0.11959
      12 -> 18         0.12917
      12 -> 19        -0.10124

 Excited State  11:      Singlet-A      9.4432 eV  131.29 nm  f=0.0012  <S**2>=0.000
      13 -> 18        -0.24881
      13 -> 19         0.19974
      13 -> 21         0.61097

 Excited State  12:      Singlet-A      9.6485 eV  128.50 nm  f=0.1069  <S**2>=0.000
      11 -> 15        -0.17116
      13 -> 20         0.65090

 Excited State  13:      Singlet-A      9.8673 eV  125.65 nm  f=0.0193  <S**2>=0.000
       7 -> 15         0.10760
      11 -> 15         0.57975
      12 -> 16        -0.22899
      13 -> 15         0.12341
      13 -> 20         0.16994

 Excited State  14:      Singlet-A      9.9048 eV  125.18 nm  f=0.0746  <S**2>=0.000
      10 -> 15         0.22474
      11 -> 14         0.14419
      11 -> 15         0.25074
      12 -> 15         0.21150
      12 -> 16         0.49541
      12 -> 18        -0.14814

 Excited State  15:      Singlet-A     10.1057 eV  122.69 nm  f=0.1476  <S**2>=0.000
       9 -> 15        -0.10889
      10 -> 15         0.31264
      10 -> 16         0.21589
      10 -> 17        -0.22268
      12 -> 16        -0.29970
      12 -> 17         0.24567
      12 -> 18        -0.25090
      12 -> 21        -0.11467

 The electronic state is 1-A.
 Alpha  occ. eigenvalues --   -1.94949  -1.18567  -0.93055  -0.80891  -0.77319
 Alpha  occ. eigenvalues --   -0.68863  -0.66647  -0.54238  -0.53322  -0.44840
 Alpha  occ. eigenvalues --   -0.44613  -0.40769  -0.28265
 Alpha virt. eigenvalues --    0.11617   0.15680   0.18381   0.25846   0.27257
 Alpha virt. eigenvalues --    0.29718   0.30946   0.32527   0.33699   0.42029
 Alpha virt. eigenvalues --    0.46131

 Mulliken charges:
               1
     1  C   -0.164194
     2  C   -1.886694
     3  O    3.196945
     4  C   -1.863148
     5  C   -0.140829
     6  H    0.156872
     7  H    0.260908
     8  H    0.282013
     9  H    0.158128
 Sum of Mulliken charges =   0.00000

 Dipole moment (field-independent basis, Debye):
    X=             -3.1105    Y=            -10.2421    Z=             -0.0765  Tot=             10.7043
 N-N= 1.042349807805D+02 E-N=-1.695876319101D+02  KE=-1.530909428750D+01
 Orbital energies and kinetic energies (alpha):
                                 1                 2
   1         O                -1.949485         -1.387297
   2         O                -1.185669         -1.043863
   3         O                -0.930548         -0.876724
   4         O                -0.808909         -0.560818
   5         O                -0.773189         -0.685180
   6         O                -0.688631         -0.572327
   7         O                -0.666473         -0.530489

 Normal termination of Gaussian 09 at Tue Dec 15 17:09:26 2015.
