 Gaussian 09, Revision D.01,
 Gaussian 09:  ES64L-G09RevD.01 24-Apr-2013

 ------------------------------------------------------------
 #P AM1(Input,print) CIS(Singlets,NStates=15) pop(full) force
 ------------------------------------------------------------

 -----------------
 AM1-Reparam Input
 -----------------
 Symbolic Z-matrix:
 Charge =  0 Multiplicity = 1

                         Standard orientation:
 ---------------------------------------------------------------------
 Center     Atomic      Atomic             Coordinates (Angstroms)
 Number     Number       Type             X           Y           Z
 ---------------------------------------------------------------------
      1          6           0       -0.641123    1.005779   -0.031384
      2          6           0       -1.129898   -0.283423    0.038843
      3          8           0       -0.049575   -1.188788   -0.025569
      4          6           0        1.067270   -0.347998    0.002481
      5          6           0        0.740796    0.891495    0.010900
      6          1           0        1.483228    1.728144    0.013694
      7          1           0        2.054875   -0.910209    0.044960
      8          1           0       -2.029750   -0.737221    0.024056
      9          1           0       -1.334025    1.834473   -0.003191
 ---------------------------------------------------------------------

 SCF Done:  E(RAM1) =   2.88371313535     A.U. after   13 cycles

 Excitation energies and oscillator strengths:

 Excited State   1:      Singlet-A      5.3722 eV  230.79 nm  f=0.3080  <S**2>=0.000
      13 -> 14         0.69209
 This state for optimization and/or second-order correction.
 Total Energy, E(CIS) =   3.08113870444
 Copying the excited state density for this state as the 1-particle RhoCI density.

 Excited State   2:      Singlet-A      6.1076 eV  203.00 nm  f=0.0004  <S**2>=0.000
      10 -> 15         0.13295
      13 -> 15         0.67335
      13 -> 17        -0.10116

 Excited State   3:      Singlet-A      6.6695 eV  185.90 nm  f=0.0039  <S**2>=0.000
      10 -> 16        -0.11195
      13 -> 16         0.63595
      13 -> 17        -0.22121
      13 -> 19        -0.14994

 Excited State   4:      Singlet-A      7.0270 eV  176.44 nm  f=0.0014  <S**2>=0.000
      12 -> 14         0.69482

 Excited State   5:      Singlet-A      7.6488 eV  162.10 nm  f=0.0116  <S**2>=0.000
      11 -> 14         0.63409
      13 -> 16        -0.10948
      13 -> 17        -0.26000

 Excited State   6:      Singlet-A      7.8345 eV  158.25 nm  f=0.0102  <S**2>=0.000
      11 -> 14         0.28750
      13 -> 15         0.10033
      13 -> 16         0.12017
      13 -> 17         0.57469
      13 -> 18         0.12719
      13 -> 19        -0.14916

 Excited State   7:      Singlet-A      7.9863 eV  155.25 nm  f=0.0005  <S**2>=0.000
      13 -> 16        -0.12398
      13 -> 17        -0.14251
      13 -> 18         0.45633
      13 -> 19        -0.14141
      13 -> 21        -0.45416

 Excited State   8:      Singlet-A      8.5298 eV  145.35 nm  f=0.0013  <S**2>=0.000
      13 -> 16         0.13280
      13 -> 18         0.19264
      13 -> 19         0.63644
      13 -> 21        -0.10417

 Excited State   9:      Singlet-A      8.7108 eV  142.33 nm  f=0.0388  <S**2>=0.000
       8 -> 15        -0.10009
      10 -> 14         0.62037
      12 -> 15         0.24977

 Excited State  10:      Singlet-A      9.0567 eV  136.90 nm  f=0.0024  <S**2>=0.000
      13 -> 18         0.47661
      13 -> 21         0.49968

 Excited State  11:      Singlet-A      9.1727 eV  135.17 nm  f=0.1465  <S**2>=0.000
       8 -> 15        -0.14232
      10 -> 14        -0.28383
      11 -> 17        -0.11774
      12 -> 15         0.55432
      12 -> 16        -0.14834
      12 -> 18        -0.14199

 Excited State  12:      Singlet-A      9.4021 eV  131.87 nm  f=0.1017  <S**2>=0.000
       9 -> 15        -0.13575
      11 -> 15        -0.25561
      11 -> 16        -0.13077
      11 -> 17         0.25670
      12 -> 15         0.24098
      12 -> 16         0.16866
      12 -> 17        -0.16498
      12 -> 18         0.17816
      12 -> 21        -0.10185
      13 -> 20         0.34802

 Excited State  13:      Singlet-A      9.4838 eV  130.73 nm  f=0.0923  <S**2>=0.000
      11 -> 15         0.15949
      11 -> 17        -0.15762
      12 -> 16        -0.10695
      12 -> 17         0.10888
      12 -> 18        -0.10449
      13 -> 20         0.58888

 Excited State  14:      Singlet-A      9.8064 eV  126.43 nm  f=0.0056  <S**2>=0.000
       7 -> 15        -0.13971
      10 -> 15         0.63798
      10 -> 16         0.10704
      13 -> 15        -0.15061

 Excited State  15:      Singlet-A      9.9523 eV  124.58 nm  f=0.1171  <S**2>=0.000
       8 -> 15         0.11837
       9 -> 15        -0.13843
       9 -> 16        -0.12066
      11 -> 15        -0.19226
      11 -> 16         0.43618
      11 -> 17        -0.16660
      11 -> 19        -0.23959
      12 -> 16         0.19600
      12 -> 17        -0.21924
      12 -> 18        -0.10938

 The electronic state is 1-A.
 Alpha  occ. eigenvalues --   -1.69929  -1.12950  -0.91784  -0.78344  -0.75113
 Alpha  occ. eigenvalues --   -0.65839  -0.62885  -0.52185  -0.49887  -0.41886
 Alpha  occ. eigenvalues --   -0.41116  -0.39124  -0.27209
 Alpha virt. eigenvalues --    0.13594   0.17447   0.21189   0.25569   0.28813
 Alpha virt. eigenvalues --    0.29259   0.31400   0.32638   0.34457   0.44155
 Alpha virt. eigenvalues --    0.46951

 Mulliken charges:
               1
     1  C   -0.158728
     2  C   -1.935488
     3  O    3.201327
     4  C   -1.905384
     5  C   -0.113620
     6  H    0.170572
     7  H    0.289295
     8  H    0.274499
     9  H    0.177528
 Sum of Mulliken charges =   0.00000

 Dipole moment (field-independent basis, Debye):
    X=              0.3196    Y=            -11.5165    Z=             -0.5495  Tot=             11.5341
 N-N= 1.038554004024D+02 E-N=-1.690140647235D+02  KE=-1.476425465962D+01
 Orbital energies and kinetic energies (alpha):
                                 1                 2
   1         O                -1.699291         -1.179709
   2         O                -1.129502         -1.000087
   3         O                -0.917836         -0.863257
   4         O                -0.783445         -0.593678
   5         O                -0.751133         -0.666180
   6         O                -0.658393         -0.563379
   7         O                -0.628850         -0.528353

 Normal termination of Gaussian 09 at Tue Dec 15 17:06:05 2015.
