 Gaussian 09, Revision D.01,
 Gaussian 09:  ES64L-G09RevD.01 24-Apr-2013

 ------------------------------------------------------------
 #P AM1(Input,print) CIS(Singlets,NStates=15) pop(full) force
 ------------------------------------------------------------

 -----------------
 AM1-Reparam Input
 -----------------
 Symbolic Z-matrix:
 Charge =  0 Multiplicity = 1

                         Standard orientation:
 ---------------------------------------------------------------------
 Center     Atomic      Atomic             Coordinates (Angstroms)
 Number     Number       Type             X           Y           Z
 ---------------------------------------------------------------------
      1          6           0       -0.357273    1.107183    0.008426
      2          6           0       -1.134583   -0.015534   -0.019840
      3          8           0       -0.369875   -1.079863    0.012951
      4          6           0        0.918742   -0.623146   -0.030174
      5          6           0        0.961139    0.656778    0.000726
      6          1           0        1.851394    1.255369    0.024804
      7          1           0        1.690044   -1.408432    0.072972
      8          1           0       -2.200424   -0.150930    0.036690
      9          1           0       -0.710163    2.191213    0.007102
 ---------------------------------------------------------------------

 SCF Done:  E(RAM1) =   2.87110014739     A.U. after   14 cycles

 Excitation energies and oscillator strengths:

 Excited State   1:      Singlet-A      5.3908 eV  229.99 nm  f=0.3233  <S**2>=0.000
      13 -> 14         0.69427
 This state for optimization and/or second-order correction.
 Total Energy, E(CIS) =   3.06920666934
 Copying the excited state density for this state as the 1-particle RhoCI density.

 Excited State   2:      Singlet-A      6.4163 eV  193.23 nm  f=0.0036  <S**2>=0.000
      13 -> 15         0.65638
      13 -> 17         0.20678

 Excited State   3:      Singlet-A      6.4598 eV  191.93 nm  f=0.0010  <S**2>=0.000
      10 -> 15        -0.10548
      13 -> 16         0.64856
      13 -> 17         0.10623
      13 -> 18         0.15828
      13 -> 19        -0.12845

 Excited State   4:      Singlet-A      6.8195 eV  181.81 nm  f=0.0002  <S**2>=0.000
       9 -> 14         0.11819
      12 -> 14         0.69238

 Excited State   5:      Singlet-A      7.6992 eV  161.04 nm  f=0.0134  <S**2>=0.000
      11 -> 14         0.56971
      13 -> 15        -0.12651
      13 -> 17         0.35891
      13 -> 18        -0.11284

 Excited State   6:      Singlet-A      7.8285 eV  158.38 nm  f=0.0012  <S**2>=0.000
      11 -> 14         0.31240
      13 -> 17        -0.29493
      13 -> 18         0.38786
      13 -> 20         0.21077
      13 -> 21        -0.30565

 Excited State   7:      Singlet-A      7.9204 eV  156.54 nm  f=0.0043  <S**2>=0.000
      10 -> 16         0.10740
      11 -> 14        -0.24936
      13 -> 16        -0.16071
      13 -> 17         0.47036
      13 -> 18         0.29629
      13 -> 20         0.13206
      13 -> 21        -0.23538

 Excited State   8:      Singlet-A      8.5580 eV  144.87 nm  f=0.0004  <S**2>=0.000
      13 -> 16         0.12569
      13 -> 19         0.66757
      13 -> 21        -0.12746

 Excited State   9:      Singlet-A      8.7644 eV  141.46 nm  f=0.0602  <S**2>=0.000
      10 -> 14         0.62496
      12 -> 15         0.21027

 Excited State  10:      Singlet-A      8.9376 eV  138.72 nm  f=0.0211  <S**2>=0.000
      13 -> 18         0.45328
      13 -> 19         0.14240
      13 -> 20        -0.35157
      13 -> 21         0.37180

 Excited State  11:      Singlet-A      9.2122 eV  134.59 nm  f=0.0539  <S**2>=0.000
       8 -> 15         0.15151
      10 -> 14         0.21606
      11 -> 17        -0.19177
      12 -> 15        -0.19286
      12 -> 16         0.48295
      12 -> 18         0.24690
      12 -> 21        -0.10777

 Excited State  12:      Singlet-A      9.4490 eV  131.21 nm  f=0.0726  <S**2>=0.000
      13 -> 20         0.54350
      13 -> 21         0.41277

 Excited State  13:      Singlet-A      9.4933 eV  130.60 nm  f=0.0890  <S**2>=0.000
      10 -> 14        -0.13935
      11 -> 15        -0.21202
      11 -> 16         0.14990
      11 -> 17        -0.12307
      12 -> 15         0.55240
      12 -> 17         0.10452
      12 -> 18         0.15036

 Excited State  14:      Singlet-A      9.5784 eV  129.44 nm  f=0.1412  <S**2>=0.000
       9 -> 16        -0.17802
      11 -> 15         0.28936
      11 -> 16         0.21529
      11 -> 17         0.27652
      12 -> 16         0.36788
      12 -> 17         0.15853
      12 -> 18        -0.12296
      12 -> 19        -0.15610

 Excited State  15:      Singlet-A      9.9224 eV  124.95 nm  f=0.0013  <S**2>=0.000
       7 -> 16         0.10896
      10 -> 15         0.45168
      10 -> 16         0.43490
      10 -> 17         0.11955
      11 -> 15        -0.10789
      13 -> 16         0.15058
      13 -> 21         0.10268

 The electronic state is 1-A.
 Alpha  occ. eigenvalues --   -1.73969  -1.13830  -0.93044  -0.79562  -0.75138
 Alpha  occ. eigenvalues --   -0.66417  -0.64674  -0.53458  -0.49078  -0.43248
 Alpha  occ. eigenvalues --   -0.42523  -0.39462  -0.28321
 Alpha virt. eigenvalues --    0.12529   0.18156   0.18370   0.24791   0.27112
 Alpha virt. eigenvalues --    0.28485   0.29840   0.31682   0.38759   0.47829
 Alpha virt. eigenvalues --    0.51609

 Mulliken charges:
               1
     1  C   -0.186675
     2  C   -1.971249
     3  O    3.207944
     4  C   -1.924352
     5  C   -0.090316
     6  H    0.173748
     7  H    0.297343
     8  H    0.312321
     9  H    0.181237
 Sum of Mulliken charges =   0.00000

 Dipole moment (field-independent basis, Debye):
    X=             -3.0807    Y=             -9.7940    Z=              0.8230  Tot=             10.3001
 N-N= 1.048143066987D+02 E-N=-1.705920192159D+02  KE=-1.483986904618D+01
 Orbital energies and kinetic energies (alpha):
                                 1                 2
   1         O                -1.739694         -1.250695
   2         O                -1.138301         -0.998748
   3         O                -0.930443         -0.852466
   4         O                -0.795620         -0.591811
   5         O                -0.751385         -0.678602
   6         O                -0.664169         -0.560358
   7         O                -0.646742         -0.540332

 Normal termination of Gaussian 09 at Tue Dec 15 17:06:07 2015.
