 Gaussian 09, Revision D.01,
 Gaussian 09:  ES64L-G09RevD.01 24-Apr-2013

 ------------------------------------------------------------
 #P AM1(Input,print) CIS(Singlets,NStates=15) pop(full) force
 ------------------------------------------------------------

 -----------------
 AM1-Reparam Input
 -----------------
 Symbolic Z-matrix:
 Charge =  0 Multiplicity = 1

                         Standard orientation:
 ---------------------------------------------------------------------
 Center     Atomic      Atomic             Coordinates (Angstroms)
 Number     Number       Type             X           Y           Z
 ---------------------------------------------------------------------
      1          6           0       -0.743460    0.905586    0.007329
      2          6           0       -1.067291   -0.314285    0.004573
      3          8           0        0.009564   -1.178529    0.003626
      4          6           0        1.093313   -0.336497   -0.019341
      5          6           0        0.704809    0.997165   -0.017738
      6          1           0        1.398201    1.779010    0.077998
      7          1           0        2.038640   -0.796708    0.062001
      8          1           0       -2.043865   -0.840370   -0.004796
      9          1           0       -1.393711    1.774489   -0.013147
 ---------------------------------------------------------------------

 SCF Done:  E(RAM1) =   1.78323351434     A.U. after   14 cycles

 Excitation energies and oscillator strengths:

 Excited State   1:      Singlet-A      5.2890 eV  234.42 nm  f=0.3597  <S**2>=0.000
      13 -> 14         0.69486
 This state for optimization and/or second-order correction.
 Total Energy, E(CIS) =   1.97760014831
 Copying the excited state density for this state as the 1-particle RhoCI density.

 Excited State   2:      Singlet-A      6.6205 eV  187.27 nm  f=0.0004  <S**2>=0.000
      13 -> 15         0.68172

 Excited State   3:      Singlet-A      6.9182 eV  179.21 nm  f=0.0016  <S**2>=0.000
      12 -> 14         0.68103
      13 -> 16         0.16514

 Excited State   4:      Singlet-A      6.9662 eV  177.98 nm  f=0.0024  <S**2>=0.000
      12 -> 14        -0.17549
      13 -> 16         0.64424
      13 -> 17        -0.16440

 Excited State   5:      Singlet-A      8.0549 eV  153.92 nm  f=0.0073  <S**2>=0.000
      11 -> 14         0.69771

 Excited State   6:      Singlet-A      8.6181 eV  143.87 nm  f=0.0001  <S**2>=0.000
      13 -> 16        -0.12786
      13 -> 17        -0.41837
      13 -> 18         0.48183
      13 -> 22        -0.22465

 Excited State   7:      Singlet-A      9.0090 eV  137.62 nm  f=0.0130  <S**2>=0.000
      13 -> 17         0.52164
      13 -> 18         0.42376
      13 -> 19        -0.11635

 Excited State   8:      Singlet-A      9.3124 eV  133.14 nm  f=0.0385  <S**2>=0.000
       8 -> 15         0.13634
      10 -> 14         0.51287
      12 -> 15        -0.37833
      12 -> 17        -0.14273
      13 -> 20         0.11733

 Excited State   9:      Singlet-A      9.4985 eV  130.53 nm  f=0.0015  <S**2>=0.000
      13 -> 18         0.16193
      13 -> 19         0.66989

 Excited State  10:      Singlet-A      9.6799 eV  128.08 nm  f=0.1676  <S**2>=0.000
      10 -> 14         0.40675
      12 -> 15         0.44981
      12 -> 16        -0.21183
      12 -> 18        -0.12725
      13 -> 20         0.14136

 Excited State  11:      Singlet-A     10.0369 eV  123.53 nm  f=0.0380  <S**2>=0.000
       9 -> 15         0.10701
      11 -> 15         0.21795
      11 -> 17        -0.13575
      11 -> 18        -0.16251
      12 -> 15         0.33887
      12 -> 16         0.36388
      12 -> 17        -0.25470
      12 -> 18         0.16544

 Excited State  12:      Singlet-A     10.5675 eV  117.33 nm  f=0.0615  <S**2>=0.000
      13 -> 18        -0.12064
      13 -> 20        -0.17117
      13 -> 21         0.56928
      13 -> 22        -0.29680

 Excited State  13:      Singlet-A     10.5936 eV  117.04 nm  f=0.1066  <S**2>=0.000
      10 -> 14        -0.19793
      11 -> 15         0.16968
      13 -> 20         0.60044
      13 -> 21         0.15131
      13 -> 22        -0.11228

 Excited State  14:      Singlet-A     10.6612 eV  116.29 nm  f=0.1766  <S**2>=0.000
      11 -> 16        -0.39397
      11 -> 17         0.17616
      12 -> 16         0.41435
      12 -> 17         0.10070
      12 -> 18        -0.17288
      12 -> 19        -0.14079
      13 -> 22        -0.16116

 Excited State  15:      Singlet-A     10.6984 eV  115.89 nm  f=0.0462  <S**2>=0.000
      13 -> 18         0.16952
      13 -> 21         0.34826
      13 -> 22         0.55097

 The electronic state is 1-A.
 Alpha  occ. eigenvalues --   -1.90521  -1.18044  -0.92850  -0.81664  -0.78022
 Alpha  occ. eigenvalues --   -0.70288  -0.67533  -0.54874  -0.54507  -0.46520
 Alpha  occ. eigenvalues --   -0.44026  -0.40368  -0.28444
 Alpha virt. eigenvalues --    0.11793   0.17975   0.20216   0.28293   0.30222
 Alpha virt. eigenvalues --    0.31200   0.32926   0.34471   0.37035   0.42271
 Alpha virt. eigenvalues --    0.44844

 Mulliken charges:
               1
     1  C   -0.135508
     2  C   -1.961385
     3  O    3.282447
     4  C   -2.019062
     5  C   -0.221290
     6  H    0.205970
     7  H    0.324542
     8  H    0.325325
     9  H    0.198961
 Sum of Mulliken charges =   0.00000

 Dipole moment (field-independent basis, Debye):
    X=             -0.5801    Y=            -11.6688    Z=              0.3803  Tot=             11.6894
 N-N= 1.039446227750D+02 E-N=-1.694588977932D+02  KE=-1.551067772780D+01
 Orbital energies and kinetic energies (alpha):
                                 1                 2
   1         O                -1.905208         -1.358809
   2         O                -1.180435         -1.064691
   3         O                -0.928505         -0.904466
   4         O                -0.816639         -0.565909
   5         O                -0.780224         -0.688510
   6         O                -0.702876         -0.580339
   7         O                -0.675330         -0.542346

 Normal termination of Gaussian 09 at Tue Dec 15 17:09:32 2015.
