 Gaussian 09, Revision D.01,
 Gaussian 09:  ES64L-G09RevD.01 24-Apr-2013

 ------------------------------------------------------------
 #P AM1(Input,print) CIS(Singlets,NStates=15) pop(full) force
 ------------------------------------------------------------

 -----------------
 AM1-Reparam Input
 -----------------
 Symbolic Z-matrix:
 Charge =  0 Multiplicity = 1

                         Standard orientation:
 ---------------------------------------------------------------------
 Center     Atomic      Atomic             Coordinates (Angstroms)
 Number     Number       Type             X           Y           Z
 ---------------------------------------------------------------------
      1          6           0       -0.975310    0.715668   -0.009273
      2          6           0       -0.928919   -0.602198   -0.018064
      3          8           0        0.318882   -1.148367    0.018147
      4          6           0        1.166129   -0.012823   -0.013168
      5          6           0        0.405930    1.103118    0.015270
      6          1           0        0.802026    2.164230   -0.016746
      7          1           0        2.195371   -0.198491   -0.022500
      8          1           0       -1.727105   -1.367089   -0.003242
      9          1           0       -1.828327    1.365698    0.048715
 ---------------------------------------------------------------------

 SCF Done:  E(RAM1) =  -4.71150992549     A.U. after   13 cycles

 Excitation energies and oscillator strengths:

 Excited State   1:      Singlet-A      6.6811 eV  185.57 nm  f=0.3643  <S**2>=0.000
      13 -> 14         0.69242
 This state for optimization and/or second-order correction.
 Total Energy, E(CIS) =  -4.46598359712
 Copying the excited state density for this state as the 1-particle RhoCI density.

 Excited State   2:      Singlet-A      7.8387 eV  158.17 nm  f=0.0004  <S**2>=0.000
      12 -> 14         0.54769
      13 -> 15         0.41428

 Excited State   3:      Singlet-A      7.8799 eV  157.34 nm  f=0.0017  <S**2>=0.000
      12 -> 14        -0.42296
      13 -> 15         0.54331

 Excited State   4:      Singlet-A      8.6212 eV  143.81 nm  f=0.0062  <S**2>=0.000
      11 -> 14         0.68954

 Excited State   5:      Singlet-A      8.6680 eV  143.04 nm  f=0.0028  <S**2>=0.000
      13 -> 16         0.66597
      13 -> 19        -0.10557
      13 -> 21        -0.13007

 Excited State   6:      Singlet-A      9.8023 eV  126.48 nm  f=0.0033  <S**2>=0.000
      10 -> 14        -0.45709
      13 -> 17         0.52267

 Excited State   7:      Singlet-A     10.1110 eV  122.62 nm  f=0.0045  <S**2>=0.000
      13 -> 18         0.64263
      13 -> 20        -0.11618
      13 -> 21        -0.16177
      13 -> 22         0.10460

 Excited State   8:      Singlet-A     10.5522 eV  117.50 nm  f=0.0016  <S**2>=0.000
      10 -> 16        -0.11297
      13 -> 16         0.13373
      13 -> 18         0.15501
      13 -> 19         0.60008
      13 -> 20         0.10906
      13 -> 21         0.17611
      13 -> 22        -0.16879

 Excited State   9:      Singlet-A     10.7062 eV  115.81 nm  f=0.2231  <S**2>=0.000
       9 -> 14         0.18538
      10 -> 14         0.45973
      13 -> 17         0.41711
      13 -> 20         0.15491
      13 -> 21         0.10412

 Excited State  10:      Singlet-A     10.8203 eV  114.59 nm  f=0.0632  <S**2>=0.000
       9 -> 14         0.39939
      10 -> 14        -0.19240
      10 -> 15        -0.10827
      13 -> 17        -0.18510
      13 -> 18         0.12155
      13 -> 19        -0.14228
      13 -> 20         0.36577
      13 -> 21         0.23612

 Excited State  11:      Singlet-A     10.9703 eV  113.02 nm  f=0.0206  <S**2>=0.000
       9 -> 14         0.48556
      13 -> 18        -0.10888
      13 -> 19         0.15332
      13 -> 20        -0.43652

 Excited State  12:      Singlet-A     11.0871 eV  111.83 nm  f=0.1411  <S**2>=0.000
       8 -> 15         0.16402
       9 -> 15        -0.23033
      11 -> 15         0.21989
      12 -> 15         0.53335
      12 -> 16        -0.12421
      12 -> 21         0.11118

 Excited State  13:      Singlet-A     11.2995 eV  109.73 nm  f=0.0060  <S**2>=0.000
       9 -> 14        -0.16823
      10 -> 16        -0.14748
      13 -> 19        -0.22689
      13 -> 20        -0.27891
      13 -> 21         0.51484
      13 -> 22        -0.12920

 Excited State  14:      Singlet-A     11.6211 eV  106.69 nm  f=0.0989  <S**2>=0.000
      10 -> 15         0.18448
      11 -> 15         0.51122
      11 -> 16         0.10811
      11 -> 18        -0.17660
      12 -> 16         0.18907
      12 -> 18         0.19901
      12 -> 19        -0.16456

 Excited State  15:      Singlet-A     11.7498 eV  105.52 nm  f=0.1810  <S**2>=0.000
      11 -> 16        -0.17981
      12 -> 16         0.57286
      12 -> 18        -0.26744
      12 -> 21        -0.13057

 The electronic state is 1-A.
 Alpha  occ. eigenvalues --   -3.90916  -1.18634  -0.91366  -0.84406  -0.83346
 Alpha  occ. eigenvalues --   -0.78299  -0.74497  -0.58434  -0.53931  -0.51017
 Alpha  occ. eigenvalues --   -0.48618  -0.46249  -0.35347
 Alpha virt. eigenvalues --    0.10739   0.16422   0.20080   0.23841   0.26135
 Alpha virt. eigenvalues --    0.28071   0.29668   0.33370   0.37652   0.39545
 Alpha virt. eigenvalues --    0.41636

 Mulliken charges:
               1
     1  C   -0.314182
     2  C   -1.512625
     3  O    2.748049
     4  C   -1.523592
     5  C   -0.272400
     6  H    0.206491
     7  H    0.226550
     8  H    0.238402
     9  H    0.203307
 Sum of Mulliken charges =   0.00000

 Dipole moment (field-independent basis, Debye):
    X=              2.4167    Y=            -10.3531    Z=              0.4202  Tot=             10.6397
 N-N= 1.046413369827D+02 E-N=-1.727533435191D+02  KE=-2.165115370137D+01
 Orbital energies and kinetic energies (alpha):
                                 1                 2
   1         O                -3.909162         -3.233286
   2         O                -1.186344         -1.055476
   3         O                -0.913664         -0.699013
   4         O                -0.844058         -0.762034
   5         O                -0.833458         -0.733925
   6         O                -0.782986         -0.822872
   7         O                -0.744974         -0.672475

 Normal termination of Gaussian 09 at Fri Dec 11 13:41:37 2015.
