 Gaussian 09, Revision D.01,
 Gaussian 09:  ES64L-G09RevD.01 24-Apr-2013

 ------------------------------------------------------------
 #P AM1(Input,print) CIS(Singlets,NStates=15) pop(full) force
 ------------------------------------------------------------

 -----------------
 AM1-Reparam Input
 -----------------
 Symbolic Z-matrix:
 Charge =  0 Multiplicity = 1

                         Standard orientation:
 ---------------------------------------------------------------------
 Center     Atomic      Atomic             Coordinates (Angstroms)
 Number     Number       Type             X           Y           Z
 ---------------------------------------------------------------------
      1          6           0       -0.520978    1.102256   -0.031309
      2          6           0       -1.158001   -0.172240   -0.009191
      3          8           0       -0.207656   -1.147392    0.007263
      4          6           0        1.042012   -0.528583   -0.022241
      5          6           0        0.868888    0.809823    0.035096
      6          1           0        1.608042    1.564539    0.007360
      7          1           0        1.895582   -1.141840   -0.003126
      8          1           0       -2.203763   -0.517997    0.079096
      9          1           0       -1.030141    2.006900    0.024441
 ---------------------------------------------------------------------

 SCF Done:  E(RAM1) =   1.81121481413     A.U. after   14 cycles

 Excitation energies and oscillator strengths:

 Excited State   1:      Singlet-A      5.7531 eV  215.51 nm  f=0.3353  <S**2>=0.000
      11 -> 17         0.10315
      13 -> 14         0.68966
 This state for optimization and/or second-order correction.
 Total Energy, E(CIS) =   2.02263898402
 Copying the excited state density for this state as the 1-particle RhoCI density.

 Excited State   2:      Singlet-A      6.6882 eV  185.38 nm  f=0.0036  <S**2>=0.000
      10 -> 15        -0.12671
      13 -> 15         0.64464
      13 -> 17        -0.21085

 Excited State   3:      Singlet-A      6.7817 eV  182.82 nm  f=0.0008  <S**2>=0.000
      12 -> 14         0.69844

 Excited State   4:      Singlet-A      6.9856 eV  177.48 nm  f=0.0019  <S**2>=0.000
      10 -> 16         0.12948
      13 -> 16         0.65503
      13 -> 18        -0.13031
      13 -> 19         0.11931

 Excited State   5:      Singlet-A      7.7510 eV  159.96 nm  f=0.0051  <S**2>=0.000
      11 -> 14         0.69439

 Excited State   6:      Singlet-A      8.2416 eV  150.44 nm  f=0.0052  <S**2>=0.000
      10 -> 15        -0.14470
      13 -> 15         0.16224
      13 -> 17         0.53501
      13 -> 18        -0.32946
      13 -> 21         0.21180

 Excited State   7:      Singlet-A      8.4975 eV  145.91 nm  f=0.0110  <S**2>=0.000
      10 -> 16         0.12792
      13 -> 16         0.11754
      13 -> 17         0.37128
      13 -> 18         0.51157
      13 -> 21        -0.23499

 Excited State   8:      Singlet-A      8.8708 eV  139.77 nm  f=0.0497  <S**2>=0.000
      10 -> 14         0.61662
      11 -> 17        -0.10584
      12 -> 16         0.14480
      12 -> 17         0.13984
      12 -> 18        -0.12669

 Excited State   9:      Singlet-A      9.1349 eV  135.73 nm  f=0.0302  <S**2>=0.000
       8 -> 15         0.12644
      10 -> 14         0.24319
      11 -> 15        -0.11519
      11 -> 16        -0.16614
      11 -> 17         0.18990
      11 -> 18         0.11939
      12 -> 15         0.37229
      12 -> 16        -0.17089
      12 -> 17        -0.13758
      12 -> 18         0.25994
      12 -> 21        -0.10989
      13 -> 19        -0.11216

 Excited State  10:      Singlet-A      9.1620 eV  135.32 nm  f=0.0008  <S**2>=0.000
      13 -> 19         0.66525

 Excited State  11:      Singlet-A      9.6901 eV  127.95 nm  f=0.0141  <S**2>=0.000
      10 -> 14        -0.11561
      11 -> 15         0.23537
      12 -> 15         0.35203
      12 -> 16         0.44135
      12 -> 17        -0.17875
      12 -> 18        -0.10059

 Excited State  12:      Singlet-A      9.7543 eV  127.11 nm  f=0.2486  <S**2>=0.000
       9 -> 15         0.10256
      11 -> 15        -0.35813
      11 -> 16        -0.18540
      11 -> 17         0.19927
      12 -> 15        -0.24705
      12 -> 16         0.39740
      12 -> 19         0.15489

 Excited State  13:      Singlet-A      9.7968 eV  126.56 nm  f=0.0010  <S**2>=0.000
      10 -> 15        -0.24842
      11 -> 15         0.12491
      13 -> 18         0.29547
      13 -> 20         0.12027
      13 -> 21         0.51418

 Excited State  14:      Singlet-A      9.9319 eV  124.83 nm  f=0.0478  <S**2>=0.000
       8 -> 15         0.11183
       9 -> 15         0.12149
      10 -> 14        -0.11074
      10 -> 15         0.32842
      11 -> 15        -0.25000
      11 -> 16         0.12513
      11 -> 19         0.18315
      12 -> 15         0.17184
      12 -> 17         0.18825
      12 -> 18        -0.14891
      12 -> 19        -0.11727
      13 -> 20         0.17639
      13 -> 21         0.22202

 Excited State  15:      Singlet-A     10.0036 eV  123.94 nm  f=0.0728  <S**2>=0.000
       8 -> 15        -0.10452
      10 -> 15         0.26193
      11 -> 15         0.11266
      11 -> 19        -0.11985
      12 -> 15        -0.13623
      12 -> 17        -0.12503
      13 -> 20         0.53569

 The electronic state is 1-A.
 Alpha  occ. eigenvalues --   -1.93022  -1.20820  -0.96923  -0.80970  -0.80691
 Alpha  occ. eigenvalues --   -0.68097  -0.66587  -0.52518  -0.49880  -0.42052
 Alpha  occ. eigenvalues --   -0.41452  -0.38437  -0.28399
 Alpha virt. eigenvalues --    0.13637   0.18950   0.20559   0.26354   0.28741
 Alpha virt. eigenvalues --    0.30370   0.32468   0.34584   0.35330   0.44114
 Alpha virt. eigenvalues --    0.48952

 Mulliken charges:
               1
     1  C   -0.131431
     2  C   -1.944381
     3  O    3.135629
     4  C   -1.922922
     5  C   -0.056347
     6  H    0.150884
     7  H    0.304783
     8  H    0.303665
     9  H    0.160120
 Sum of Mulliken charges =   0.00000

 Dipole moment (field-independent basis, Debye):
    X=             -1.7391    Y=            -10.1589    Z=              0.5507  Tot=             10.3214
 N-N= 1.036890142035D+02 E-N=-1.689279134891D+02  KE=-1.563074909010D+01
 Orbital energies and kinetic energies (alpha):
                                 1                 2
   1         O                -1.930220         -1.393329
   2         O                -1.208201         -1.081353
   3         O                -0.969228         -0.901125
   4         O                -0.809699         -0.626275
   5         O                -0.806909         -0.691381
   6         O                -0.680973         -0.573712
   7         O                -0.665866         -0.584362

 Normal termination of Gaussian 09 at Tue Dec 15 17:09:52 2015.
