 Gaussian 09, Revision D.01,
 Gaussian 09:  ES64L-G09RevD.01 24-Apr-2013

 ------------------------------------------------------------
 #P AM1(Input,print) CIS(Singlets,NStates=15) pop(full) force
 ------------------------------------------------------------

 -----------------
 AM1-Reparam Input
 -----------------
 Symbolic Z-matrix:
 Charge =  0 Multiplicity = 1

                         Standard orientation:
 ---------------------------------------------------------------------
 Center     Atomic      Atomic             Coordinates (Angstroms)
 Number     Number       Type             X           Y           Z
 ---------------------------------------------------------------------
      1          6           0       -0.665865    0.957278    0.014724
      2          6           0       -1.132175   -0.269605   -0.006172
      3          8           0       -0.098945   -1.117611    0.002424
      4          6           0        1.108963   -0.423892   -0.004289
      5          6           0        0.776661    0.915995   -0.001533
      6          1           0        1.541009    1.678498   -0.014108
      7          1           0        2.043037   -1.016907    0.012523
      8          1           0       -2.092149   -0.719377   -0.010107
      9          1           0       -1.225847    1.920021   -0.024073
 ---------------------------------------------------------------------

 SCF Done:  E(RAM1) =   1.72536593326     A.U. after   13 cycles

 Excitation energies and oscillator strengths:

 Excited State   1:      Singlet-A      5.3398 eV  232.19 nm  f=0.3650  <S**2>=0.000
      13 -> 14         0.69425
 This state for optimization and/or second-order correction.
 Total Energy, E(CIS) =   1.92159878489
 Copying the excited state density for this state as the 1-particle RhoCI density.

 Excited State   2:      Singlet-A      6.9573 eV  178.21 nm  f=0.0007  <S**2>=0.000
      12 -> 14         0.70145

 Excited State   3:      Singlet-A      7.0973 eV  174.69 nm  f=0.0025  <S**2>=0.000
      10 -> 15         0.10369
      13 -> 15         0.67407
      13 -> 18        -0.10428
      13 -> 19         0.10421

 Excited State   4:      Singlet-A      7.2958 eV  169.94 nm  f=0.0025  <S**2>=0.000
      10 -> 16        -0.10129
      13 -> 16         0.65645
      13 -> 17        -0.17281
      13 -> 19        -0.12865

 Excited State   5:      Singlet-A      7.8349 eV  158.25 nm  f=0.0057  <S**2>=0.000
      11 -> 14         0.69961

 Excited State   6:      Singlet-A      8.6573 eV  143.21 nm  f=0.0000  <S**2>=0.000
      13 -> 16        -0.13875
      13 -> 17        -0.36500
      13 -> 18         0.51120
      13 -> 22        -0.25466

 Excited State   7:      Singlet-A      9.1157 eV  136.01 nm  f=0.0107  <S**2>=0.000
      13 -> 15         0.11810
      13 -> 17         0.55763
      13 -> 18         0.35515
      13 -> 19        -0.12295

 Excited State   8:      Singlet-A      9.4051 eV  131.83 nm  f=0.0878  <S**2>=0.000
      10 -> 14         0.67299
      12 -> 15         0.10504

 Excited State   9:      Singlet-A      9.6618 eV  128.32 nm  f=0.0013  <S**2>=0.000
      13 -> 16         0.10299
      13 -> 18         0.18411
      13 -> 19         0.65704

 Excited State  10:      Singlet-A      9.9191 eV  125.00 nm  f=0.0315  <S**2>=0.000
      11 -> 15        -0.12738
      11 -> 16        -0.12226
      11 -> 17         0.20890
      11 -> 18         0.11273
      12 -> 15         0.34665
      12 -> 16        -0.29672
      12 -> 17         0.18953
      12 -> 18        -0.30300

 Excited State  11:      Singlet-A     10.2293 eV  121.21 nm  f=0.1398  <S**2>=0.000
      11 -> 15         0.23295
      11 -> 17        -0.11955
      11 -> 18        -0.10445
      12 -> 15         0.55322
      12 -> 16         0.12558
      12 -> 17        -0.18818

 Excited State  12:      Singlet-A     10.5172 eV  117.89 nm  f=0.0313  <S**2>=0.000
      13 -> 18         0.22285
      13 -> 20        -0.35039
      13 -> 22         0.54825

 Excited State  13:      Singlet-A     10.6333 eV  116.60 nm  f=0.1919  <S**2>=0.000
      11 -> 16        -0.43727
      11 -> 17         0.13909
      12 -> 16         0.46548
      12 -> 18        -0.13480

 Excited State  14:      Singlet-A     10.6460 eV  116.46 nm  f=0.0753  <S**2>=0.000
      13 -> 18         0.10317
      13 -> 20         0.58817
      13 -> 22         0.32949

 Excited State  15:      Singlet-A     10.9875 eV  112.84 nm  f=0.1180  <S**2>=0.000
       8 -> 16         0.16094
       9 -> 16        -0.12810
      10 -> 14        -0.14123
      11 -> 15        -0.14599
      11 -> 16         0.28063
      11 -> 18        -0.16482
      11 -> 19        -0.25584
      12 -> 16         0.20257
      12 -> 17         0.28199
      12 -> 19        -0.12456
      12 -> 20         0.13221
      13 -> 21        -0.19988

 The electronic state is 1-A.
 Alpha  occ. eigenvalues --   -1.91497  -1.17033  -0.93426  -0.82466  -0.77864
 Alpha  occ. eigenvalues --   -0.69710  -0.68248  -0.58358  -0.55663  -0.47772
 Alpha  occ. eigenvalues --   -0.44777  -0.42097  -0.30460
 Alpha virt. eigenvalues --    0.09974   0.18272   0.19492   0.26368   0.28003
 Alpha virt. eigenvalues --    0.29717   0.32168   0.33713   0.34284   0.41850
 Alpha virt. eigenvalues --    0.46520

 Mulliken charges:
               1
     1  C   -0.205127
     2  C   -2.009441
     3  O    3.312463
     4  C   -2.030615
     5  C   -0.168804
     6  H    0.214172
     7  H    0.332348
     8  H    0.336012
     9  H    0.218992
 Sum of Mulliken charges =   0.00000

 Dipole moment (field-independent basis, Debye):
    X=             -1.1811    Y=            -10.3316    Z=              0.0829  Tot=             10.3992
 N-N= 1.038040819556D+02 E-N=-1.690909997012D+02  KE=-1.547902881021D+01
 Orbital energies and kinetic energies (alpha):
                                 1                 2
   1         O                -1.914970         -1.375496
   2         O                -1.170327         -1.033388
   3         O                -0.934265         -0.883389
   4         O                -0.824656         -0.581232
   5         O                -0.778639         -0.690896
   6         O                -0.697097         -0.581169
   7         O                -0.682479         -0.536465

 Normal termination of Gaussian 09 at Tue Dec 15 17:09:38 2015.
