 Gaussian 09, Revision D.01,
 Gaussian 09:  ES64L-G09RevD.01 24-Apr-2013

 ------------------------------------------------------------
 #P AM1(Input,print) CIS(Singlets,NStates=15) pop(full) force
 ------------------------------------------------------------

 -----------------
 AM1-Reparam Input
 -----------------
 Symbolic Z-matrix:
 Charge =  0 Multiplicity = 1

                         Standard orientation:
 ---------------------------------------------------------------------
 Center     Atomic      Atomic             Coordinates (Angstroms)
 Number     Number       Type             X           Y           Z
 ---------------------------------------------------------------------
      1          6           0       -0.665865    0.957278    0.014724
      2          6           0       -1.132175   -0.269605   -0.006172
      3          8           0       -0.098945   -1.117611    0.002424
      4          6           0        1.108963   -0.423892   -0.004289
      5          6           0        0.776661    0.915995   -0.001533
      6          1           0        1.541009    1.678498   -0.014108
      7          1           0        2.043037   -1.016907    0.012523
      8          1           0       -2.092149   -0.719377   -0.010107
      9          1           0       -1.225847    1.920021   -0.024073
 ---------------------------------------------------------------------

 SCF Done:  E(RAM1) =   1.10967216712     A.U. after   14 cycles

 Excitation energies and oscillator strengths:

 Excited State   1:      Singlet-A      5.4263 eV  228.49 nm  f=0.2050  <S**2>=0.000
      12 -> 15         0.13577
      13 -> 14         0.68045
 This state for optimization and/or second-order correction.
 Total Energy, E(CIS) =   1.30908408565
 Copying the excited state density for this state as the 1-particle RhoCI density.

 Excited State   2:      Singlet-A      6.3427 eV  195.48 nm  f=0.0034  <S**2>=0.000
      13 -> 15         0.16736
      13 -> 16         0.65197
      13 -> 17         0.10112
      13 -> 20         0.14040

 Excited State   3:      Singlet-A      6.8426 eV  181.20 nm  f=0.0125  <S**2>=0.000
      12 -> 14        -0.35195
      13 -> 15         0.56369
      13 -> 16        -0.12611
      13 -> 17        -0.14744

 Excited State   4:      Singlet-A      6.8998 eV  179.69 nm  f=0.0007  <S**2>=0.000
      13 -> 15         0.10225
      13 -> 16        -0.12289
      13 -> 17         0.63077
      13 -> 18        -0.15402
      13 -> 21        -0.16141

 Excited State   5:      Singlet-A      7.1498 eV  173.41 nm  f=0.0005  <S**2>=0.000
       9 -> 14         0.14895
      10 -> 14        -0.11283
      11 -> 14         0.67764

 Excited State   6:      Singlet-A      7.7237 eV  160.52 nm  f=0.0017  <S**2>=0.000
      10 -> 14         0.63541
      11 -> 15         0.22867

 Excited State   7:      Singlet-A      7.9918 eV  155.14 nm  f=0.2391  <S**2>=0.000
      11 -> 16         0.11692
      11 -> 20         0.10692
      12 -> 14         0.58519
      13 -> 15         0.32135

 Excited State   8:      Singlet-A      7.9972 eV  155.03 nm  f=0.0000  <S**2>=0.000
      12 -> 16        -0.14960
      13 -> 17         0.12951
      13 -> 18         0.63533
      13 -> 22        -0.14307

 Excited State   9:      Singlet-A      8.2576 eV  150.15 nm  f=0.0205  <S**2>=0.000
       9 -> 15        -0.17371
      10 -> 14        -0.24490
      10 -> 15         0.10997
      11 -> 15         0.60268
      11 -> 16        -0.10956

 Excited State  10:      Singlet-A      8.3247 eV  148.94 nm  f=0.0001  <S**2>=0.000
      13 -> 19         0.32083
      13 -> 20         0.58499
      13 -> 22         0.11587

 Excited State  11:      Singlet-A      8.6201 eV  143.83 nm  f=0.0021  <S**2>=0.000
      12 -> 15         0.17732
      12 -> 16         0.60632
      12 -> 17         0.16841
      12 -> 20         0.12429
      13 -> 18         0.13515

 Excited State  12:      Singlet-A      8.8729 eV  139.73 nm  f=0.1764  <S**2>=0.000
       9 -> 16         0.16780
      11 -> 16        -0.31160
      11 -> 20        -0.11791
      12 -> 15         0.50414
      12 -> 16        -0.14286
      13 -> 14        -0.10206

 Excited State  13:      Singlet-A      8.9584 eV  138.40 nm  f=0.1081  <S**2>=0.000
       9 -> 16        -0.12612
      10 -> 17         0.17367
      11 -> 16         0.47189
      11 -> 18         0.12399
      11 -> 20         0.13367
      12 -> 15         0.34945

 Excited State  14:      Singlet-A      9.0482 eV  137.03 nm  f=0.0072  <S**2>=0.000
       7 -> 16         0.10054
      12 -> 16        -0.15670
      12 -> 17         0.49502
      13 -> 19        -0.40602
      13 -> 20         0.17265

 Excited State  15:      Singlet-A      9.3519 eV  132.58 nm  f=0.0004  <S**2>=0.000
       9 -> 14         0.64034
      11 -> 14        -0.14614
      13 -> 21        -0.18773

 The electronic state is 1-A.
 Alpha  occ. eigenvalues --   -1.83128  -1.18523  -1.00006  -0.87507  -0.80293
 Alpha  occ. eigenvalues --   -0.73477  -0.71882  -0.61983  -0.56412  -0.51628
 Alpha  occ. eigenvalues --   -0.49096  -0.47764  -0.38227
 Alpha virt. eigenvalues --    0.03036   0.09363   0.09746   0.11301   0.17499
 Alpha virt. eigenvalues --    0.18861   0.18932   0.21337   0.26503   0.26811
 Alpha virt. eigenvalues --    0.27599

 Mulliken charges:
               1
     1  C   -0.184331
     2  C   -1.231778
     3  O    2.149058
     4  C   -1.261901
     5  C   -0.116847
     6  H    0.113136
     7  H    0.202546
     8  H    0.202985
     9  H    0.127130
 Sum of Mulliken charges =   0.00000

 Dipole moment (field-independent basis, Debye):
    X=             -0.7901    Y=             -6.9198    Z=              0.0452  Tot=              6.9649
 N-N= 1.043013298001D+02 E-N=-1.710308767429D+02  KE=-1.495391359258D+01
 Orbital energies and kinetic energies (alpha):
                                 1                 2
   1         O                -1.831275         -1.245754
   2         O                -1.185233         -0.953209
   3         O                -1.000055         -0.813942
   4         O                -0.875066         -0.632316
   5         O                -0.802933         -0.674084
   6         O                -0.734766         -0.588592
   7         O                -0.718823         -0.512545

 Normal termination of Gaussian 09 at Tue Dec 15 17:05:36 2015.
