 Gaussian 09, Revision D.01,
 Gaussian 09:  ES64L-G09RevD.01 24-Apr-2013

 ------------------------------------------------------------
 #P AM1(Input,print) CIS(Singlets,NStates=15) pop(full) force
 ------------------------------------------------------------

 -----------------
 AM1-Reparam Input
 -----------------
 Symbolic Z-matrix:
 Charge =  0 Multiplicity = 1

                         Standard orientation:
 ---------------------------------------------------------------------
 Center     Atomic      Atomic             Coordinates (Angstroms)
 Number     Number       Type             X           Y           Z
 ---------------------------------------------------------------------
      1          6           0       -0.580822    0.998465   -0.038253
      2          6           0       -1.094022   -0.221458    0.050986
      3          8           0       -0.151048   -1.125212   -0.037750
      4          6           0        1.033067   -0.491337    0.032976
      5          6           0        0.801596    0.893040    0.012313
      6          1           0        1.655578    1.614624   -0.044816
      7          1           0        1.897739   -1.124745   -0.014281
      8          1           0       -2.165750   -0.502364   -0.007960
      9          1           0       -1.138090    1.941924    0.020924
 ---------------------------------------------------------------------

 SCF Done:  E(RAM1) =   2.03542753166     A.U. after   13 cycles

 Excitation energies and oscillator strengths:

 Excited State   1:      Singlet-A      5.5990 eV  221.44 nm  f=0.3251  <S**2>=0.000
      13 -> 14         0.69141
 This state for optimization and/or second-order correction.
 Total Energy, E(CIS) =   2.24118842764
 Copying the excited state density for this state as the 1-particle RhoCI density.

 Excited State   2:      Singlet-A      6.8658 eV  180.58 nm  f=0.0144  <S**2>=0.000
      13 -> 15         0.64275
      13 -> 16         0.14643
      13 -> 17         0.19783

 Excited State   3:      Singlet-A      7.0004 eV  177.11 nm  f=0.0006  <S**2>=0.000
      12 -> 14         0.69254

 Excited State   4:      Singlet-A      7.1882 eV  172.48 nm  f=0.0020  <S**2>=0.000
      13 -> 15        -0.13711
      13 -> 16         0.60877
      13 -> 18        -0.26494

 Excited State   5:      Singlet-A      7.5966 eV  163.21 nm  f=0.0048  <S**2>=0.000
      11 -> 14         0.69058

 Excited State   6:      Singlet-A      8.2896 eV  149.57 nm  f=0.0009  <S**2>=0.000
      13 -> 16         0.16013
      13 -> 18         0.28017
      13 -> 19         0.43645
      13 -> 20        -0.24440
      13 -> 21         0.34219

 Excited State   7:      Singlet-A      8.7290 eV  142.04 nm  f=0.1149  <S**2>=0.000
      10 -> 14         0.68888

 Excited State   8:      Singlet-A      8.8190 eV  140.59 nm  f=0.0182  <S**2>=0.000
      10 -> 15        -0.10063
      10 -> 16         0.15748
      13 -> 15        -0.16970
      13 -> 17         0.62230
      13 -> 18         0.16507

 Excited State   9:      Singlet-A      9.1765 eV  135.11 nm  f=0.0010  <S**2>=0.000
      10 -> 15        -0.11806
      10 -> 16        -0.14611
      13 -> 16         0.17157
      13 -> 17        -0.15396
      13 -> 18         0.48180
      13 -> 19        -0.39875

 Excited State  10:      Singlet-A      9.4865 eV  130.70 nm  f=0.0585  <S**2>=0.000
       9 -> 15         0.12564
       9 -> 18         0.10618
      11 -> 15         0.36076
      11 -> 16         0.16661
      11 -> 17         0.24713
      12 -> 15         0.12090
      12 -> 16         0.24211
      12 -> 17         0.13662
      12 -> 18        -0.13203
      12 -> 19        -0.22508
      13 -> 14        -0.10580

 Excited State  11:      Singlet-A      9.7328 eV  127.39 nm  f=0.0018  <S**2>=0.000
      13 -> 18        -0.24573
      13 -> 19        -0.36370
      13 -> 20        -0.37610
      13 -> 21         0.39432

 Excited State  12:      Singlet-A      9.8282 eV  126.15 nm  f=0.0790  <S**2>=0.000
      11 -> 16        -0.12037
      12 -> 15         0.60051
      12 -> 16        -0.13663
      12 -> 17         0.14032
      12 -> 18         0.21403

 Excited State  13:      Singlet-A     10.0488 eV  123.38 nm  f=0.0750  <S**2>=0.000
      10 -> 16        -0.11510
      13 -> 20         0.52362
      13 -> 21         0.43302

 Excited State  14:      Singlet-A     10.1222 eV  122.49 nm  f=0.0028  <S**2>=0.000
      10 -> 15         0.56706
      10 -> 16         0.22181
      10 -> 17         0.14021
      11 -> 16         0.11803
      13 -> 16         0.14593
      13 -> 18         0.10446

 Excited State  15:      Singlet-A     10.2081 eV  121.46 nm  f=0.1345  <S**2>=0.000
      11 -> 15         0.10434
      11 -> 16         0.47452
      11 -> 18        -0.18172
      12 -> 16        -0.34352
      12 -> 17        -0.15630
      12 -> 18         0.14301

 The electronic state is 1-A.
 Alpha  occ. eigenvalues --   -1.95575  -1.21171  -0.96028  -0.82517  -0.78351
 Alpha  occ. eigenvalues --   -0.68736  -0.66119  -0.55388  -0.53538  -0.44021
 Alpha  occ. eigenvalues --   -0.43466  -0.41999  -0.30810
 Alpha virt. eigenvalues --    0.11041   0.18122   0.19867   0.24905   0.26833
 Alpha virt. eigenvalues --    0.28219   0.29509   0.30407   0.38227   0.46767
 Alpha virt. eigenvalues --    0.51596

 Mulliken charges:
               1
     1  C   -0.220894
     2  C   -2.033552
     3  O    3.185670
     4  C   -2.033725
     5  C   -0.180186
     6  H    0.260450
     7  H    0.362992
     8  H    0.397061
     9  H    0.262184
 Sum of Mulliken charges =   0.00000

 Dipole moment (field-independent basis, Debye):
    X=             -1.7825    Y=             -9.2923    Z=             -1.2992  Tot=              9.5505
 N-N= 1.049555661132D+02 E-N=-1.707549754953D+02  KE=-1.553090624691D+01
 Orbital energies and kinetic energies (alpha):
                                 1                 2
   1         O                -1.955745         -1.425020
   2         O                -1.211712         -1.071184
   3         O                -0.960279         -0.866200
   4         O                -0.825175         -0.599011
   5         O                -0.783507         -0.674810
   6         O                -0.687363         -0.567323
   7         O                -0.661193         -0.533697

 Normal termination of Gaussian 09 at Tue Dec 15 17:07:25 2015.
