 Gaussian 09, Revision D.01,
 Gaussian 09:  ES64L-G09RevD.01 24-Apr-2013

 ------------------------------------------------------------
 #P AM1(Input,print) CIS(Singlets,NStates=15) pop(full) force
 ------------------------------------------------------------

 -----------------
 AM1-Reparam Input
 -----------------
 Symbolic Z-matrix:
 Charge =  0 Multiplicity = 1

                         Standard orientation:
 ---------------------------------------------------------------------
 Center     Atomic      Atomic             Coordinates (Angstroms)
 Number     Number       Type             X           Y           Z
 ---------------------------------------------------------------------
      1          6           0        0.793690    0.909031   -0.010062
      2          6           0        1.055359   -0.510029    0.011774
      3          8           0       -0.149891   -1.129275   -0.013064
      4          6           0       -1.121935   -0.230682   -0.006400
      5          6           0       -0.571771    1.008855    0.009104
      6          1           0       -1.136870    2.020088    0.001615
      7          1           0       -2.183792   -0.585309    0.049894
      8          1           0        1.969325   -1.125736    0.039170
      9          1           0        1.618412    1.662100   -0.012663
 ---------------------------------------------------------------------

 SCF Done:  E(RAM1) =   2.06796032359     A.U. after   13 cycles

 Excitation energies and oscillator strengths:

 Excited State   1:      Singlet-A      5.9166 eV  209.55 nm  f=0.3255  <S**2>=0.000
      13 -> 14         0.69079
 This state for optimization and/or second-order correction.
 Total Energy, E(CIS) =   2.28539321288
 Copying the excited state density for this state as the 1-particle RhoCI density.

 Excited State   2:      Singlet-A      6.8418 eV  181.22 nm  f=0.0032  <S**2>=0.000
      11 -> 15         0.10821
      13 -> 15         0.63775
      13 -> 16         0.19043
      13 -> 17        -0.15125

 Excited State   3:      Singlet-A      7.2115 eV  171.92 nm  f=0.0011  <S**2>=0.000
      11 -> 15        -0.10737
      11 -> 16        -0.10794
      13 -> 15        -0.19570
      13 -> 16         0.62396
      13 -> 17        -0.10450
      13 -> 19         0.15144

 Excited State   4:      Singlet-A      7.4617 eV  166.16 nm  f=0.0014  <S**2>=0.000
      12 -> 14         0.69590

 Excited State   5:      Singlet-A      8.0503 eV  154.01 nm  f=0.0047  <S**2>=0.000
      10 -> 14         0.64022
      11 -> 14         0.26005

 Excited State   6:      Singlet-A      8.5132 eV  145.64 nm  f=0.0015  <S**2>=0.000
      11 -> 16        -0.15555
      13 -> 17         0.56549
      13 -> 18        -0.25937
      13 -> 21         0.23928

 Excited State   7:      Singlet-A      8.7703 eV  141.37 nm  f=0.0077  <S**2>=0.000
      11 -> 15         0.11279
      13 -> 17         0.32267
      13 -> 18         0.50390
      13 -> 21        -0.31282

 Excited State   8:      Singlet-A      8.9835 eV  138.01 nm  f=0.0861  <S**2>=0.000
      10 -> 14        -0.25529
      11 -> 14         0.63615

 Excited State   9:      Singlet-A      9.4350 eV  131.41 nm  f=0.0017  <S**2>=0.000
      11 -> 15         0.13544
      11 -> 16         0.14924
      13 -> 18        -0.28671
      13 -> 19         0.49927
      13 -> 20        -0.19715
      13 -> 21        -0.25557

 Excited State  10:      Singlet-A      9.7288 eV  127.44 nm  f=0.1525  <S**2>=0.000
       9 -> 15         0.11199
      10 -> 15         0.26363
      10 -> 16         0.11955
      10 -> 17        -0.19096
      10 -> 18        -0.15962
      11 -> 15         0.10731
      12 -> 15        -0.21850
      12 -> 16        -0.27229
      12 -> 17         0.30090
      12 -> 18        -0.17139
      13 -> 14         0.11214

 Excited State  11:      Singlet-A      9.8071 eV  126.42 nm  f=0.0013  <S**2>=0.000
      13 -> 18         0.29022
      13 -> 19         0.36575
      13 -> 21         0.49680

 Excited State  12:      Singlet-A      9.8878 eV  125.39 nm  f=0.0923  <S**2>=0.000
       8 -> 15         0.11158
      12 -> 15         0.62281
      12 -> 16        -0.15406
      12 -> 18        -0.14617
      12 -> 20         0.11698

 Excited State  13:      Singlet-A     10.0527 eV  123.33 nm  f=0.0555  <S**2>=0.000
      10 -> 15        -0.18713
      11 -> 15         0.45857
      13 -> 19        -0.22148
      13 -> 20        -0.38107
      13 -> 21         0.11898

 Excited State  14:      Singlet-A     10.1098 eV  122.64 nm  f=0.0486  <S**2>=0.000
      11 -> 15         0.30426
      11 -> 16         0.31790
      13 -> 15        -0.10220
      13 -> 16         0.11811
      13 -> 20         0.48530

 Excited State  15:      Singlet-A     10.4375 eV  118.79 nm  f=0.0799  <S**2>=0.000
      10 -> 15         0.11386
      10 -> 16         0.50486
      10 -> 19         0.16626
      11 -> 16         0.25090
      12 -> 16         0.22108
      12 -> 17        -0.17908

 The electronic state is 1-A.
 Alpha  occ. eigenvalues --   -1.94314  -1.19171  -0.91676  -0.80380  -0.77958
 Alpha  occ. eigenvalues --   -0.68250  -0.66463  -0.56061  -0.53976  -0.44406
 Alpha  occ. eigenvalues --   -0.44120  -0.42571  -0.31521
 Alpha virt. eigenvalues --    0.11698   0.16673   0.18535   0.23737   0.25925
 Alpha virt. eigenvalues --    0.28769   0.29451   0.31681   0.33858   0.41536
 Alpha virt. eigenvalues --    0.46795

 Mulliken charges:
               1
     1  C   -0.127369
     2  C   -1.938985
     3  O    3.224412
     4  C   -1.916952
     5  C   -0.129316
     6  H    0.164116
     7  H    0.286328
     8  H    0.272887
     9  H    0.164880
 Sum of Mulliken charges =   0.00000

 Dipole moment (field-independent basis, Debye):
    X=             -1.7743    Y=             -9.6419    Z=             -0.0704  Tot=              9.8040
 N-N= 1.039289577756D+02 E-N=-1.690175184752D+02  KE=-1.528715301101D+01
 Orbital energies and kinetic energies (alpha):
                                 1                 2
   1         O                -1.943135         -1.382235
   2         O                -1.191709         -1.041500
   3         O                -0.916755         -0.855350
   4         O                -0.803797         -0.563295
   5         O                -0.779576         -0.678112
   6         O                -0.682504         -0.599291
   7         O                -0.664631         -0.530837

 Normal termination of Gaussian 09 at Tue Dec 15 17:09:13 2015.
