 Gaussian 09, Revision D.01,
 Gaussian 09:  ES64L-G09RevD.01 24-Apr-2013

 ------------------------------------------------------------
 #P AM1(Input,print) CIS(Singlets,NStates=15) pop(full) force
 ------------------------------------------------------------

 -----------------
 AM1-Reparam Input
 -----------------
 Symbolic Z-matrix:
 Charge =  0 Multiplicity = 1

                         Standard orientation:
 ---------------------------------------------------------------------
 Center     Atomic      Atomic             Coordinates (Angstroms)
 Number     Number       Type             X           Y           Z
 ---------------------------------------------------------------------
      1          6           0       -0.942754    0.721818   -0.008713
      2          6           0       -1.013396   -0.617276   -0.014587
      3          8           0        0.338747   -1.090956    0.005008
      4          6           0        1.173161   -0.066625    0.004058
      5          6           0        0.431732    1.096270   -0.017886
      6          1           0        0.818183    2.137040    0.053337
      7          1           0        2.240727   -0.294566    0.014654
      8          1           0       -1.820827   -1.306558    0.045322
      9          1           0       -1.840517    1.386614    0.069402
 ---------------------------------------------------------------------

 SCF Done:  E(RAM1) =  0.190199595717E-01 A.U. after   14 cycles

 Excitation energies and oscillator strengths:

 Excited State   1:      Singlet-A      4.3739 eV  283.47 nm  f=0.0918  <S**2>=0.000
      12 -> 15         0.18510
      13 -> 14         0.66407
 This state for optimization and/or second-order correction.
 Total Energy, E(CIS) =  0.179756441476
 Copying the excited state density for this state as the 1-particle RhoCI density.

 Excited State   2:      Singlet-A      4.6179 eV  268.48 nm  f=0.0027  <S**2>=0.000
      13 -> 15        -0.11354
      13 -> 16         0.67207

 Excited State   3:      Singlet-A      5.0645 eV  244.81 nm  f=0.0112  <S**2>=0.000
      12 -> 14        -0.40081
      13 -> 15         0.56376
      13 -> 16         0.11619

 Excited State   4:      Singlet-A      5.7648 eV  215.07 nm  f=0.0061  <S**2>=0.000
       7 -> 16        -0.14160
      12 -> 16         0.54824
      12 -> 22         0.15708
      13 -> 17         0.25301
      13 -> 18         0.12939
      13 -> 22         0.13619

 Excited State   5:      Singlet-A      5.7754 eV  214.67 nm  f=0.0009  <S**2>=0.000
      12 -> 16        -0.34369
      12 -> 17         0.13477
      12 -> 20        -0.10125
      13 -> 17         0.37101
      13 -> 18         0.21460
      13 -> 20        -0.15916
      13 -> 22         0.23885
      13 -> 23        -0.18895

 Excited State   6:      Singlet-A      6.2035 eV  199.86 nm  f=0.3197  <S**2>=0.000
      11 -> 16        -0.10077
      12 -> 14         0.50139
      13 -> 15         0.35298
      13 -> 18        -0.10586
      13 -> 19        -0.13036

 Excited State   7:      Singlet-A      6.2261 eV  199.14 nm  f=0.0492  <S**2>=0.000
      12 -> 14         0.18655
      12 -> 18        -0.11193
      12 -> 19        -0.17526
      12 -> 21         0.15108
      12 -> 23        -0.15036
      13 -> 15         0.13069
      13 -> 17        -0.14500
      13 -> 18         0.27736
      13 -> 19         0.30681
      13 -> 21        -0.15621
      13 -> 22         0.18747
      13 -> 23         0.21682

 Excited State   8:      Singlet-A      6.4546 eV  192.09 nm  f=0.0015  <S**2>=0.000
      13 -> 17         0.33803
      13 -> 18        -0.31015
      13 -> 19         0.45045
      13 -> 20         0.10351
      13 -> 21        -0.14689

 Excited State   9:      Singlet-A      6.4917 eV  190.99 nm  f=0.1153  <S**2>=0.000
      12 -> 15         0.65910
      13 -> 14        -0.17208

 Excited State  10:      Singlet-A      6.8428 eV  181.19 nm  f=0.0094  <S**2>=0.000
       9 -> 15        -0.17241
      10 -> 14        -0.17560
      11 -> 14         0.60604
      11 -> 15         0.18136

 Excited State  11:      Singlet-A      7.1983 eV  172.24 nm  f=0.0002  <S**2>=0.000
      12 -> 17        -0.17987
      12 -> 18         0.34185
      12 -> 19        -0.31762
      12 -> 20        -0.10529
      12 -> 21         0.20039
      13 -> 18        -0.31593
      13 -> 22         0.23855
      13 -> 23         0.10048

 Excited State  12:      Singlet-A      7.2768 eV  170.38 nm  f=0.0018  <S**2>=0.000
       9 -> 14         0.15099
      10 -> 14        -0.11034
      11 -> 15        -0.10030
      12 -> 17        -0.20928
      12 -> 18         0.21398
      12 -> 19         0.23860
      12 -> 21         0.11357
      12 -> 22         0.12560
      12 -> 23         0.12166
      13 -> 18         0.18762
      13 -> 19         0.30154
      13 -> 21         0.26583
      13 -> 24        -0.14115

 Excited State  13:      Singlet-A      7.4007 eV  167.53 nm  f=0.0054  <S**2>=0.000
       9 -> 14         0.31568
      10 -> 14        -0.30220
      10 -> 15         0.29352
      11 -> 15        -0.12138
      12 -> 18        -0.10464
      12 -> 23        -0.11809
      13 -> 17        -0.10509
      13 -> 20         0.19016
      13 -> 21        -0.16569
      13 -> 22         0.21420
      13 -> 23        -0.10157

 Excited State  14:      Singlet-A      7.4208 eV  167.08 nm  f=0.0026  <S**2>=0.000
       9 -> 14        -0.20776
      10 -> 14         0.14410
      11 -> 14         0.10403
      11 -> 15         0.12315
      12 -> 17         0.11144
      12 -> 18         0.12271
      12 -> 20         0.15213
      12 -> 22         0.13923
      13 -> 17        -0.27282
      13 -> 18        -0.10430
      13 -> 20         0.14906
      13 -> 22         0.28792
      13 -> 23        -0.27752

 Excited State  15:      Singlet-A      7.6140 eV  162.84 nm  f=0.0040  <S**2>=0.000
       9 -> 14        -0.13515
      10 -> 15        -0.17159
      12 -> 17        -0.36165
      12 -> 18        -0.20303
      12 -> 20        -0.13438
      12 -> 22        -0.12054
      13 -> 17         0.13527
      13 -> 20         0.37979
      13 -> 22         0.14018
      13 -> 24         0.12682

 The electronic state is 1-A.
 Alpha  occ. eigenvalues --   -1.55478  -1.22794  -1.09658  -0.81812  -0.80629
 Alpha  occ. eigenvalues --   -0.67955  -0.59663  -0.56957  -0.50492  -0.49854
 Alpha  occ. eigenvalues --   -0.48914  -0.39549  -0.34196
 Alpha virt. eigenvalues --    0.03087   0.06605   0.08691   0.13661   0.15043
 Alpha virt. eigenvalues --    0.15468   0.17333   0.18258   0.19332   0.20716
 Alpha virt. eigenvalues --    0.22559

 Mulliken charges:
               1
     1  C   -0.178493
     2  C   -0.112742
     3  O   -0.104077
     4  C   -0.066880
     5  C   -0.243057
     6  H    0.157524
     7  H    0.195057
     8  H    0.193120
     9  H    0.159548
 Sum of Mulliken charges =   0.00000

 Dipole moment (field-independent basis, Debye):
    X=             -0.1196    Y=              0.3784    Z=              0.2060  Tot=              0.4472
 N-N= 1.031680351746D+02 E-N=-1.706370150280D+02  KE=-1.650200711111D+01
 Orbital energies and kinetic energies (alpha):
                                 1                 2
   1         O                -1.554782         -1.306026
   2         O                -1.227937         -1.044934
   3         O                -1.096578         -0.958903
   4         O                -0.818123         -0.717523
   5         O                -0.806287         -0.705167
   6         O                -0.679552         -0.600430
   7         O                -0.596627         -0.485413

 Normal termination of Gaussian 09 at Tue Dec 15 16:17:14 2015.
