 Gaussian 09, Revision D.01,
 Gaussian 09:  ES64L-G09RevD.01 24-Apr-2013

 ------------------------------------------------------------
 #P AM1(Input,print) CIS(Singlets,NStates=15) pop(full) force
 ------------------------------------------------------------

 -----------------
 AM1-Reparam Input
 -----------------
 Symbolic Z-matrix:
 Charge =  0 Multiplicity = 1

                         Standard orientation:
 ---------------------------------------------------------------------
 Center     Atomic      Atomic             Coordinates (Angstroms)
 Number     Number       Type             X           Y           Z
 ---------------------------------------------------------------------
      1          6           0       -0.255349    1.154326   -0.018917
      2          6           0       -1.171603    0.043826    0.001751
      3          8           0       -0.444608   -1.028435    0.007647
      4          6           0        0.888982   -0.700744   -0.033743
      5          6           0        0.990899    0.587051    0.036535
      6          1           0        1.995673    1.179372   -0.013098
      7          1           0        1.550679   -1.601472    0.026153
      8          1           0       -2.157597    0.016672    0.021472
      9          1           0       -0.549466    2.126148   -0.009459
 ---------------------------------------------------------------------

 SCF Done:  E(RAM1) =   1.73037378162     A.U. after   14 cycles

 Excitation energies and oscillator strengths:

 Excited State   1:      Singlet-A      5.6271 eV  220.33 nm  f=0.3185  <S**2>=0.000
      13 -> 14         0.69048
 This state for optimization and/or second-order correction.
 Total Energy, E(CIS) =   1.93716709275
 Copying the excited state density for this state as the 1-particle RhoCI density.

 Excited State   2:      Singlet-A      6.4296 eV  192.83 nm  f=0.0091  <S**2>=0.000
      13 -> 15         0.49596
      13 -> 16         0.43968
      13 -> 17        -0.18782
      13 -> 18         0.10711

 Excited State   3:      Singlet-A      6.7338 eV  184.12 nm  f=0.0030  <S**2>=0.000
      11 -> 15        -0.14159
      13 -> 15        -0.43892
      13 -> 16         0.49043
      13 -> 19        -0.12097
      13 -> 20         0.14376

 Excited State   4:      Singlet-A      7.2138 eV  171.87 nm  f=0.0012  <S**2>=0.000
      12 -> 14         0.67359
      13 -> 20         0.14940

 Excited State   5:      Singlet-A      7.7463 eV  160.06 nm  f=0.0002  <S**2>=0.000
      10 -> 14         0.13307
      12 -> 14        -0.17476
      13 -> 18        -0.11519
      13 -> 19         0.20586
      13 -> 20         0.61425

 Excited State   6:      Singlet-A      8.0006 eV  154.97 nm  f=0.0104  <S**2>=0.000
      10 -> 14        -0.40766
      13 -> 15         0.11777
      13 -> 17         0.47843
      13 -> 19        -0.21029
      13 -> 20         0.14997

 Excited State   7:      Singlet-A      8.1460 eV  152.20 nm  f=0.0014  <S**2>=0.000
      10 -> 14         0.53682
      13 -> 17         0.37842
      13 -> 19        -0.15844

 Excited State   8:      Singlet-A      8.6747 eV  142.93 nm  f=0.0096  <S**2>=0.000
      11 -> 14        -0.25485
      13 -> 17         0.15254
      13 -> 18         0.42141
      13 -> 19         0.42545

 Excited State   9:      Singlet-A      8.7599 eV  141.54 nm  f=0.0093  <S**2>=0.000
      10 -> 15         0.10383
      11 -> 14         0.44005
      12 -> 15         0.10619
      12 -> 16        -0.11133
      12 -> 17         0.10179
      13 -> 16         0.10611
      13 -> 17         0.15897
      13 -> 19         0.37085
      13 -> 20        -0.11875

 Excited State  10:      Singlet-A      8.7864 eV  141.11 nm  f=0.0187  <S**2>=0.000
      11 -> 14         0.29640
      11 -> 16         0.13601
      13 -> 16        -0.12396
      13 -> 17        -0.10912
      13 -> 18         0.49041
      13 -> 19        -0.15702
      13 -> 20         0.14566
      13 -> 21        -0.18414

 Excited State  11:      Singlet-A      9.3463 eV  132.66 nm  f=0.1298  <S**2>=0.000
      10 -> 15        -0.10918
      10 -> 17         0.10914
      11 -> 14         0.21295
      12 -> 16         0.16453
      12 -> 17        -0.10794
      13 -> 18         0.11407
      13 -> 19        -0.11541
      13 -> 21         0.54434

 Excited State  12:      Singlet-A      9.4375 eV  131.37 nm  f=0.2271  <S**2>=0.000
      10 -> 15         0.18344
      10 -> 16         0.14158
      10 -> 17        -0.17092
      10 -> 20        -0.10602
      11 -> 14        -0.26495
      11 -> 16         0.11792
      12 -> 16        -0.20900
      12 -> 17         0.17096
      12 -> 18         0.16587
      12 -> 20        -0.12901
      13 -> 21         0.36077

 Excited State  13:      Singlet-A      9.5875 eV  129.32 nm  f=0.1564  <S**2>=0.000
       9 -> 16         0.11994
      10 -> 16        -0.13854
      11 -> 14        -0.11361
      12 -> 15         0.61420

 Excited State  14:      Singlet-A      9.7395 eV  127.30 nm  f=0.0187  <S**2>=0.000
      10 -> 16         0.11332
      11 -> 15         0.36661
      11 -> 16         0.45556
      11 -> 18         0.11121
      12 -> 16         0.20046
      13 -> 16         0.14061
      13 -> 17         0.11406

 Excited State  15:      Singlet-A      9.8491 eV  125.88 nm  f=0.0044  <S**2>=0.000
       9 -> 16        -0.10852
      10 -> 16         0.45072
      10 -> 18         0.17148
      10 -> 19        -0.13704
      11 -> 15        -0.14660
      11 -> 16        -0.11026
      12 -> 15         0.14817
      12 -> 16         0.21809
      12 -> 17        -0.28461

 The electronic state is 1-A.
 Alpha  occ. eigenvalues --   -1.93532  -1.24213  -1.01126  -0.83227  -0.81085
 Alpha  occ. eigenvalues --   -0.69262  -0.65103  -0.56194  -0.52198  -0.44107
 Alpha  occ. eigenvalues --   -0.43365  -0.41288  -0.29778
 Alpha virt. eigenvalues --    0.12407   0.17209   0.18890   0.23212   0.26211
 Alpha virt. eigenvalues --    0.26917   0.28626   0.29398   0.38270   0.46549
 Alpha virt. eigenvalues --    0.52215

 Mulliken charges:
               1
     1  C   -0.195966
     2  C   -2.012938
     3  O    3.194149
     4  C   -1.916596
     5  C   -0.044665
     6  H    0.174144
     7  H    0.292918
     8  H    0.318181
     9  H    0.190773
 Sum of Mulliken charges =   0.00000

 Dipole moment (field-independent basis, Debye):
    X=             -3.1643    Y=             -8.9466    Z=              0.4849  Tot=              9.5021
 N-N= 1.047750203832D+02 E-N=-1.705781829216D+02  KE=-1.582156040249D+01
 Orbital energies and kinetic energies (alpha):
                                 1                 2
   1         O                -1.935320         -1.417902
   2         O                -1.242126         -1.104222
   3         O                -1.011257         -0.913225
   4         O                -0.832267         -0.655898
   5         O                -0.810854         -0.692911
   6         O                -0.692617         -0.584485
   7         O                -0.651026         -0.522557

 Normal termination of Gaussian 09 at Tue Dec 15 17:07:00 2015.
