 Gaussian 09, Revision D.01,
 Gaussian 09:  ES64L-G09RevD.01 24-Apr-2013

 ------------------------------------------------------------
 #P AM1(Input,print) CIS(Singlets,NStates=15) pop(full) force
 ------------------------------------------------------------

 -----------------
 AM1-Reparam Input
 -----------------
 Symbolic Z-matrix:
 Charge =  0 Multiplicity = 1

                         Standard orientation:
 ---------------------------------------------------------------------
 Center     Atomic      Atomic             Coordinates (Angstroms)
 Number     Number       Type             X           Y           Z
 ---------------------------------------------------------------------
      1          6           0       -0.758455    0.927988   -0.011958
      2          6           0       -1.090365   -0.318593    0.029877
      3          8           0        0.016607   -1.170386   -0.037171
      4          6           0        1.068205   -0.332823    0.042094
      5          6           0        0.758371    0.984817   -0.009150
      6          1           0        1.365174    1.773344   -0.016099
      7          1           0        2.037449   -0.902824   -0.007160
      8          1           0       -2.057556   -0.851726    0.034843
      9          1           0       -1.344462    1.775963   -0.019400
 ---------------------------------------------------------------------

 SCF Done:  E(RAM1) =   2.59466710340     A.U. after   14 cycles

 Excitation energies and oscillator strengths:

 Excited State   1:      Singlet-A      4.9184 eV  252.08 nm  f=0.3586  <S**2>=0.000
      13 -> 14         0.69719
 This state for optimization and/or second-order correction.
 Total Energy, E(CIS) =   2.77541537745
 Copying the excited state density for this state as the 1-particle RhoCI density.

 Excited State   2:      Singlet-A      5.4589 eV  227.12 nm  f=0.0005  <S**2>=0.000
      13 -> 15         0.67394
      13 -> 17        -0.15227

 Excited State   3:      Singlet-A      5.9529 eV  208.27 nm  f=0.0009  <S**2>=0.000
      13 -> 16         0.67328
      13 -> 18         0.15904

 Excited State   4:      Singlet-A      6.4269 eV  192.91 nm  f=0.0005  <S**2>=0.000
      12 -> 14         0.70108

 Excited State   5:      Singlet-A      7.2204 eV  171.71 nm  f=0.0009  <S**2>=0.000
      13 -> 15         0.12768
      13 -> 17         0.53361
      13 -> 18         0.36678
      13 -> 21        -0.19324

 Excited State   6:      Singlet-A      7.8843 eV  157.25 nm  f=0.0206  <S**2>=0.000
      10 -> 14         0.18338
      13 -> 16        -0.10999
      13 -> 17        -0.39659
      13 -> 18         0.51044
      13 -> 19        -0.11955

 Excited State   7:      Singlet-A      8.1755 eV  151.65 nm  f=0.0005  <S**2>=0.000
      10 -> 14         0.66841
      13 -> 17         0.12664
      13 -> 18        -0.10868
      13 -> 19         0.10487

 Excited State   8:      Singlet-A      8.4940 eV  145.97 nm  f=0.0001  <S**2>=0.000
      13 -> 18         0.17312
      13 -> 19         0.66221

 Excited State   9:      Singlet-A      8.6828 eV  142.79 nm  f=0.0677  <S**2>=0.000
      11 -> 14         0.62905
      12 -> 16        -0.23248
      12 -> 17        -0.11030

 Excited State  10:      Singlet-A      8.8033 eV  140.84 nm  f=0.2112  <S**2>=0.000
       8 -> 15         0.14460
       8 -> 16         0.10143
      11 -> 14        -0.12339
      12 -> 15         0.57505
      12 -> 16        -0.22514
      12 -> 17        -0.14485
      12 -> 18        -0.13093

 Excited State  11:      Singlet-A      9.3542 eV  132.54 nm  f=0.0003  <S**2>=0.000
      11 -> 15         0.11754
      13 -> 17         0.11802
      13 -> 18         0.16428
      13 -> 19        -0.10519
      13 -> 21         0.64790

 Excited State  12:      Singlet-A      9.4425 eV  131.30 nm  f=0.1210  <S**2>=0.000
      11 -> 14         0.23711
      12 -> 15         0.26927
      12 -> 16         0.56514

 Excited State  13:      Singlet-A      9.5746 eV  129.49 nm  f=0.0130  <S**2>=0.000
       7 -> 15         0.14280
      11 -> 15         0.64339
      13 -> 15         0.10830
      13 -> 20        -0.11383
      13 -> 21        -0.14332

 Excited State  14:      Singlet-A      9.6884 eV  127.97 nm  f=0.0874  <S**2>=0.000
      11 -> 15         0.11436
      13 -> 20         0.67489

 Excited State  15:      Singlet-A      9.8386 eV  126.02 nm  f=0.0512  <S**2>=0.000
       9 -> 15         0.12538
       9 -> 16        -0.11616
      10 -> 15        -0.17392
      10 -> 16        -0.20250
      10 -> 17         0.16674
      10 -> 18        -0.17429
      12 -> 15         0.16530
      12 -> 16        -0.14060
      12 -> 17         0.35067
      12 -> 18         0.26559
      12 -> 19        -0.22419

 The electronic state is 1-A.
 Alpha  occ. eigenvalues --   -1.73365  -1.15228  -0.95210  -0.81516  -0.75451
 Alpha  occ. eigenvalues --   -0.67720  -0.63816  -0.53563  -0.49768  -0.44934
 Alpha  occ. eigenvalues --   -0.43774  -0.39062  -0.26243
 Alpha virt. eigenvalues --    0.11481   0.15838   0.17728   0.26979   0.28511
 Alpha virt. eigenvalues --    0.30282   0.33265   0.33367   0.38497   0.48239
 Alpha virt. eigenvalues --    0.51786

 Mulliken charges:
               1
     1  C   -0.040486
     2  C   -1.859414
     3  O    3.209775
     4  C   -1.890091
     5  C   -0.130889
     6  H    0.115512
     7  H    0.243838
     8  H    0.243630
     9  H    0.108125
 Sum of Mulliken charges =   0.00000

 Dipole moment (field-independent basis, Debye):
    X=              0.0602    Y=            -11.5923    Z=             -1.0644  Tot=             11.6412
 N-N= 1.036635690211D+02 E-N=-1.685150031463D+02  KE=-1.502981592137D+01
 Orbital energies and kinetic energies (alpha):
                                 1                 2
   1         O                -1.733647         -1.221502
   2         O                -1.152283         -1.018882
   3         O                -0.952102         -0.875809
   4         O                -0.815156         -0.618710
   5         O                -0.754508         -0.675771
   6         O                -0.677202         -0.566670
   7         O                -0.638159         -0.519678

 Normal termination of Gaussian 09 at Tue Dec 15 17:06:10 2015.
