 Gaussian 09, Revision D.01,
 Gaussian 09:  ES64L-G09RevD.01 24-Apr-2013

 ------------------------------------------------------------
 #P AM1(Input,print) CIS(Singlets,NStates=15) pop(full) force
 ------------------------------------------------------------

 -----------------
 AM1-Reparam Input
 -----------------
 Symbolic Z-matrix:
 Charge =  0 Multiplicity = 1

                         Standard orientation:
 ---------------------------------------------------------------------
 Center     Atomic      Atomic             Coordinates (Angstroms)
 Number     Number       Type             X           Y           Z
 ---------------------------------------------------------------------
      1          6           0        0.666294    1.023339    0.017408
      2          6           0        1.136860   -0.249874   -0.014082
      3          8           0        0.089896   -1.178830   -0.004540
      4          6           0       -1.096074   -0.398709    0.011096
      5          6           0       -0.792337    0.873631   -0.015119
      6          1           0       -1.484298    1.786474   -0.001429
      7          1           0       -2.044421   -0.954456    0.016592
      8          1           0        2.101279   -0.747939    0.035972
      9          1           0        1.219823    1.856243   -0.010626
 ---------------------------------------------------------------------

 SCF Done:  E(RAM1) =   2.07738212505     A.U. after   13 cycles

 Excitation energies and oscillator strengths:

 Excited State   1:      Singlet-A      5.1316 eV  241.61 nm  f=0.3563  <S**2>=0.000
      13 -> 14         0.69656
 This state for optimization and/or second-order correction.
 Total Energy, E(CIS) =   2.26596343496
 Copying the excited state density for this state as the 1-particle RhoCI density.

 Excited State   2:      Singlet-A      6.4707 eV  191.61 nm  f=0.0012  <S**2>=0.000
      12 -> 14        -0.10924
      13 -> 15         0.58976
      13 -> 16        -0.18600
      13 -> 17         0.21651
      13 -> 18        -0.19334

 Excited State   3:      Singlet-A      6.5602 eV  189.00 nm  f=0.0012  <S**2>=0.000
      12 -> 14         0.68669
      13 -> 15         0.12655

 Excited State   4:      Singlet-A      6.6948 eV  185.19 nm  f=0.0056  <S**2>=0.000
      13 -> 15         0.20690
      13 -> 16         0.61279
      13 -> 17         0.11459
      13 -> 18         0.21799

 Excited State   5:      Singlet-A      7.6240 eV  162.62 nm  f=0.0007  <S**2>=0.000
      11 -> 14        -0.10711
      13 -> 15         0.18738
      13 -> 16        -0.15360
      13 -> 17        -0.28995
      13 -> 18         0.38778
      13 -> 19         0.24765
      13 -> 20         0.33932

 Excited State   6:      Singlet-A      7.8127 eV  158.70 nm  f=0.0076  <S**2>=0.000
      11 -> 14         0.68324

 Excited State   7:      Singlet-A      8.2668 eV  149.98 nm  f=0.0224  <S**2>=0.000
      13 -> 15        -0.15816
      13 -> 16        -0.12842
      13 -> 17         0.58123
      13 -> 18         0.24710
      13 -> 19         0.12449
      13 -> 20         0.14153

 Excited State   8:      Singlet-A      8.6821 eV  142.80 nm  f=0.0001  <S**2>=0.000
      13 -> 16         0.14066
      13 -> 18        -0.34243
      13 -> 19         0.56415
      13 -> 20         0.14001

 Excited State   9:      Singlet-A      8.7580 eV  141.57 nm  f=0.0821  <S**2>=0.000
      10 -> 14         0.66674
      13 -> 21         0.12415

 Excited State  10:      Singlet-A      9.2152 eV  134.54 nm  f=0.0305  <S**2>=0.000
      13 -> 18        -0.25580
      13 -> 19        -0.30061
      13 -> 20         0.56108

 Excited State  11:      Singlet-A      9.3661 eV  132.38 nm  f=0.0820  <S**2>=0.000
      11 -> 16         0.12590
      11 -> 17         0.13793
      11 -> 18         0.13311
      12 -> 15         0.33829
      12 -> 16        -0.27604
      12 -> 17         0.23817
      12 -> 18        -0.31017
      12 -> 19        -0.12050
      12 -> 20        -0.14223

 Excited State  12:      Singlet-A      9.9082 eV  125.13 nm  f=0.0496  <S**2>=0.000
      13 -> 22         0.68495

 Excited State  13:      Singlet-A      9.9648 eV  124.42 nm  f=0.0764  <S**2>=0.000
      11 -> 16         0.15530
      11 -> 18         0.12658
      12 -> 15         0.23116
      12 -> 16         0.55082
      12 -> 17         0.20067
      12 -> 18         0.10749

 Excited State  14:      Singlet-A     10.1579 eV  122.06 nm  f=0.2434  <S**2>=0.000
       8 -> 15         0.14525
      10 -> 14         0.10377
      11 -> 15        -0.24508
      11 -> 16        -0.12182
      11 -> 17        -0.16965
      12 -> 15         0.42122
      12 -> 16        -0.10521
      12 -> 17        -0.11642
      12 -> 18         0.11593
      12 -> 19         0.32858

 Excited State  15:      Singlet-A     10.3304 eV  120.02 nm  f=0.0679  <S**2>=0.000
      10 -> 14        -0.10801
      11 -> 15        -0.19054
      11 -> 16         0.10292
      13 -> 21         0.63524

 The electronic state is 1-A.
 Alpha  occ. eigenvalues --   -1.92277  -1.18854  -0.94856  -0.81429  -0.78407
 Alpha  occ. eigenvalues --   -0.68182  -0.63405  -0.53996  -0.53471  -0.43719
 Alpha  occ. eigenvalues --   -0.43484  -0.39521  -0.27389
 Alpha virt. eigenvalues --    0.11613   0.19629   0.20174   0.26438   0.28191
 Alpha virt. eigenvalues --    0.29307   0.30668   0.32728   0.33247   0.42077
 Alpha virt. eigenvalues --    0.45849

 Mulliken charges:
               1
     1  C   -0.246751
     2  C   -1.974760
     3  O    3.179979
     4  C   -1.964983
     5  C   -0.206755
     6  H    0.254735
     7  H    0.363290
     8  H    0.347178
     9  H    0.248068
 Sum of Mulliken charges =   0.00000

 Dipole moment (field-independent basis, Debye):
    X=              0.4737    Y=            -11.2471    Z=              0.0531  Tot=             11.2572
 N-N= 1.036900186142D+02 E-N=-1.686179158167D+02  KE=-1.542758020096D+01
 Orbital energies and kinetic energies (alpha):
                                 1                 2
   1         O                -1.922769         -1.344894
   2         O                -1.188536         -1.065894
   3         O                -0.948556         -0.881658
   4         O                -0.814288         -0.603228
   5         O                -0.784067         -0.665957
   6         O                -0.681816         -0.570992
   7         O                -0.634051         -0.516643

 Normal termination of Gaussian 09 at Tue Dec 15 17:07:14 2015.
