 Gaussian 09, Revision D.01,
 Gaussian 09:  ES64L-G09RevD.01 24-Apr-2013

 ------------------------------------------------------------
 #P AM1(Input,print) CIS(Singlets,NStates=15) pop(full) force
 ------------------------------------------------------------

 -----------------
 AM1-Reparam Input
 -----------------
 Symbolic Z-matrix:
 Charge =  0 Multiplicity = 1

                         Standard orientation:
 ---------------------------------------------------------------------
 Center     Atomic      Atomic             Coordinates (Angstroms)
 Number     Number       Type             X           Y           Z
 ---------------------------------------------------------------------
      1          6           0       -0.257164    1.151475   -0.027852
      2          6           0        0.996723    0.546250   -0.011402
      3          8           0        0.909943   -0.750057    0.005757
      4          6           0       -0.485246   -1.033249   -0.014089
      5          6           0       -1.214787    0.121354    0.032600
      6          1           0       -2.271530    0.189291   -0.054279
      7          1           0       -0.693412   -2.123085    0.015739
      8          1           0        1.950343    0.986965    0.051470
      9          1           0       -0.502104    2.232304    0.065469
 ---------------------------------------------------------------------

 SCF Done:  E(RAM1) =   1.78672132860     A.U. after   14 cycles

 Excitation energies and oscillator strengths:

 Excited State   1:      Singlet-A      5.6237 eV  220.47 nm  f=0.3362  <S**2>=0.000
      13 -> 14         0.68983
 This state for optimization and/or second-order correction.
 Total Energy, E(CIS) =   1.99338770582
 Copying the excited state density for this state as the 1-particle RhoCI density.

 Excited State   2:      Singlet-A      6.7012 eV  185.02 nm  f=0.0094  <S**2>=0.000
      13 -> 15         0.67216
      13 -> 17        -0.13383

 Excited State   3:      Singlet-A      7.1509 eV  173.38 nm  f=0.0024  <S**2>=0.000
      11 -> 16        -0.10547
      13 -> 16         0.66345
      13 -> 18         0.11475
      13 -> 19         0.10818

 Excited State   4:      Singlet-A      7.6100 eV  162.92 nm  f=0.0005  <S**2>=0.000
      12 -> 14         0.69943

 Excited State   5:      Singlet-A      8.2885 eV  149.59 nm  f=0.0078  <S**2>=0.000
      10 -> 14         0.58959
      11 -> 14        -0.37099

 Excited State   6:      Singlet-A      8.4290 eV  147.09 nm  f=0.0001  <S**2>=0.000
      13 -> 16        -0.11300
      13 -> 17        -0.21382
      13 -> 18         0.59291
      13 -> 21         0.23694

 Excited State   7:      Singlet-A      9.0511 eV  136.98 nm  f=0.0592  <S**2>=0.000
      10 -> 14         0.25448
      10 -> 15        -0.10423
      11 -> 14         0.46222
      13 -> 17        -0.37892
      13 -> 18        -0.12170

 Excited State   8:      Singlet-A      9.0818 eV  136.52 nm  f=0.0479  <S**2>=0.000
      10 -> 14         0.25794
      11 -> 14         0.32215
      11 -> 15         0.12901
      13 -> 17         0.49615
      13 -> 18         0.16521

 Excited State   9:      Singlet-A      9.6865 eV  128.00 nm  f=0.0016  <S**2>=0.000
      11 -> 16         0.13036
      13 -> 19         0.66928

 Excited State  10:      Singlet-A      9.8410 eV  125.99 nm  f=0.0119  <S**2>=0.000
       9 -> 15         0.16875
      10 -> 15         0.23681
      10 -> 16         0.12051
      10 -> 17        -0.20020
      11 -> 14         0.13218
      12 -> 15        -0.17524
      12 -> 16         0.28583
      12 -> 17        -0.14252
      12 -> 18         0.33491

 Excited State  11:      Singlet-A     10.0131 eV  123.82 nm  f=0.1058  <S**2>=0.000
      10 -> 15         0.22134
      11 -> 15        -0.11843
      12 -> 15         0.60620
      12 -> 17        -0.16396

 Excited State  12:      Singlet-A     10.2172 eV  121.35 nm  f=0.0063  <S**2>=0.000
       7 -> 15        -0.11528
      10 -> 15         0.31359
      11 -> 15         0.54728
      13 -> 15        -0.12609
      13 -> 20         0.17170

 Excited State  13:      Singlet-A     10.3446 eV  119.85 nm  f=0.0314  <S**2>=0.000
      13 -> 18         0.25904
      13 -> 20         0.45282
      13 -> 21        -0.42625

 Excited State  14:      Singlet-A     10.6065 eV  116.89 nm  f=0.2264  <S**2>=0.000
       8 -> 16         0.12819
      10 -> 16        -0.25648
      11 -> 16         0.21685
      12 -> 16         0.51683
      12 -> 18        -0.13441

 Excited State  15:      Singlet-A     10.7503 eV  115.33 nm  f=0.0628  <S**2>=0.000
      11 -> 16        -0.19166
      13 -> 20         0.42871
      13 -> 21         0.48128

 The electronic state is 1-A.
 Alpha  occ. eigenvalues --   -1.99395  -1.26986  -0.99197  -0.89299  -0.84960
 Alpha  occ. eigenvalues --   -0.76427  -0.74123  -0.62939  -0.61354  -0.51871
 Alpha  occ. eigenvalues --   -0.51480  -0.49685  -0.37169
 Alpha virt. eigenvalues --    0.04931   0.10626   0.12674   0.19595   0.20539
 Alpha virt. eigenvalues --    0.23042   0.25433   0.27489   0.29543   0.37732
 Alpha virt. eigenvalues --    0.42472

 Mulliken charges:
               1
     1  C   -0.195387
     2  C   -1.914711
     3  O    3.163292
     4  C   -1.878079
     5  C   -0.030274
     6  H    0.139195
     7  H    0.264944
     8  H    0.291206
     9  H    0.159815
 Sum of Mulliken charges =   0.00000

 Dipole moment (field-independent basis, Debye):
    X=              8.3716    Y=             -6.6703    Z=              0.4663  Tot=             10.7141
 N-N= 1.054054942224D+02 E-N=-1.702979071665D+02  KE=-1.564190662863D+01
 Orbital energies and kinetic energies (alpha):
                                 1                 2
   1         O                -1.993953         -1.374091
   2         O                -1.269862         -1.057545
   3         O                -0.991975         -0.864920
   4         O                -0.892992         -0.597746
   5         O                -0.849599         -0.696184
   6         O                -0.764273         -0.600772
   7         O                -0.741228         -0.543574

 Normal termination of Gaussian 09 at Tue Dec 15 17:09:05 2015.
