 Gaussian 09, Revision D.01,
 Gaussian 09:  ES64L-G09RevD.01 24-Apr-2013

 ------------------------------------------------------------
 #P AM1(Input,print) CIS(Singlets,NStates=15) pop(full) force
 ------------------------------------------------------------

 -----------------
 AM1-Reparam Input
 -----------------
 Symbolic Z-matrix:
 Charge =  0 Multiplicity = 1

                         Standard orientation:
 ---------------------------------------------------------------------
 Center     Atomic      Atomic             Coordinates (Angstroms)
 Number     Number       Type             X           Y           Z
 ---------------------------------------------------------------------
      1          6           0       -0.641123    1.005779   -0.031384
      2          6           0       -1.129898   -0.283423    0.038843
      3          8           0       -0.049575   -1.188788   -0.025569
      4          6           0        1.067270   -0.347998    0.002481
      5          6           0        0.740796    0.891495    0.010900
      6          1           0        1.483228    1.728144    0.013694
      7          1           0        2.054875   -0.910209    0.044960
      8          1           0       -2.029750   -0.737221    0.024056
      9          1           0       -1.334025    1.834473   -0.003191
 ---------------------------------------------------------------------

 SCF Done:  E(RAM1) =   2.59885485929     A.U. after   13 cycles

 Excitation energies and oscillator strengths:

 Excited State   1:      Singlet-A      5.4188 eV  228.80 nm  f=0.3138  <S**2>=0.000
      13 -> 14         0.69215
 This state for optimization and/or second-order correction.
 Total Energy, E(CIS) =   2.79799164417
 Copying the excited state density for this state as the 1-particle RhoCI density.

 Excited State   2:      Singlet-A      6.0205 eV  205.94 nm  f=0.0004  <S**2>=0.000
      10 -> 15         0.12626
      13 -> 15         0.67820

 Excited State   3:      Singlet-A      6.6047 eV  187.72 nm  f=0.0024  <S**2>=0.000
      10 -> 16        -0.11141
      13 -> 16         0.65608
      13 -> 17        -0.17828
      13 -> 19        -0.13142

 Excited State   4:      Singlet-A      7.1365 eV  173.73 nm  f=0.0014  <S**2>=0.000
      12 -> 14         0.69700

 Excited State   5:      Singlet-A      7.7546 eV  159.88 nm  f=0.0071  <S**2>=0.000
      11 -> 14         0.67505
      13 -> 17        -0.16898

 Excited State   6:      Singlet-A      8.0383 eV  154.24 nm  f=0.0019  <S**2>=0.000
      10 -> 16        -0.11835
      11 -> 14         0.15488
      13 -> 16         0.12459
      13 -> 17         0.51114
      13 -> 18        -0.35865
      13 -> 21         0.22380

 Excited State   7:      Singlet-A      8.1109 eV  152.86 nm  f=0.0075  <S**2>=0.000
      11 -> 14         0.10704
      13 -> 17         0.38195
      13 -> 18         0.45938
      13 -> 19        -0.21129
      13 -> 21        -0.24565

 Excited State   8:      Singlet-A      8.8252 eV  140.49 nm  f=0.0007  <S**2>=0.000
      10 -> 16        -0.12631
      13 -> 16         0.11344
      13 -> 18         0.27439
      13 -> 19         0.60141

 Excited State   9:      Singlet-A      8.8669 eV  139.83 nm  f=0.0294  <S**2>=0.000
       8 -> 15        -0.12280
      10 -> 14         0.57125
      12 -> 15         0.33000

 Excited State  10:      Singlet-A      9.2242 eV  134.41 nm  f=0.1596  <S**2>=0.000
       8 -> 15        -0.11581
      10 -> 14        -0.37335
      12 -> 15         0.53250
      12 -> 16        -0.13664

 Excited State  11:      Singlet-A      9.3971 eV  131.94 nm  f=0.1011  <S**2>=0.000
       9 -> 15         0.17841
      11 -> 15         0.33162
      11 -> 16         0.17527
      11 -> 17        -0.26282
      11 -> 18        -0.10125
      12 -> 15        -0.22361
      12 -> 16        -0.21144
      12 -> 17         0.20396
      12 -> 18        -0.22700

 Excited State  12:      Singlet-A      9.5762 eV  129.47 nm  f=0.0011  <S**2>=0.000
      10 -> 15        -0.10603
      13 -> 18         0.27750
      13 -> 19        -0.21730
      13 -> 21         0.57996

 Excited State  13:      Singlet-A      9.8259 eV  126.18 nm  f=0.0212  <S**2>=0.000
       7 -> 15        -0.13840
      10 -> 15         0.62885
      13 -> 15        -0.12995
      13 -> 20         0.14725
      13 -> 21         0.16292

 Excited State  14:      Singlet-A      9.9508 eV  124.60 nm  f=0.0884  <S**2>=0.000
      10 -> 15        -0.14646
      10 -> 16        -0.14812
      13 -> 20         0.64031

 Excited State  15:      Singlet-A      9.9725 eV  124.33 nm  f=0.1471  <S**2>=0.000
       8 -> 15         0.11005
       9 -> 15        -0.11525
       9 -> 16        -0.13379
      11 -> 15        -0.19099
      11 -> 16         0.47633
      11 -> 17        -0.13802
      11 -> 18        -0.13321
      11 -> 19        -0.17503
      12 -> 16         0.21548
      12 -> 17        -0.14297
      12 -> 18        -0.12388
      13 -> 20        -0.14967

 The electronic state is 1-A.
 Alpha  occ. eigenvalues --   -1.72018  -1.17125  -0.94855  -0.80010  -0.76435
 Alpha  occ. eigenvalues --   -0.66930  -0.63752  -0.53484  -0.50254  -0.42787
 Alpha  occ. eigenvalues --   -0.41703  -0.39824  -0.27669
 Alpha virt. eigenvalues --    0.13394   0.16742   0.20427   0.26006   0.28541
 Alpha virt. eigenvalues --    0.30320   0.32834   0.34201   0.36729   0.46634
 Alpha virt. eigenvalues --    0.49917

 Mulliken charges:
               1
     1  C   -0.089127
     2  C   -1.906696
     3  O    3.221528
     4  C   -1.882189
     5  C   -0.050816
     6  H    0.111391
     7  H    0.247987
     8  H    0.229877
     9  H    0.118045
 Sum of Mulliken charges =   0.00000

 Dipole moment (field-independent basis, Debye):
    X=              0.2669    Y=            -11.7080    Z=             -0.5684  Tot=             11.7248
 N-N= 1.036620635139D+02 E-N=-1.685589307841D+02  KE=-1.503056379684D+01
 Orbital energies and kinetic energies (alpha):
                                 1                 2
   1         O                -1.720181         -1.204961
   2         O                -1.171254         -1.025187
   3         O                -0.948546         -0.884692
   4         O                -0.800103         -0.610031
   5         O                -0.764350         -0.672891
   6         O                -0.669296         -0.567292
   7         O                -0.637519         -0.529014

 Normal termination of Gaussian 09 at Tue Dec 15 17:06:26 2015.
