 Gaussian 09, Revision D.01,
 Gaussian 09:  ES64L-G09RevD.01 24-Apr-2013

 ------------------------------------------------------------
 #P AM1(Input,print) CIS(Singlets,NStates=15) pop(full) force
 ------------------------------------------------------------

 -----------------
 AM1-Reparam Input
 -----------------
 Symbolic Z-matrix:
 Charge =  0 Multiplicity = 1

                         Standard orientation:
 ---------------------------------------------------------------------
 Center     Atomic      Atomic             Coordinates (Angstroms)
 Number     Number       Type             X           Y           Z
 ---------------------------------------------------------------------
      1          6           0       -0.589631    1.054575   -0.016792
      2          6           0       -1.111765   -0.243624    0.022295
      3          8           0       -0.166484   -1.104616   -0.019738
      4          6           0        1.022811   -0.500155    0.018573
      5          6           0        0.862725    0.830863    0.001271
      6          1           0        1.536019    1.614345    0.031805
      7          1           0        1.917824   -1.073725   -0.032990
      8          1           0       -2.131600   -0.546810    0.034210
      9          1           0       -1.095214    1.993169   -0.027213
 ---------------------------------------------------------------------

 SCF Done:  E(RAM1) =   1.09149318286     A.U. after   14 cycles

 Excitation energies and oscillator strengths:

 Excited State   1:      Singlet-A      5.4646 eV  226.89 nm  f=0.2450  <S**2>=0.000
      12 -> 17        -0.11719
      13 -> 14         0.68666
 This state for optimization and/or second-order correction.
 Total Energy, E(CIS) =   1.29231343853
 Copying the excited state density for this state as the 1-particle RhoCI density.

 Excited State   2:      Singlet-A      6.4082 eV  193.48 nm  f=0.0048  <S**2>=0.000
      13 -> 15         0.68286
      13 -> 19         0.12947

 Excited State   3:      Singlet-A      6.9129 eV  179.35 nm  f=0.0010  <S**2>=0.000
      13 -> 16         0.64894
      13 -> 18        -0.21431
      13 -> 21         0.13423

 Excited State   4:      Singlet-A      7.0941 eV  174.77 nm  f=0.0017  <S**2>=0.000
       9 -> 14         0.21690
      11 -> 14         0.63340
      12 -> 14         0.18911

 Excited State   5:      Singlet-A      7.2891 eV  170.09 nm  f=0.0112  <S**2>=0.000
      11 -> 14        -0.19103
      12 -> 14         0.53350
      13 -> 17         0.40341

 Excited State   6:      Singlet-A      8.0462 eV  154.09 nm  f=0.0008  <S**2>=0.000
       9 -> 14         0.10722
      10 -> 14         0.55371
      13 -> 18         0.35794

 Excited State   7:      Singlet-A      8.0611 eV  153.81 nm  f=0.0012  <S**2>=0.000
      10 -> 14        -0.39458
      12 -> 15         0.15704
      13 -> 16         0.15166
      13 -> 18         0.49287
      13 -> 19        -0.10577
      13 -> 22         0.11710

 Excited State   8:      Singlet-A      8.2645 eV  150.02 nm  f=0.2430  <S**2>=0.000
      12 -> 14        -0.40120
      13 -> 17         0.53900

 Excited State   9:      Singlet-A      8.5285 eV  145.38 nm  f=0.0022  <S**2>=0.000
      12 -> 15         0.64675
      13 -> 18        -0.13623

 Excited State  10:      Singlet-A      8.8147 eV  140.66 nm  f=0.0147  <S**2>=0.000
       9 -> 14        -0.18140
       9 -> 15        -0.18946
       9 -> 17         0.15265
      10 -> 15         0.13351
      11 -> 15         0.43299
      11 -> 17        -0.35283
      11 -> 20         0.10774
      13 -> 20         0.12923

 Excited State  11:      Singlet-A      8.8962 eV  139.37 nm  f=0.0007  <S**2>=0.000
       9 -> 14         0.60957
      11 -> 14        -0.22040
      11 -> 15         0.18179

 Excited State  12:      Singlet-A      8.9935 eV  137.86 nm  f=0.0079  <S**2>=0.000
       9 -> 17        -0.13830
      10 -> 14         0.11339
      11 -> 17         0.32124
      13 -> 19        -0.22341
      13 -> 20         0.50221
      13 -> 23         0.11657

 Excited State  13:      Singlet-A      9.0536 eV  136.94 nm  f=0.0169  <S**2>=0.000
       9 -> 15        -0.14668
       9 -> 17        -0.16963
      10 -> 15         0.15270
      11 -> 15         0.24734
      11 -> 16         0.11090
      11 -> 17         0.36885
      12 -> 16         0.12440
      13 -> 20        -0.35754
      13 -> 21        -0.10987

 Excited State  14:      Singlet-A      9.1524 eV  135.47 nm  f=0.0143  <S**2>=0.000
       9 -> 16         0.10644
      11 -> 15        -0.12397
      11 -> 17        -0.12908
      12 -> 16         0.56562
      12 -> 17         0.12094
      13 -> 19        -0.21460

 Excited State  15:      Singlet-A      9.2447 eV  134.11 nm  f=0.0440  <S**2>=0.000
       8 -> 15        -0.10659
       9 -> 16         0.24564
       9 -> 18        -0.10260
      10 -> 15         0.20295
      11 -> 15        -0.12370
      11 -> 16         0.13855
      11 -> 18        -0.23897
      12 -> 16        -0.19005
      12 -> 17         0.39923
      13 -> 19         0.12813

 The electronic state is 1-A.
 Alpha  occ. eigenvalues --   -1.87184  -1.19047  -1.00919  -0.88600  -0.81062
 Alpha  occ. eigenvalues --   -0.74854  -0.73400  -0.62228  -0.54892  -0.53874
 Alpha  occ. eigenvalues --   -0.50160  -0.48336  -0.38939
 Alpha virt. eigenvalues --    0.02148   0.08977   0.10919   0.11853   0.17379
 Alpha virt. eigenvalues --    0.19169   0.20469   0.21235   0.25996   0.26923
 Alpha virt. eigenvalues --    0.29942

 Mulliken charges:
               1
     1  C   -0.157379
     2  C   -1.297870
     3  O    2.179491
     4  C   -1.296598
     5  C   -0.081677
     6  H    0.103848
     7  H    0.215798
     8  H    0.222903
     9  H    0.111486
 Sum of Mulliken charges =   0.00000

 Dipole moment (field-independent basis, Debye):
    X=             -1.0329    Y=             -6.4318    Z=             -0.3801  Tot=              6.5253
 N-N= 1.050074298012D+02 E-N=-1.720804648468D+02  KE=-1.508152391749D+01
 Orbital energies and kinetic energies (alpha):
                                 1                 2
   1         O                -1.871841         -1.288463
   2         O                -1.190468         -0.963800
   3         O                -1.009191         -0.798318
   4         O                -0.886003         -0.650883
   5         O                -0.810618         -0.681766
   6         O                -0.748538         -0.593944
   7         O                -0.734003         -0.519917

 Normal termination of Gaussian 09 at Tue Dec 15 17:05:43 2015.
