 Gaussian 09, Revision D.01,
 Gaussian 09:  ES64L-G09RevD.01 24-Apr-2013

 ------------------------------------------------------------
 #P AM1(Input,print) CIS(Singlets,NStates=15) pop(full) force
 ------------------------------------------------------------

 -----------------
 AM1-Reparam Input
 -----------------
 Symbolic Z-matrix:
 Charge =  0 Multiplicity = 1

                         Standard orientation:
 ---------------------------------------------------------------------
 Center     Atomic      Atomic             Coordinates (Angstroms)
 Number     Number       Type             X           Y           Z
 ---------------------------------------------------------------------
      1          6           0        0.793690    0.909031   -0.010062
      2          6           0        1.055359   -0.510029    0.011774
      3          8           0       -0.149891   -1.129275   -0.013064
      4          6           0       -1.121935   -0.230682   -0.006400
      5          6           0       -0.571771    1.008855    0.009104
      6          1           0       -1.136870    2.020088    0.001615
      7          1           0       -2.183792   -0.585309    0.049894
      8          1           0        1.969325   -1.125736    0.039170
      9          1           0        1.618412    1.662100   -0.012663
 ---------------------------------------------------------------------

 SCF Done:  E(RAM1) =   2.77299486586     A.U. after   13 cycles

 Excitation energies and oscillator strengths:

 Excited State   1:      Singlet-A      5.6809 eV  218.25 nm  f=0.3162  <S**2>=0.000
      13 -> 14         0.69102
 This state for optimization and/or second-order correction.
 Total Energy, E(CIS) =   2.98176436623
 Copying the excited state density for this state as the 1-particle RhoCI density.

 Excited State   2:      Singlet-A      6.7725 eV  183.07 nm  f=0.0072  <S**2>=0.000
      11 -> 15         0.10660
      13 -> 15         0.59507
      13 -> 16         0.23690
      13 -> 17        -0.23074

 Excited State   3:      Singlet-A      7.0054 eV  176.98 nm  f=0.0007  <S**2>=0.000
       9 -> 14        -0.14132
      12 -> 14         0.68289

 Excited State   4:      Singlet-A      7.0800 eV  175.12 nm  f=0.0017  <S**2>=0.000
      11 -> 15        -0.12123
      13 -> 15        -0.24898
      13 -> 16         0.57867
      13 -> 17        -0.12501
      13 -> 18        -0.12532
      13 -> 19         0.17833

 Excited State   5:      Singlet-A      7.6734 eV  161.58 nm  f=0.0046  <S**2>=0.000
       9 -> 14         0.10218
      10 -> 14         0.67783
      11 -> 14         0.10523

 Excited State   6:      Singlet-A      8.1769 eV  151.63 nm  f=0.0055  <S**2>=0.000
      11 -> 16        -0.19061
      13 -> 15         0.11720
      13 -> 16         0.15303
      13 -> 17         0.58030
      13 -> 18         0.10825
      13 -> 19         0.13024
      13 -> 21         0.21062

 Excited State   7:      Singlet-A      8.3235 eV  148.96 nm  f=0.0078  <S**2>=0.000
      11 -> 15        -0.13796
      13 -> 15        -0.12690
      13 -> 17        -0.23006
      13 -> 18         0.41342
      13 -> 21         0.47999

 Excited State   8:      Singlet-A      8.5544 eV  144.94 nm  f=0.0902  <S**2>=0.000
      10 -> 14        -0.10464
      11 -> 14         0.68250

 Excited State   9:      Singlet-A      8.8554 eV  140.01 nm  f=0.0015  <S**2>=0.000
      11 -> 16         0.12851
      13 -> 16        -0.14523
      13 -> 19         0.63718
      13 -> 20        -0.11346

 Excited State  10:      Singlet-A      9.1114 eV  136.08 nm  f=0.0050  <S**2>=0.000
      13 -> 18         0.53127
      13 -> 21        -0.42713

 Excited State  11:      Singlet-A      9.3498 eV  132.61 nm  f=0.1237  <S**2>=0.000
       9 -> 15        -0.13382
       9 -> 18        -0.11071
      10 -> 15        -0.27107
      10 -> 16        -0.19699
      10 -> 17         0.30155
      12 -> 15        -0.12954
      12 -> 16        -0.22211
      12 -> 17         0.21652
      12 -> 18         0.17874
      12 -> 19         0.10563
      12 -> 21         0.13828
      13 -> 14        -0.11159

 Excited State  12:      Singlet-A      9.4492 eV  131.21 nm  f=0.0747  <S**2>=0.000
      12 -> 15         0.62604
      12 -> 18         0.17901

 Excited State  13:      Singlet-A      9.5501 eV  129.82 nm  f=0.0897  <S**2>=0.000
      13 -> 19         0.11055
      13 -> 20         0.67214

 Excited State  14:      Singlet-A      9.7760 eV  126.82 nm  f=0.0071  <S**2>=0.000
       9 -> 14         0.12793
      11 -> 15         0.53187
      11 -> 16         0.26296
      11 -> 17        -0.14347
      11 -> 20         0.10408
      13 -> 15        -0.13210
      13 -> 16         0.14954
      13 -> 21         0.12341

 Excited State  15:      Singlet-A      9.8756 eV  125.55 nm  f=0.0552  <S**2>=0.000
       9 -> 14        -0.13571
      10 -> 16         0.44833
      10 -> 19         0.19300
      12 -> 16        -0.37297
      12 -> 17         0.19708

 The electronic state is 1-A.
 Alpha  occ. eigenvalues --   -1.72300  -1.11617  -0.90919  -0.78596  -0.74289
 Alpha  occ. eigenvalues --   -0.65775  -0.63885  -0.54523  -0.49265  -0.42944
 Alpha  occ. eigenvalues --   -0.42560  -0.40776  -0.30662
 Alpha virt. eigenvalues --    0.11551   0.17288   0.19155   0.23002   0.25770
 Alpha virt. eigenvalues --    0.26908   0.28158   0.30063   0.39307   0.47708
 Alpha virt. eigenvalues --    0.52707

 Mulliken charges:
               1
     1  C   -0.117085
     2  C   -2.004666
     3  O    3.224467
     4  C   -1.981704
     5  C   -0.114857
     6  H    0.182323
     7  H    0.320092
     8  H    0.307376
     9  H    0.184054
 Sum of Mulliken charges =   0.00000

 Dipole moment (field-independent basis, Debye):
    X=             -1.7424    Y=             -9.2842    Z=             -0.0565  Tot=              9.4465
 N-N= 1.037320105489D+02 E-N=-1.688256612218D+02  KE=-1.473014608561D+01
 Orbital energies and kinetic energies (alpha):
                                 1                 2
   1         O                -1.723003         -1.230582
   2         O                -1.116169         -0.979704
   3         O                -0.909189         -0.817339
   4         O                -0.785960         -0.598709
   5         O                -0.742888         -0.668423
   6         O                -0.657746         -0.581634
   7         O                -0.638851         -0.523937

 Normal termination of Gaussian 09 at Tue Dec 15 17:05:51 2015.
