 Gaussian 09, Revision D.01,
 Gaussian 09:  ES64L-G09RevD.01 24-Apr-2013

 ------------------------------------------------------------
 #P AM1(Input,print) CIS(Singlets,NStates=15) pop(full) force
 ------------------------------------------------------------

 -----------------
 AM1-Reparam Input
 -----------------
 Symbolic Z-matrix:
 Charge =  0 Multiplicity = 1

                         Standard orientation:
 ---------------------------------------------------------------------
 Center     Atomic      Atomic             Coordinates (Angstroms)
 Number     Number       Type             X           Y           Z
 ---------------------------------------------------------------------
      1          6           0       -0.611481    1.018234   -0.012699
      2          6           0       -1.096582   -0.170793    0.015960
      3          8           0       -0.181562   -1.109748   -0.010608
      4          6           0        1.017743   -0.505011    0.001332
      5          6           0        0.894040    0.834652    0.013340
      6          1           0        1.602161    1.597933   -0.015683
      7          1           0        1.865715   -1.158445   -0.001804
      8          1           0       -2.192187   -0.563814    0.011929
      9          1           0       -1.045513    1.939813   -0.017174
 ---------------------------------------------------------------------

 SCF Done:  E(RAM1) =   1.75712100978     A.U. after   14 cycles

 Excitation energies and oscillator strengths:

 Excited State   1:      Singlet-A      4.9680 eV  249.56 nm  f=0.3572  <S**2>=0.000
      13 -> 14         0.69653
 This state for optimization and/or second-order correction.
 Total Energy, E(CIS) =   1.93969257793
 Copying the excited state density for this state as the 1-particle RhoCI density.

 Excited State   2:      Singlet-A      5.3603 eV  231.30 nm  f=0.0006  <S**2>=0.000
      13 -> 15         0.68027
      13 -> 18         0.13342

 Excited State   3:      Singlet-A      6.0374 eV  205.36 nm  f=0.0020  <S**2>=0.000
      13 -> 16         0.63421
      13 -> 17         0.17532
      13 -> 18        -0.21885

 Excited State   4:      Singlet-A      6.5060 eV  190.57 nm  f=0.0001  <S**2>=0.000
      12 -> 14         0.69172

 Excited State   5:      Singlet-A      6.8865 eV  180.04 nm  f=0.0005  <S**2>=0.000
      12 -> 14        -0.11942
      13 -> 16         0.20192
      13 -> 18         0.48744
      13 -> 19        -0.40367
      13 -> 20        -0.15786

 Excited State   6:      Singlet-A      7.4792 eV  165.77 nm  f=0.0293  <S**2>=0.000
      13 -> 16        -0.11885
      13 -> 17         0.66354
      13 -> 18         0.13004

 Excited State   7:      Singlet-A      7.9972 eV  155.03 nm  f=0.0011  <S**2>=0.000
      13 -> 16         0.13635
      13 -> 17        -0.11027
      13 -> 18         0.39837
      13 -> 19         0.45445
      13 -> 20         0.25546
      13 -> 21        -0.16966

 Excited State   8:      Singlet-A      8.3418 eV  148.63 nm  f=0.0012  <S**2>=0.000
      10 -> 14         0.63727
      11 -> 14         0.11292
      13 -> 19        -0.10926
      13 -> 20         0.23913

 Excited State   9:      Singlet-A      8.4688 eV  146.40 nm  f=0.0015  <S**2>=0.000
      10 -> 14         0.15233
      13 -> 18         0.10142
      13 -> 19         0.29230
      13 -> 20        -0.32595
      13 -> 21         0.51177

 Excited State  10:      Singlet-A      8.5096 eV  145.70 nm  f=0.0851  <S**2>=0.000
       8 -> 15        -0.13275
      11 -> 14         0.48852
      12 -> 15        -0.42425
      12 -> 18        -0.11711

 Excited State  11:      Singlet-A      8.7518 eV  141.67 nm  f=0.0847  <S**2>=0.000
      10 -> 14        -0.23896
      11 -> 14         0.11431
      13 -> 19        -0.10679
      13 -> 20         0.46246
      13 -> 21         0.42327

 Excited State  12:      Singlet-A      8.8144 eV  140.66 nm  f=0.2626  <S**2>=0.000
      11 -> 14         0.41389
      12 -> 15         0.39227
      12 -> 16        -0.24684
      12 -> 18         0.18769
      13 -> 20        -0.13146
      13 -> 21        -0.10427

 Excited State  13:      Singlet-A      9.3581 eV  132.49 nm  f=0.0633  <S**2>=0.000
      10 -> 17        -0.12679
      11 -> 14         0.15709
      11 -> 15        -0.26080
      12 -> 15         0.28729
      12 -> 16         0.34781
      12 -> 17         0.12558
      12 -> 18        -0.28463
      12 -> 19         0.14605
      12 -> 20         0.13417

 Excited State  14:      Singlet-A      9.4300 eV  131.48 nm  f=0.0131  <S**2>=0.000
       7 -> 15        -0.13686
      11 -> 15         0.60997
      12 -> 15         0.14141
      12 -> 16         0.14141
      12 -> 18        -0.10421

 Excited State  15:      Singlet-A      9.8059 eV  126.44 nm  f=0.0428  <S**2>=0.000
       8 -> 16        -0.17808
      12 -> 16         0.41946
      12 -> 18         0.33604
      12 -> 19        -0.32855
      12 -> 20        -0.10693
      12 -> 21         0.11580

 The electronic state is 1-A.
 Alpha  occ. eigenvalues --   -1.93508  -1.22043  -1.00993  -0.83603  -0.79703
 Alpha  occ. eigenvalues --   -0.69247  -0.64786  -0.54216  -0.51570  -0.45561
 Alpha  occ. eigenvalues --   -0.43287  -0.39367  -0.26318
 Alpha virt. eigenvalues --    0.11688   0.14927   0.18495   0.26117   0.27228
 Alpha virt. eigenvalues --    0.28201   0.29538   0.29735   0.38517   0.47281
 Alpha virt. eigenvalues --    0.52113

 Mulliken charges:
               1
     1  C   -0.172183
     2  C   -1.895332
     3  O    3.170878
     4  C   -1.919449
     5  C   -0.148911
     6  H    0.180077
     7  H    0.298042
     8  H    0.307211
     9  H    0.179668
 Sum of Mulliken charges =   0.00000

 Dipole moment (field-independent basis, Debye):
    X=             -2.1340    Y=            -10.1518    Z=             -0.2900  Tot=             10.3777
 N-N= 1.046097402840D+02 E-N=-1.704305200059D+02  KE=-1.579067688982D+01
 Orbital energies and kinetic energies (alpha):
                                 1                 2
   1         O                -1.935084         -1.417090
   2         O                -1.220426         -1.095452
   3         O                -1.009926         -0.921459
   4         O                -0.836034         -0.635455
   5         O                -0.797026         -0.700735
   6         O                -0.692470         -0.580643
   7         O                -0.647862         -0.516799

 Normal termination of Gaussian 09 at Tue Dec 15 17:06:52 2015.
