 Gaussian 09, Revision D.01,
 Gaussian 09:  ES64L-G09RevD.01 24-Apr-2013

 ------------------------------------------------------------
 #P AM1(Input,print) CIS(Singlets,NStates=15) pop(full) force
 ------------------------------------------------------------

 -----------------
 AM1-Reparam Input
 -----------------
 Symbolic Z-matrix:
 Charge =  0 Multiplicity = 1

                         Standard orientation:
 ---------------------------------------------------------------------
 Center     Atomic      Atomic             Coordinates (Angstroms)
 Number     Number       Type             X           Y           Z
 ---------------------------------------------------------------------
      1          6           0        0.657691    0.968838    0.044262
      2          6           0        1.142680   -0.235774   -0.032656
      3          8           0        0.098969   -1.115651    0.020825
      4          6           0       -1.072876   -0.403624   -0.016764
      5          6           0       -0.822255    0.845673   -0.004951
      6          1           0       -1.530414    1.715047   -0.027783
      7          1           0       -1.984058   -1.063644    0.006417
      8          1           0        2.122164   -0.697798   -0.032013
      9          1           0        1.169120    1.920926   -0.052563
 ---------------------------------------------------------------------

 SCF Done:  E(RAM1) =   2.59750295315     A.U. after   13 cycles

 Excitation energies and oscillator strengths:

 Excited State   1:      Singlet-A      4.9174 eV  252.14 nm  f=0.3570  <S**2>=0.000
      13 -> 14         0.69692
 This state for optimization and/or second-order correction.
 Total Energy, E(CIS) =   2.77821236080
 Copying the excited state density for this state as the 1-particle RhoCI density.

 Excited State   2:      Singlet-A      5.6700 eV  218.67 nm  f=0.0001  <S**2>=0.000
      13 -> 15         0.66634
      13 -> 16        -0.10536
      13 -> 18         0.12962
      13 -> 19        -0.11684

 Excited State   3:      Singlet-A      5.9860 eV  207.12 nm  f=0.0016  <S**2>=0.000
      13 -> 15         0.11335
      13 -> 16         0.66166
      13 -> 17        -0.15675

 Excited State   4:      Singlet-A      6.4146 eV  193.28 nm  f=0.0016  <S**2>=0.000
      12 -> 14         0.69901

 Excited State   5:      Singlet-A      7.1438 eV  173.56 nm  f=0.0003  <S**2>=0.000
      13 -> 15        -0.11683
      13 -> 18         0.63819
      13 -> 21        -0.24089

 Excited State   6:      Singlet-A      7.6264 eV  162.57 nm  f=0.0114  <S**2>=0.000
      11 -> 14        -0.30456
      13 -> 16         0.12671
      13 -> 17         0.61315

 Excited State   7:      Singlet-A      7.8793 eV  157.35 nm  f=0.0004  <S**2>=0.000
      11 -> 14         0.63176
      13 -> 17         0.29660

 Excited State   8:      Singlet-A      8.3977 eV  147.64 nm  f=0.0007  <S**2>=0.000
      13 -> 18         0.10984
      13 -> 19         0.68015

 Excited State   9:      Singlet-A      8.7391 eV  141.87 nm  f=0.0927  <S**2>=0.000
       8 -> 15        -0.12839
      10 -> 14        -0.32671
      11 -> 17         0.11010
      12 -> 15         0.54479
      12 -> 18         0.16786

 Excited State  10:      Singlet-A      8.9061 eV  139.21 nm  f=0.0820  <S**2>=0.000
       8 -> 16        -0.10564
      10 -> 14         0.52132
      12 -> 15         0.19622
      12 -> 16        -0.32853
      12 -> 18         0.17737

 Excited State  11:      Singlet-A      9.1316 eV  135.77 nm  f=0.0026  <S**2>=0.000
      13 -> 18         0.23720
      13 -> 20        -0.14713
      13 -> 21         0.63587

 Excited State  12:      Singlet-A      9.3832 eV  132.13 nm  f=0.0821  <S**2>=0.000
      10 -> 14        -0.21977
      11 -> 15        -0.19648
      11 -> 17         0.12606
      12 -> 15        -0.27368
      12 -> 16        -0.30760
      12 -> 17         0.11352
      12 -> 18         0.19667
      13 -> 20         0.37553

 Excited State  13:      Singlet-A      9.4287 eV  131.50 nm  f=0.0953  <S**2>=0.000
      10 -> 14         0.15656
      11 -> 15         0.11710
      12 -> 15         0.11507
      12 -> 16         0.33513
      13 -> 20         0.53487
      13 -> 21         0.12956

 Excited State  14:      Singlet-A      9.5639 eV  129.64 nm  f=0.0882  <S**2>=0.000
       9 -> 15        -0.10661
       9 -> 16         0.10176
      11 -> 15        -0.11045
      11 -> 16        -0.25634
      11 -> 17         0.25274
      12 -> 16         0.30972
      12 -> 18         0.39005
      13 -> 20        -0.18040

 Excited State  15:      Singlet-A      9.9274 eV  124.89 nm  f=0.0002  <S**2>=0.000
       9 -> 14         0.68759

 The electronic state is 1-A.
 Alpha  occ. eigenvalues --   -1.75250  -1.15659  -0.97336  -0.81335  -0.76368
 Alpha  occ. eigenvalues --   -0.66587  -0.65459  -0.55965  -0.50194  -0.45118
 Alpha  occ. eigenvalues --   -0.43764  -0.39177  -0.26833
 Alpha virt. eigenvalues --    0.11082   0.16242   0.17692   0.25751   0.26645
 Alpha virt. eigenvalues --    0.29276   0.31563   0.32178   0.38593   0.47649
 Alpha virt. eigenvalues --    0.52573

 Mulliken charges:
               1
     1  C   -0.134485
     2  C   -1.886809
     3  O    3.231051
     4  C   -1.874563
     5  C   -0.092421
     6  H    0.123339
     7  H    0.251988
     8  H    0.253885
     9  H    0.128016
 Sum of Mulliken charges =   0.00000

 Dipole moment (field-independent basis, Debye):
    X=              0.6589    Y=            -10.8904    Z=              0.5629  Tot=             10.9248
 N-N= 1.040762078017D+02 E-N=-1.691365368104D+02  KE=-1.503996209037D+01
 Orbital energies and kinetic energies (alpha):
                                 1                 2
   1         O                -1.752500         -1.249703
   2         O                -1.156589         -0.993889
   3         O                -0.973363         -0.877309
   4         O                -0.813354         -0.612066
   5         O                -0.763684         -0.691572
   6         O                -0.665869         -0.554424
   7         O                -0.654590         -0.529970

 Normal termination of Gaussian 09 at Tue Dec 15 17:06:15 2015.
