 Gaussian 09, Revision D.01,
 Gaussian 09:  ES64L-G09RevD.01 24-Apr-2013

 ------------------------------------------------------------
 #P AM1(Input,print) CIS(Singlets,NStates=15) pop(full) force
 ------------------------------------------------------------

 -----------------
 AM1-Reparam Input
 -----------------
 Symbolic Z-matrix:
 Charge =  0 Multiplicity = 1

                         Standard orientation:
 ---------------------------------------------------------------------
 Center     Atomic      Atomic             Coordinates (Angstroms)
 Number     Number       Type             X           Y           Z
 ---------------------------------------------------------------------
      1          6           0        0.559627    1.015389   -0.006607
      2          6           0        1.137285   -0.187972   -0.011430
      3          8           0        0.185658   -1.112927   -0.013445
      4          6           0       -1.030920   -0.500435    0.009945
      5          6           0       -0.857226    0.843068    0.026187
      6          1           0       -1.665486    1.532788   -0.070999
      7          1           0       -1.887181   -1.162659   -0.006423
      8          1           0        2.129413   -0.494770    0.098703
      9          1           0        1.085399    2.007760   -0.022291
 ---------------------------------------------------------------------

 SCF Done:  E(RAM1) =   1.38507119151     A.U. after   13 cycles

 Excitation energies and oscillator strengths:

 Excited State   1:      Singlet-A      5.9439 eV  208.59 nm  f=0.3002  <S**2>=0.000
      13 -> 14         0.68582
 This state for optimization and/or second-order correction.
 Total Energy, E(CIS) =   1.60350536210
 Copying the excited state density for this state as the 1-particle RhoCI density.

 Excited State   2:      Singlet-A      6.3579 eV  195.01 nm  f=0.0133  <S**2>=0.000
      13 -> 15         0.64693
      13 -> 17        -0.20308

 Excited State   3:      Singlet-A      6.6329 eV  186.92 nm  f=0.0010  <S**2>=0.000
      12 -> 15        -0.13286
      13 -> 16         0.65390
      13 -> 21         0.15283
      13 -> 22         0.11248

 Excited State   4:      Singlet-A      7.4247 eV  166.99 nm  f=0.0011  <S**2>=0.000
      11 -> 14         0.57193
      12 -> 14        -0.38193

 Excited State   5:      Singlet-A      7.5617 eV  163.96 nm  f=0.0063  <S**2>=0.000
      13 -> 15         0.17957
      13 -> 17         0.64098
      13 -> 22        -0.16273

 Excited State   6:      Singlet-A      8.0307 eV  154.39 nm  f=0.0025  <S**2>=0.000
      12 -> 15         0.10949
      13 -> 17         0.15130
      13 -> 18         0.40578
      13 -> 22         0.51570

 Excited State   7:      Singlet-A      8.3276 eV  148.88 nm  f=0.0040  <S**2>=0.000
      10 -> 14         0.65062
      12 -> 14         0.19935

 Excited State   8:      Singlet-A      8.5362 eV  145.24 nm  f=0.0271  <S**2>=0.000
      10 -> 14        -0.22238
      11 -> 14         0.31968
      12 -> 14         0.46235
      13 -> 19        -0.33806

 Excited State   9:      Singlet-A      8.5961 eV  144.23 nm  f=0.0040  <S**2>=0.000
      12 -> 15        -0.13508
      13 -> 18         0.49185
      13 -> 21        -0.32688
      13 -> 22        -0.32356

 Excited State  10:      Singlet-A      8.8454 eV  140.17 nm  f=0.0022  <S**2>=0.000
      13 -> 16        -0.11170
      13 -> 18         0.27490
      13 -> 20        -0.19279
      13 -> 21         0.56794
      13 -> 22        -0.19547

 Excited State  11:      Singlet-A      9.1675 eV  135.24 nm  f=0.0647  <S**2>=0.000
      12 -> 15        -0.19165
      12 -> 16         0.22266
      13 -> 20         0.57407
      13 -> 21         0.18343

 Excited State  12:      Singlet-A      9.3027 eV  133.28 nm  f=0.0141  <S**2>=0.000
      11 -> 15         0.25020
      12 -> 15         0.50191
      13 -> 16         0.17497
      13 -> 19         0.14459
      13 -> 20         0.22864
      13 -> 22        -0.17327

 Excited State  13:      Singlet-A      9.4748 eV  130.86 nm  f=0.1736  <S**2>=0.000
      11 -> 14         0.17185
      12 -> 14         0.26983
      12 -> 15        -0.14354
      12 -> 16        -0.11256
      13 -> 19         0.56197

 Excited State  14:      Singlet-A      9.6915 eV  127.93 nm  f=0.0509  <S**2>=0.000
       8 -> 15        -0.11825
      10 -> 17        -0.11241
      11 -> 15         0.14030
      12 -> 16         0.54487
      13 -> 15         0.13323
      13 -> 19         0.10882
      13 -> 20        -0.20684

 Excited State  15:      Singlet-A      9.7931 eV  126.60 nm  f=0.0064  <S**2>=0.000
       8 -> 15         0.16794
      10 -> 15        -0.11897
      10 -> 17         0.26379
      11 -> 16         0.44347
      11 -> 17        -0.14465
      11 -> 18         0.19306
      12 -> 17         0.13453

 The electronic state is 1-A.
 Alpha  occ. eigenvalues --   -1.90813  -1.19333  -0.97392  -0.79472  -0.77278
 Alpha  occ. eigenvalues --   -0.67876  -0.63136  -0.50948  -0.48043  -0.40717
 Alpha  occ. eigenvalues --   -0.38101  -0.37587  -0.25135
 Alpha virt. eigenvalues --    0.17120   0.21412   0.22427   0.27873   0.30349
 Alpha virt. eigenvalues --    0.31179   0.33102   0.33496   0.34774   0.41115
 Alpha virt. eigenvalues --    0.47055

 Mulliken charges:
               1
     1  C   -0.083682
     2  C   -1.566115
     3  O    2.800183
     4  C   -1.563311
     5  C   -0.053374
     6  H    0.069097
     7  H    0.157712
     8  H    0.174286
     9  H    0.065203
 Sum of Mulliken charges =   0.00000

 Dipole moment (field-independent basis, Debye):
    X=              1.5910    Y=             -9.1051    Z=             -0.0614  Tot=              9.2432
 N-N= 1.040726510871D+02 E-N=-1.707423717596D+02  KE=-1.591617639602D+01
 Orbital energies and kinetic energies (alpha):
                                 1                 2
   1         O                -1.908129         -1.407736
   2         O                -1.193330         -1.068551
   3         O                -0.973922         -0.884962
   4         O                -0.794719         -0.632320
   5         O                -0.772776         -0.709213
   6         O                -0.678762         -0.616220
   7         O                -0.631364         -0.549009

 Normal termination of Gaussian 09 at Tue Dec 15 17:07:58 2015.
