 Gaussian 09, Revision D.01,
 Gaussian 09:  ES64L-G09RevD.01 24-Apr-2013

 ------------------------------------------------------------
 #P AM1(Input,print) CIS(Singlets,NStates=15) pop(full) force
 ------------------------------------------------------------

 -----------------
 AM1-Reparam Input
 -----------------
 Symbolic Z-matrix:
 Charge =  0 Multiplicity = 1

                         Standard orientation:
 ---------------------------------------------------------------------
 Center     Atomic      Atomic             Coordinates (Angstroms)
 Number     Number       Type             X           Y           Z
 ---------------------------------------------------------------------
      1          6           0       -1.158379    0.268987    0.024399
      2          6           0       -0.594766   -0.916088    0.019218
      3          8           0        0.769663   -0.928633   -0.014536
      4          6           0        1.047387    0.466421   -0.002715
      5          6           0       -0.099143    1.174056   -0.022885
      6          1           0       -0.130116    2.278516    0.031869
      7          1           0        2.082167    0.677807    0.071047
      8          1           0       -1.035090   -1.957870   -0.020945
      9          1           0       -2.244857    0.470356   -0.073788
 ---------------------------------------------------------------------

 SCF Done:  E(RAM1) =   1.89313960982     A.U. after   14 cycles

 Excitation energies and oscillator strengths:

 Excited State   1:      Singlet-A      5.7094 eV  217.16 nm  f=0.2708  <S**2>=0.000
      11 -> 17        -0.11521
      13 -> 14         0.67292
      13 -> 15        -0.13237
 This state for optimization and/or second-order correction.
 Total Energy, E(CIS) =   2.10295523785
 Copying the excited state density for this state as the 1-particle RhoCI density.

 Excited State   2:      Singlet-A      5.8908 eV  210.47 nm  f=0.0236  <S**2>=0.000
      10 -> 15         0.12181
      13 -> 14         0.13417
      13 -> 15         0.66976

 Excited State   3:      Singlet-A      6.6950 eV  185.19 nm  f=0.0041  <S**2>=0.000
      10 -> 16        -0.13302
      13 -> 16         0.66313
      13 -> 17        -0.14075

 Excited State   4:      Singlet-A      6.8995 eV  179.70 nm  f=0.0004  <S**2>=0.000
      12 -> 14         0.69832

 Excited State   5:      Singlet-A      7.7063 eV  160.89 nm  f=0.0088  <S**2>=0.000
      11 -> 14         0.66758
      13 -> 17         0.19903

 Excited State   6:      Singlet-A      8.0028 eV  154.93 nm  f=0.0099  <S**2>=0.000
      11 -> 14        -0.20888
      13 -> 17         0.62299
      13 -> 18        -0.15033
      13 -> 19        -0.11196

 Excited State   7:      Singlet-A      8.2386 eV  150.49 nm  f=0.0004  <S**2>=0.000
      13 -> 17         0.17152
      13 -> 18         0.60760
      13 -> 19         0.13592
      13 -> 22         0.24492

 Excited State   8:      Singlet-A      8.5705 eV  144.66 nm  f=0.0577  <S**2>=0.000
       9 -> 15         0.19425
      10 -> 14        -0.13794
      11 -> 17        -0.14193
      12 -> 15         0.57391
      12 -> 16        -0.10952
      12 -> 18         0.13126

 Excited State   9:      Singlet-A      8.9009 eV  139.29 nm  f=0.0001  <S**2>=0.000
      13 -> 18        -0.21153
      13 -> 19         0.64718

 Excited State  10:      Singlet-A      8.9517 eV  138.50 nm  f=0.0143  <S**2>=0.000
       8 -> 16         0.13039
      10 -> 14         0.53567
      11 -> 15         0.10455
      11 -> 16         0.11274
      11 -> 17        -0.13335
      12 -> 16        -0.22960
      12 -> 17        -0.11709
      12 -> 18         0.17431
      13 -> 20        -0.10562

 Excited State  11:      Singlet-A      9.1764 eV  135.11 nm  f=0.0555  <S**2>=0.000
       9 -> 15         0.17117
      10 -> 14        -0.19270
      10 -> 15         0.14300
      11 -> 15         0.52238
      11 -> 17        -0.18892
      12 -> 15        -0.19641
      12 -> 18         0.10794

 Excited State  12:      Singlet-A      9.4690 eV  130.94 nm  f=0.0256  <S**2>=0.000
       6 -> 15        -0.10284
      10 -> 15         0.62049
      11 -> 17         0.11104
      12 -> 15         0.10571
      12 -> 18        -0.10646
      13 -> 15        -0.13458

 Excited State  13:      Singlet-A      9.5444 eV  129.90 nm  f=0.2018  <S**2>=0.000
       9 -> 15        -0.12424
      10 -> 14        -0.14667
      10 -> 15         0.12521
      11 -> 15        -0.18983
      11 -> 16         0.30650
      11 -> 17        -0.18053
      11 -> 19        -0.15787
      12 -> 16         0.29024
      12 -> 17        -0.22444
      12 -> 18         0.26035

 Excited State  14:      Singlet-A      9.6255 eV  128.81 nm  f=0.0794  <S**2>=0.000
       9 -> 15         0.15270
      10 -> 14         0.28238
      11 -> 15         0.18212
      12 -> 15         0.15236
      12 -> 16         0.50433
      12 -> 18        -0.15379

 Excited State  15:      Singlet-A      9.8030 eV  126.48 nm  f=0.0342  <S**2>=0.000
      10 -> 16        -0.16815
      13 -> 18        -0.19327
      13 -> 19        -0.12428
      13 -> 20         0.22008
      13 -> 21        -0.27578
      13 -> 22         0.52179

 The electronic state is 1-A.
 Alpha  occ. eigenvalues --   -1.93016  -1.22928  -0.96846  -0.80654  -0.79524
 Alpha  occ. eigenvalues --   -0.68253  -0.66180  -0.49636  -0.48199  -0.40694
 Alpha  occ. eigenvalues --   -0.38895  -0.36371  -0.26167
 Alpha virt. eigenvalues --    0.16219   0.17658   0.21398   0.27782   0.29558
 Alpha virt. eigenvalues --    0.32293   0.34138   0.34391   0.37634   0.44144
 Alpha virt. eigenvalues --    0.46949

 Mulliken charges:
               1
     1  C   -0.114727
     2  C   -1.875359
     3  O    3.097656
     4  C   -1.879441
     5  C   -0.069085
     6  H    0.137020
     7  H    0.277109
     8  H    0.286167
     9  H    0.140658
 Sum of Mulliken charges =   0.00000

 Dipole moment (field-independent basis, Debye):
    X=              6.9136    Y=             -9.2902    Z=             -0.2726  Tot=             11.5836
 N-N= 1.040756427576D+02 E-N=-1.697653743219D+02  KE=-1.565237196624D+01
 Orbital energies and kinetic energies (alpha):
                                 1                 2
   1         O                -1.930162         -1.389312
   2         O                -1.229279         -1.107783
   3         O                -0.968457         -0.916683
   4         O                -0.806539         -0.673293
   5         O                -0.795238         -0.621747
   6         O                -0.682531         -0.580283
   7         O                -0.661798         -0.582686

 Normal termination of Gaussian 09 at Tue Dec 15 17:10:01 2015.
