 Gaussian 09, Revision D.01,
 Gaussian 09:  ES64L-G09RevD.01 24-Apr-2013

 ------------------------------------------------------------
 #P AM1(Input,print) CIS(Singlets,NStates=15) pop(full) force
 ------------------------------------------------------------

 -----------------
 AM1-Reparam Input
 -----------------
 Symbolic Z-matrix:
 Charge =  0 Multiplicity = 1

                         Standard orientation:
 ---------------------------------------------------------------------
 Center     Atomic      Atomic             Coordinates (Angstroms)
 Number     Number       Type             X           Y           Z
 ---------------------------------------------------------------------
      1          6           0       -0.947164    0.716686   -0.010814
      2          6           0       -1.014519   -0.569908    0.008926
      3          8           0        0.305405   -1.133132   -0.007615
      4          6           0        1.159974   -0.111578   -0.002272
      5          6           0        0.462598    1.147134    0.014043
      6          1           0        0.936790    2.101913   -0.021668
      7          1           0        2.235390   -0.305277    0.012470
      8          1           0       -1.786927   -1.281373    0.020675
      9          1           0       -1.793824    1.455788   -0.009853
 ---------------------------------------------------------------------

 SCF Done:  E(RAM1) =   1.73174619283     A.U. after   14 cycles

 Excitation energies and oscillator strengths:

 Excited State   1:      Singlet-A      5.2890 eV  234.42 nm  f=0.3784  <S**2>=0.000
      13 -> 14         0.69647
 This state for optimization and/or second-order correction.
 Total Energy, E(CIS) =   1.92611501684
 Copying the excited state density for this state as the 1-particle RhoCI density.

 Excited State   2:      Singlet-A      6.7440 eV  183.84 nm  f=0.0034  <S**2>=0.000
      12 -> 14         0.13280
      13 -> 15         0.65341
      13 -> 17        -0.18188

 Excited State   3:      Singlet-A      6.8085 eV  182.10 nm  f=0.0004  <S**2>=0.000
      12 -> 14         0.69052
      13 -> 15        -0.12651

 Excited State   4:      Singlet-A      7.3911 eV  167.75 nm  f=0.0017  <S**2>=0.000
      10 -> 16         0.10259
      13 -> 16         0.67015
      13 -> 19         0.15174

 Excited State   5:      Singlet-A      8.1224 eV  152.65 nm  f=0.0056  <S**2>=0.000
      11 -> 14         0.69594

 Excited State   6:      Singlet-A      8.5610 eV  144.82 nm  f=0.0001  <S**2>=0.000
      13 -> 15         0.14901
      13 -> 17         0.52442
      13 -> 18         0.27713
      13 -> 19         0.22488
      13 -> 22         0.20886

 Excited State   7:      Singlet-A      9.0608 eV  136.84 nm  f=0.0103  <S**2>=0.000
      13 -> 16        -0.11035
      13 -> 17        -0.39251
      13 -> 18         0.48037
      13 -> 19         0.23735
      13 -> 22         0.14486

 Excited State   8:      Singlet-A      9.3315 eV  132.87 nm  f=0.0332  <S**2>=0.000
      10 -> 14         0.60536
      12 -> 15         0.10910
      12 -> 16        -0.14786
      12 -> 17        -0.19076
      13 -> 20         0.10166

 Excited State   9:      Singlet-A      9.4827 eV  130.75 nm  f=0.0016  <S**2>=0.000
      13 -> 17        -0.10767
      13 -> 18        -0.37837
      13 -> 19         0.55774

 Excited State  10:      Singlet-A      9.8822 eV  125.46 nm  f=0.0990  <S**2>=0.000
       9 -> 15        -0.12238
      10 -> 14        -0.25735
      11 -> 16         0.11446
      11 -> 18         0.11263
      11 -> 19         0.11226
      12 -> 15         0.46246
      12 -> 16        -0.15361
      12 -> 17        -0.23201
      12 -> 18        -0.11904
      12 -> 19        -0.12545
      13 -> 20        -0.13385

 Excited State  11:      Singlet-A     10.3218 eV  120.12 nm  f=0.0377  <S**2>=0.000
      13 -> 18         0.10912
      13 -> 19         0.18934
      13 -> 21         0.55973
      13 -> 22        -0.34226

 Excited State  12:      Singlet-A     10.3944 eV  119.28 nm  f=0.1293  <S**2>=0.000
      10 -> 14         0.10112
      12 -> 15         0.16537
      12 -> 16         0.63596
      12 -> 17        -0.11157

 Excited State  13:      Singlet-A     10.5699 eV  117.30 nm  f=0.2310  <S**2>=0.000
      10 -> 14        -0.12895
      11 -> 15         0.39138
      11 -> 16         0.10904
      11 -> 17        -0.19215
      12 -> 15        -0.34147
      12 -> 17        -0.18043
      12 -> 18        -0.28384

 Excited State  14:      Singlet-A     10.7318 eV  115.53 nm  f=0.0684  <S**2>=0.000
      10 -> 15        -0.13397
      13 -> 18        -0.13586
      13 -> 20         0.17801
      13 -> 21         0.34522
      13 -> 22         0.51480

 Excited State  15:      Singlet-A     10.7432 eV  115.41 nm  f=0.0978  <S**2>=0.000
       9 -> 15         0.16130
      10 -> 14        -0.15287
      11 -> 15        -0.29463
      11 -> 19         0.12987
      12 -> 17        -0.20536
      12 -> 18        -0.14305
      13 -> 20         0.42578
      13 -> 21        -0.14862
      13 -> 22        -0.16087

 The electronic state is 1-A.
 Alpha  occ. eigenvalues --   -1.89887  -1.15548  -0.91749  -0.81351  -0.77803
 Alpha  occ. eigenvalues --   -0.69706  -0.66607  -0.57019  -0.54537  -0.47219
 Alpha  occ. eigenvalues --   -0.45194  -0.40886  -0.29260
 Alpha virt. eigenvalues --    0.10661   0.18350   0.20660   0.26680   0.29340
 Alpha virt. eigenvalues --    0.29958   0.32763   0.33249   0.35385   0.41356
 Alpha virt. eigenvalues --    0.45100

 Mulliken charges:
               1
     1  C   -0.068150
     2  C   -1.966683
     3  O    3.298589
     4  C   -2.059138
     5  C   -0.277676
     6  H    0.212812
     7  H    0.345297
     8  H    0.317328
     9  H    0.197622
 Sum of Mulliken charges =   0.00000

 Dipole moment (field-independent basis, Debye):
    X=              2.6456    Y=            -10.7871    Z=             -0.1536  Tot=             11.1079
 N-N= 1.031335417898D+02 E-N=-1.680399298054D+02  KE=-1.542832958917D+01
 Orbital energies and kinetic energies (alpha):
                                 1                 2
   1         O                -1.898870         -1.345483
   2         O                -1.155478         -1.038057
   3         O                -0.917489         -0.885814
   4         O                -0.813514         -0.566097
   5         O                -0.778034         -0.695387
   6         O                -0.697056         -0.575226
   7         O                -0.666066         -0.528525

 Normal termination of Gaussian 09 at Tue Dec 15 17:09:34 2015.
