 Gaussian 09, Revision D.01,
 Gaussian 09:  ES64L-G09RevD.01 24-Apr-2013

 ------------------------------------------------------------
 #P AM1(Input,print) CIS(Singlets,NStates=15) pop(full) force
 ------------------------------------------------------------

 -----------------
 AM1-Reparam Input
 -----------------
 Symbolic Z-matrix:
 Charge =  0 Multiplicity = 1

                         Standard orientation:
 ---------------------------------------------------------------------
 Center     Atomic      Atomic             Coordinates (Angstroms)
 Number     Number       Type             X           Y           Z
 ---------------------------------------------------------------------
      1          6           0       -0.619851    1.030034    0.007988
      2          6           0       -1.102430   -0.219413   -0.030448
      3          8           0       -0.134311   -1.166405    0.029321
      4          6           0        1.027502   -0.459811   -0.018884
      5          6           0        0.840039    0.864140    0.005937
      6          1           0        1.535831    1.716008   -0.021504
      7          1           0        1.951865   -1.049190   -0.017593
      8          1           0       -2.137643   -0.600521   -0.033458
      9          1           0       -1.147130    1.975245    0.050430
 ---------------------------------------------------------------------

 SCF Done:  E(RAM1) =   2.04950133633     A.U. after   13 cycles

 Excitation energies and oscillator strengths:

 Excited State   1:      Singlet-A      5.2058 eV  238.16 nm  f=0.3582  <S**2>=0.000
      13 -> 14         0.69709
 This state for optimization and/or second-order correction.
 Total Energy, E(CIS) =   2.24081142470
 Copying the excited state density for this state as the 1-particle RhoCI density.

 Excited State   2:      Singlet-A      6.5207 eV  190.14 nm  f=0.0001  <S**2>=0.000
      12 -> 14         0.43208
      13 -> 15         0.37944
      13 -> 16        -0.30632
      13 -> 17         0.10324
      13 -> 18         0.22012

 Excited State   3:      Singlet-A      6.5491 eV  189.32 nm  f=0.0008  <S**2>=0.000
      12 -> 14         0.55259
      13 -> 15        -0.31361
      13 -> 16         0.23877
      13 -> 18        -0.15312

 Excited State   4:      Singlet-A      6.6635 eV  186.07 nm  f=0.0087  <S**2>=0.000
      13 -> 15         0.42162
      13 -> 16         0.50606
      13 -> 17         0.18776
      13 -> 18        -0.12942

 Excited State   5:      Singlet-A      7.7226 eV  160.55 nm  f=0.0001  <S**2>=0.000
      13 -> 15        -0.15063
      13 -> 16         0.19602
      13 -> 17         0.13905
      13 -> 18         0.46303
      13 -> 19         0.30178
      13 -> 20        -0.21380
      13 -> 21         0.22470

 Excited State   6:      Singlet-A      7.8530 eV  157.88 nm  f=0.0081  <S**2>=0.000
      10 -> 14         0.65076
      11 -> 14        -0.25152

 Excited State   7:      Singlet-A      8.4187 eV  147.27 nm  f=0.0223  <S**2>=0.000
      13 -> 15        -0.16461
      13 -> 16        -0.10621
      13 -> 17         0.63945
      13 -> 18        -0.14312

 Excited State   8:      Singlet-A      8.7105 eV  142.34 nm  f=0.1114  <S**2>=0.000
      10 -> 14         0.24854
      11 -> 14         0.64046

 Excited State   9:      Singlet-A      8.7965 eV  140.95 nm  f=0.0006  <S**2>=0.000
      13 -> 16        -0.13721
      13 -> 18        -0.34913
      13 -> 19         0.56002
      13 -> 20        -0.12780

 Excited State  10:      Singlet-A      9.3138 eV  133.12 nm  f=0.0978  <S**2>=0.000
      10 -> 17        -0.15396
      12 -> 15         0.28082
      12 -> 16        -0.34960
      12 -> 18         0.35214
      12 -> 19         0.14112
      13 -> 20        -0.11662
      13 -> 21         0.12761

 Excited State  11:      Singlet-A      9.3421 eV  132.72 nm  f=0.0120  <S**2>=0.000
      12 -> 16         0.10628
      12 -> 18        -0.10480
      13 -> 18        -0.19950
      13 -> 19        -0.27501
      13 -> 20        -0.37981
      13 -> 21         0.43698

 Excited State  12:      Singlet-A      9.5919 eV  129.26 nm  f=0.0717  <S**2>=0.000
      13 -> 20         0.50883
      13 -> 21         0.47032

 Excited State  13:      Singlet-A      9.9513 eV  124.59 nm  f=0.0242  <S**2>=0.000
      10 -> 16        -0.10358
      10 -> 18         0.10413
      11 -> 15        -0.10794
      12 -> 15         0.49918
      12 -> 16         0.35760
      12 -> 17         0.17587

 Excited State  14:      Singlet-A     10.1672 eV  121.95 nm  f=0.1771  <S**2>=0.000
      10 -> 15        -0.16322
      10 -> 16        -0.13707
      10 -> 17        -0.17558
      11 -> 15         0.21201
      12 -> 15        -0.20516
      12 -> 16         0.37490
      12 -> 18         0.16307
      12 -> 19         0.29935
      12 -> 20        -0.11261

 Excited State  15:      Singlet-A     10.2926 eV  120.46 nm  f=0.0115  <S**2>=0.000
      10 -> 15         0.26843
      10 -> 16         0.16973
      10 -> 17         0.11623
      11 -> 15         0.46805
      11 -> 16         0.28967
      11 -> 17         0.10549
      12 -> 15         0.10022

 The electronic state is 1-A.
 Alpha  occ. eigenvalues --   -1.93838  -1.19201  -0.94859  -0.81632  -0.78269
 Alpha  occ. eigenvalues --   -0.68377  -0.64707  -0.53464  -0.53408  -0.43958
 Alpha  occ. eigenvalues --   -0.43643  -0.39874  -0.27961
 Alpha virt. eigenvalues --    0.11398   0.19202   0.19534   0.26843   0.27368
 Alpha virt. eigenvalues --    0.29887   0.30813   0.31131   0.36102   0.45387
 Alpha virt. eigenvalues --    0.49081

 Mulliken charges:
               1
     1  C   -0.220578
     2  C   -1.989880
     3  O    3.170186
     4  C   -1.988973
     5  C   -0.208849
     6  H    0.250504
     7  H    0.369565
     8  H    0.368655
     9  H    0.249369
 Sum of Mulliken charges =   0.00000

 Dipole moment (field-independent basis, Debye):
    X=             -1.2250    Y=            -10.4789    Z=              0.7345  Tot=             10.5758
 N-N= 1.042681626036D+02 E-N=-1.697024759798D+02  KE=-1.547105233533D+01
 Orbital energies and kinetic energies (alpha):
                                 1                 2
   1         O                -1.938379         -1.388941
   2         O                -1.192007         -1.068003
   3         O                -0.948588         -0.869587
   4         O                -0.816320         -0.594621
   5         O                -0.782694         -0.674803
   6         O                -0.683768         -0.564795
   7         O                -0.647069         -0.522084

 Normal termination of Gaussian 09 at Tue Dec 15 17:07:11 2015.
