 Gaussian 09, Revision D.01,
 Gaussian 09:  ES64L-G09RevD.01 24-Apr-2013

 ------------------------------------------------------------
 #P AM1(Input,print) CIS(Singlets,NStates=15) pop(full) force
 ------------------------------------------------------------

 -----------------
 AM1-Reparam Input
 -----------------
 Symbolic Z-matrix:
 Charge =  0 Multiplicity = 1

                         Standard orientation:
 ---------------------------------------------------------------------
 Center     Atomic      Atomic             Coordinates (Angstroms)
 Number     Number       Type             X           Y           Z
 ---------------------------------------------------------------------
      1          6           0       -0.585602    1.057473   -0.018000
      2          6           0       -1.120263   -0.201910    0.019622
      3          8           0       -0.163898   -1.148734   -0.002021
      4          6           0        1.014724   -0.518693   -0.021482
      5          6           0        0.875538    0.862879    0.004002
      6          1           0        1.588808    1.641524    0.066881
      7          1           0        1.873576   -1.106909    0.044213
      8          1           0       -2.169753   -0.487836    0.012103
      9          1           0       -1.087835    1.944592   -0.011880
 ---------------------------------------------------------------------

 SCF Done:  E(RAM1) =   1.81739402666     A.U. after   13 cycles

 Excitation energies and oscillator strengths:

 Excited State   1:      Singlet-A      5.5841 eV  222.03 nm  f=0.3508  <S**2>=0.000
      13 -> 14         0.69270
 This state for optimization and/or second-order correction.
 Total Energy, E(CIS) =   2.02260701825
 Copying the excited state density for this state as the 1-particle RhoCI density.

 Excited State   2:      Singlet-A      6.5704 eV  188.70 nm  f=0.0015  <S**2>=0.000
      12 -> 14         0.69878

 Excited State   3:      Singlet-A      6.6353 eV  186.85 nm  f=0.0039  <S**2>=0.000
      13 -> 15         0.65782
      13 -> 17         0.16881

 Excited State   4:      Singlet-A      6.6896 eV  185.34 nm  f=0.0021  <S**2>=0.000
      13 -> 16         0.65199
      13 -> 18        -0.16650
      13 -> 19         0.10196

 Excited State   5:      Singlet-A      7.8449 eV  158.04 nm  f=0.0070  <S**2>=0.000
      10 -> 14         0.56278
      11 -> 14         0.41178

 Excited State   6:      Singlet-A      8.1261 eV  152.58 nm  f=0.0000  <S**2>=0.000
      13 -> 16         0.12223
      13 -> 18         0.59901
      13 -> 21         0.29454

 Excited State   7:      Singlet-A      8.4497 eV  146.73 nm  f=0.0151  <S**2>=0.000
      13 -> 15        -0.12179
      13 -> 16        -0.10522
      13 -> 17         0.65996

 Excited State   8:      Singlet-A      8.8155 eV  140.64 nm  f=0.0957  <S**2>=0.000
      10 -> 14        -0.39848
      11 -> 14         0.53846
      12 -> 15         0.12368

 Excited State   9:      Singlet-A      9.0160 eV  137.52 nm  f=0.0614  <S**2>=0.000
       8 -> 15        -0.10506
      10 -> 15         0.12768
      10 -> 17         0.17365
      11 -> 17         0.11672
      12 -> 15        -0.28687
      12 -> 16         0.38226
      12 -> 18        -0.33424
      12 -> 21        -0.11101

 Excited State  10:      Singlet-A      9.0804 eV  136.54 nm  f=0.0009  <S**2>=0.000
      13 -> 19         0.68074

 Excited State  11:      Singlet-A      9.6027 eV  129.11 nm  f=0.0275  <S**2>=0.000
      10 -> 15         0.17402
      12 -> 15         0.49888
      12 -> 16         0.26278
      12 -> 17         0.16028
      13 -> 18        -0.13543
      13 -> 21         0.20876

 Excited State  12:      Singlet-A      9.6382 eV  128.64 nm  f=0.0213  <S**2>=0.000
      11 -> 15        -0.12389
      12 -> 15        -0.21512
      12 -> 16        -0.10744
      13 -> 18        -0.27335
      13 -> 20        -0.28446
      13 -> 21         0.49319

 Excited State  13:      Singlet-A      9.8214 eV  126.24 nm  f=0.1478  <S**2>=0.000
       9 -> 15         0.13257
      10 -> 15        -0.23579
      10 -> 16        -0.10611
      10 -> 17        -0.16564
      11 -> 15        -0.22294
      11 -> 16        -0.20091
      11 -> 17        -0.13517
      12 -> 15        -0.10724
      12 -> 16         0.41695
      12 -> 18         0.11910
      12 -> 19         0.15792

 Excited State  14:      Singlet-A      9.9129 eV  125.07 nm  f=0.0770  <S**2>=0.000
      11 -> 16        -0.16654
      13 -> 20         0.59115
      13 -> 21         0.28790

 Excited State  15:      Singlet-A     10.0603 eV  123.24 nm  f=0.0375  <S**2>=0.000
       8 -> 15         0.14985
       8 -> 16        -0.11654
       9 -> 15         0.15927
       9 -> 16         0.15811
      10 -> 15        -0.27760
      10 -> 16         0.13836
      10 -> 19         0.18233
      11 -> 16         0.33338
      11 -> 19         0.12779
      12 -> 15         0.13502
      12 -> 17        -0.23770

 The electronic state is 1-A.
 Alpha  occ. eigenvalues --   -1.94416  -1.20354  -0.98005  -0.81652  -0.80212
 Alpha  occ. eigenvalues --   -0.68824  -0.67370  -0.52204  -0.49443  -0.42627
 Alpha  occ. eigenvalues --   -0.42256  -0.38330  -0.27980
 Alpha virt. eigenvalues --    0.12917   0.19245   0.19682   0.27263   0.28247
 Alpha virt. eigenvalues --    0.30541   0.32209   0.34123   0.37611   0.46308
 Alpha virt. eigenvalues --    0.51093

 Mulliken charges:
               1
     1  C   -0.087256
     2  C   -1.938358
     3  O    3.130746
     4  C   -1.937646
     5  C   -0.102207
     6  H    0.154464
     7  H    0.310266
     8  H    0.317787
     9  H    0.152204
 Sum of Mulliken charges =   0.00000

 Dipole moment (field-independent basis, Debye):
    X=             -1.5800    Y=             -9.8767    Z=              0.1430  Tot=             10.0033
 N-N= 1.041385816701D+02 E-N=-1.696990456230D+02  KE=-1.566984695728D+01
 Orbital energies and kinetic energies (alpha):
                                 1                 2
   1         O                -1.944156         -1.423437
   2         O                -1.203541         -1.077914
   3         O                -0.980054         -0.904592
   4         O                -0.816523         -0.626555
   5         O                -0.802117         -0.696949
   6         O                -0.688242         -0.570677
   7         O                -0.673705         -0.580085

 Normal termination of Gaussian 09 at Tue Dec 15 17:10:02 2015.
