 Gaussian 09, Revision D.01,
 Gaussian 09:  ES64L-G09RevD.01 24-Apr-2013

 ------------------------------------------------------------
 #P AM1(Input,print) CIS(Singlets,NStates=15) pop(full) force
 ------------------------------------------------------------

 -----------------
 AM1-Reparam Input
 -----------------
 Symbolic Z-matrix:
 Charge =  0 Multiplicity = 1

                         Standard orientation:
 ---------------------------------------------------------------------
 Center     Atomic      Atomic             Coordinates (Angstroms)
 Number     Number       Type             X           Y           Z
 ---------------------------------------------------------------------
      1          6           0        1.007904    0.735301   -0.010651
      2          6           0        0.916886   -0.666669   -0.015906
      3          8           0       -0.356045   -1.062698    0.009082
      4          6           0       -1.117933   -0.040962   -0.017816
      5          6           0       -0.431617    1.100602    0.019935
      6          1           0       -0.735326    2.120375   -0.047185
      7          1           0       -2.221389   -0.217233    0.035419
      8          1           0        1.722424   -1.466074    0.028507
      9          1           0        1.831221    1.294886    0.057225
 ---------------------------------------------------------------------

 SCF Done:  E(RAM1) =   1.70119471540     A.U. after   14 cycles

 Excitation energies and oscillator strengths:

 Excited State   1:      Singlet-A      5.2365 eV  236.77 nm  f=0.3617  <S**2>=0.000
      13 -> 14         0.69563
 This state for optimization and/or second-order correction.
 Total Energy, E(CIS) =   1.89363286629
 Copying the excited state density for this state as the 1-particle RhoCI density.

 Excited State   2:      Singlet-A      6.0271 eV  205.71 nm  f=0.0035  <S**2>=0.000
      11 -> 15         0.10036
      13 -> 15         0.66839
      13 -> 17         0.13891
      13 -> 18         0.10641

 Excited State   3:      Singlet-A      6.3740 eV  194.52 nm  f=0.0024  <S**2>=0.000
      11 -> 16        -0.10649
      13 -> 16         0.61920
      13 -> 17         0.21285
      13 -> 18        -0.15755
      13 -> 19         0.16131

 Excited State   4:      Singlet-A      6.7175 eV  184.57 nm  f=0.0004  <S**2>=0.000
      12 -> 14         0.69160
      13 -> 19        -0.10047

 Excited State   5:      Singlet-A      7.2408 eV  171.23 nm  f=0.0004  <S**2>=0.000
      12 -> 14         0.10606
      13 -> 16        -0.21918
      13 -> 17         0.21951
      13 -> 19         0.57446
      13 -> 20        -0.11503
      13 -> 21         0.14826

 Excited State   6:      Singlet-A      7.7362 eV  160.27 nm  f=0.0312  <S**2>=0.000
      13 -> 15        -0.15754
      13 -> 16        -0.10229
      13 -> 17         0.60321
      13 -> 18         0.11184
      13 -> 19        -0.24178

 Excited State   7:      Singlet-A      8.1821 eV  151.53 nm  f=0.0001  <S**2>=0.000
      13 -> 16         0.14109
      13 -> 18         0.61687
      13 -> 19         0.12832
      13 -> 20        -0.20106
      13 -> 21         0.12245

 Excited State   8:      Singlet-A      8.2906 eV  149.55 nm  f=0.0081  <S**2>=0.000
      10 -> 14         0.65582
      11 -> 14        -0.19236
      13 -> 20         0.10683

 Excited State   9:      Singlet-A      8.4497 eV  146.73 nm  f=0.0968  <S**2>=0.000
      10 -> 14         0.18433
      11 -> 14         0.65139
      12 -> 15        -0.11906

 Excited State  10:      Singlet-A      8.6243 eV  143.76 nm  f=0.0238  <S**2>=0.000
      13 -> 18         0.22900
      13 -> 19         0.16234
      13 -> 20         0.59750
      13 -> 21        -0.20305

 Excited State  11:      Singlet-A      9.1069 eV  136.14 nm  f=0.0602  <S**2>=0.000
      12 -> 15        -0.10827
      12 -> 16         0.10167
      13 -> 19        -0.13379
      13 -> 20         0.21657
      13 -> 21         0.60775

 Excited State  12:      Singlet-A      9.2040 eV  134.71 nm  f=0.2066  <S**2>=0.000
       8 -> 15         0.14534
      10 -> 17         0.11957
      12 -> 15         0.44160
      12 -> 16        -0.29016
      12 -> 18         0.17665
      12 -> 19        -0.20146
      13 -> 21         0.18772

 Excited State  13:      Singlet-A      9.3917 eV  132.01 nm  f=0.0042  <S**2>=0.000
       7 -> 15        -0.11622
      11 -> 15         0.59858
      11 -> 16         0.19148
      11 -> 17         0.13689
      13 -> 15        -0.10734

 Excited State  14:      Singlet-A      9.4970 eV  130.55 nm  f=0.0236  <S**2>=0.000
       8 -> 16        -0.10646
      10 -> 15        -0.13738
      10 -> 17        -0.12586
      11 -> 15         0.12889
      11 -> 16         0.10076
      12 -> 15         0.44850
      12 -> 16         0.30083
      12 -> 17         0.21266
      12 -> 19         0.14353
      12 -> 21         0.11095

 Excited State  15:      Singlet-A      9.7847 eV  126.71 nm  f=0.0025  <S**2>=0.000
      11 -> 15        -0.22202
      11 -> 16         0.61278
      13 -> 16         0.13628

 The electronic state is 1-A.
 Alpha  occ. eigenvalues --   -1.93780  -1.21247  -0.99928  -0.83593  -0.79105
 Alpha  occ. eigenvalues --   -0.69194  -0.64796  -0.54677  -0.51509  -0.46028
 Alpha  occ. eigenvalues --   -0.42804  -0.40835  -0.28340
 Alpha virt. eigenvalues --    0.11020   0.15698   0.17731   0.24461   0.26311
 Alpha virt. eigenvalues --    0.27353   0.28056   0.29482   0.40483   0.48767
 Alpha virt. eigenvalues --    0.54201

 Mulliken charges:
               1
     1  C   -0.110617
     2  C   -1.965779
     3  O    3.177577
     4  C   -1.939940
     5  C   -0.158390
     6  H    0.182299
     7  H    0.322718
     8  H    0.309836
     9  H    0.182296
 Sum of Mulliken charges =   0.00000

 Dipole moment (field-independent basis, Debye):
    X=             -3.3734    Y=             -8.9591    Z=              0.5255  Tot=              9.5875
 N-N= 1.044125869817D+02 E-N=-1.701347527411D+02  KE=-1.577128299264D+01
 Orbital energies and kinetic energies (alpha):
                                 1                 2
   1         O                -1.937801         -1.430061
   2         O                -1.212474         -1.090692
   3         O                -0.999284         -0.900212
   4         O                -0.835933         -0.643563
   5         O                -0.791051         -0.696560
   6         O                -0.691936         -0.585195
   7         O                -0.647965         -0.513348

 Normal termination of Gaussian 09 at Tue Dec 15 17:07:01 2015.
