 Gaussian 09, Revision D.01,
 Gaussian 09:  ES64L-G09RevD.01 24-Apr-2013

 ------------------------------------------------------------
 #P AM1(Input,print) CIS(Singlets,NStates=15) pop(full) force
 ------------------------------------------------------------

 -----------------
 AM1-Reparam Input
 -----------------
 Symbolic Z-matrix:
 Charge =  0 Multiplicity = 1

                         Standard orientation:
 ---------------------------------------------------------------------
 Center     Atomic      Atomic             Coordinates (Angstroms)
 Number     Number       Type             X           Y           Z
 ---------------------------------------------------------------------
      1          6           0        0.476524    1.086467    0.033147
      2          6           0        1.157561   -0.080477   -0.016795
      3          8           0        0.259620   -1.161541   -0.013717
      4          6           0       -0.983331   -0.547575    0.051192
      5          6           0       -0.933816    0.784504   -0.032855
      6          1           0       -1.724804    1.440999   -0.075685
      7          1           0       -1.811747   -1.292232   -0.027602
      8          1           0        2.184792   -0.385207   -0.014027
      9          1           0        0.973178    2.071253    0.018917
 ---------------------------------------------------------------------

 SCF Done:  E(RAM1) =   2.62772403202     A.U. after   13 cycles

 Excitation energies and oscillator strengths:

 Excited State   1:      Singlet-A      4.9577 eV  250.09 nm  f=0.3517  <S**2>=0.000
      13 -> 14         0.69846
 This state for optimization and/or second-order correction.
 Total Energy, E(CIS) =   2.80991484479
 Copying the excited state density for this state as the 1-particle RhoCI density.

 Excited State   2:      Singlet-A      5.8613 eV  211.53 nm  f=0.0002  <S**2>=0.000
      13 -> 15         0.66911
      13 -> 17        -0.12075
      13 -> 19         0.12123

 Excited State   3:      Singlet-A      6.3392 eV  195.58 nm  f=0.0022  <S**2>=0.000
      12 -> 14        -0.10989
      13 -> 16         0.66255
      13 -> 18        -0.12925

 Excited State   4:      Singlet-A      6.5302 eV  189.86 nm  f=0.0006  <S**2>=0.000
      12 -> 14         0.68722
      13 -> 16         0.10779

 Excited State   5:      Singlet-A      7.4514 eV  166.39 nm  f=0.0101  <S**2>=0.000
      10 -> 14         0.44854
      11 -> 14         0.52918

 Excited State   6:      Singlet-A      7.7123 eV  160.76 nm  f=0.0004  <S**2>=0.000
      13 -> 15         0.10015
      13 -> 17         0.66243
      13 -> 18        -0.10512
      13 -> 21        -0.11707

 Excited State   7:      Singlet-A      8.4809 eV  146.19 nm  f=0.1190  <S**2>=0.000
      10 -> 14         0.52449
      11 -> 14        -0.45282

 Excited State   8:      Singlet-A      8.9829 eV  138.02 nm  f=0.0248  <S**2>=0.000
      10 -> 15         0.15624
      11 -> 15        -0.19350
      12 -> 15        -0.15394
      13 -> 18         0.59896

 Excited State   9:      Singlet-A      9.1514 eV  135.48 nm  f=0.0972  <S**2>=0.000
       9 -> 15         0.13926
      10 -> 16        -0.13810
      11 -> 18         0.10031
      12 -> 15         0.54345
      12 -> 16        -0.12159
      12 -> 17        -0.23291
      13 -> 18         0.14782

 Excited State  10:      Singlet-A      9.2444 eV  134.12 nm  f=0.0045  <S**2>=0.000
      10 -> 16        -0.13095
      11 -> 16         0.15193
      12 -> 16         0.11018
      13 -> 19         0.62949

 Excited State  11:      Singlet-A      9.6830 eV  128.04 nm  f=0.2325  <S**2>=0.000
      10 -> 16         0.22299
      10 -> 18        -0.13209
      11 -> 15         0.11307
      11 -> 16         0.30474
      11 -> 18        -0.15022
      12 -> 15         0.16823
      12 -> 16        -0.32339
      12 -> 17         0.32504
      12 -> 19         0.10708

 Excited State  12:      Singlet-A      9.7537 eV  127.12 nm  f=0.0234  <S**2>=0.000
      10 -> 15         0.10817
      11 -> 15         0.39509
      12 -> 15         0.16535
      12 -> 16         0.45352
      12 -> 17         0.12803
      12 -> 18        -0.10580
      13 -> 19        -0.14459

 Excited State  13:      Singlet-A      9.9569 eV  124.52 nm  f=0.0335  <S**2>=0.000
       7 -> 15        -0.11238
      10 -> 15         0.49718
      11 -> 15        -0.30744
      12 -> 16         0.15359
      12 -> 17         0.10400
      13 -> 15        -0.11423
      13 -> 18        -0.20080
      13 -> 19         0.10070

 Excited State  14:      Singlet-A     10.1862 eV  121.72 nm  f=0.0034  <S**2>=0.000
       9 -> 15         0.17894
      10 -> 15        -0.25378
      10 -> 16        -0.27437
      11 -> 15        -0.23533
      11 -> 16         0.34253
      11 -> 19        -0.11729
      12 -> 16         0.15838
      12 -> 17         0.11615
      13 -> 18        -0.11999
      13 -> 19        -0.13238

 Excited State  15:      Singlet-A     10.2478 eV  120.99 nm  f=0.0195  <S**2>=0.000
       8 -> 16        -0.10274
       9 -> 15         0.22942
      10 -> 15        -0.23141
      10 -> 16         0.32319
      10 -> 19        -0.10258
      11 -> 15        -0.15590
      11 -> 16        -0.28077
      12 -> 16         0.16709
      12 -> 17         0.19285
      13 -> 18         0.12951
      13 -> 19         0.10450

 The electronic state is 1-A.
 Alpha  occ. eigenvalues --   -1.83526  -1.11964  -0.86662  -0.78848  -0.74534
 Alpha  occ. eigenvalues --   -0.66461  -0.61875  -0.54748  -0.53688  -0.44209
 Alpha  occ. eigenvalues --   -0.43711  -0.41184  -0.28308
 Alpha virt. eigenvalues --    0.09848   0.16325   0.18249   0.26450   0.28843
 Alpha virt. eigenvalues --    0.30442   0.37200   0.41565   0.46018   0.54273
 Alpha virt. eigenvalues --    0.57203

 Mulliken charges:
               1
     1  C   -0.183244
     2  C   -1.967133
     3  O    3.434563
     4  C   -1.971818
     5  C   -0.192229
     6  H    0.176638
     7  H    0.263159
     8  H    0.251601
     9  H    0.188464
 Sum of Mulliken charges =   0.00000

 Dipole moment (field-independent basis, Debye):
    X=              2.5082    Y=            -12.3113    Z=             -0.6135  Tot=             12.5792
 N-N= 1.035399182792D+02 E-N=-1.689068036392D+02  KE=-1.432322475844D+01
 Orbital energies and kinetic energies (alpha):
                                 1                 2
   1         O                -1.835263         -1.213974
   2         O                -1.119638         -0.974479
   3         O                -0.866621         -0.800785
   4         O                -0.788477         -0.531411
   5         O                -0.745341         -0.606210
   6         O                -0.664611         -0.549582
   7         O                -0.618748         -0.493304

 Normal termination of Gaussian 09 at Tue Dec 15 17:07:48 2015.
