 Gaussian 09, Revision D.01,
 Gaussian 09:  ES64L-G09RevD.01 24-Apr-2013

 ------------------------------------------------------------
 #P AM1(Input,print) CIS(Singlets,NStates=15) pop(full) force
 ------------------------------------------------------------

 -----------------
 AM1-Reparam Input
 -----------------
 Symbolic Z-matrix:
 Charge =  0 Multiplicity = 1

                         Standard orientation:
 ---------------------------------------------------------------------
 Center     Atomic      Atomic             Coordinates (Angstroms)
 Number     Number       Type             X           Y           Z
 ---------------------------------------------------------------------
      1          6           0        0.924730    0.802116   -0.001519
      2          6           0        0.978904   -0.505533   -0.017753
      3          8           0       -0.216221   -1.150469    0.005277
      4          6           0       -1.100722   -0.163239    0.001189
      5          6           0       -0.573084    1.091656    0.000874
      6          1           0       -1.070051    1.991082   -0.016060
      7          1           0       -2.123968   -0.465702    0.005121
      8          1           0        1.856634   -1.238558    0.028856
      9          1           0        1.688186    1.566931    0.043121
 ---------------------------------------------------------------------

 SCF Done:  E(RAM1) =   2.64291769467     A.U. after   13 cycles

 Excitation energies and oscillator strengths:

 Excited State   1:      Singlet-A      4.7153 eV  262.94 nm  f=0.3625  <S**2>=0.000
      13 -> 14         0.69909
 This state for optimization and/or second-order correction.
 Total Energy, E(CIS) =   2.81620233459
 Copying the excited state density for this state as the 1-particle RhoCI density.

 Excited State   2:      Singlet-A      5.4970 eV  225.55 nm  f=0.0000  <S**2>=0.000
      13 -> 15         0.64563
      13 -> 16        -0.17990
      13 -> 17        -0.17376

 Excited State   3:      Singlet-A      6.0197 eV  205.96 nm  f=0.0024  <S**2>=0.000
      13 -> 15         0.18849
      13 -> 16         0.65888
      13 -> 18        -0.10994

 Excited State   4:      Singlet-A      6.1360 eV  202.06 nm  f=0.0001  <S**2>=0.000
      12 -> 14         0.70172

 Excited State   5:      Singlet-A      7.3332 eV  169.07 nm  f=0.0003  <S**2>=0.000
      13 -> 15         0.15040
      13 -> 17         0.66501
      13 -> 21        -0.11251

 Excited State   6:      Singlet-A      7.6445 eV  162.19 nm  f=0.0056  <S**2>=0.000
      10 -> 14         0.69648

 Excited State   7:      Singlet-A      8.3936 eV  147.71 nm  f=0.1262  <S**2>=0.000
      11 -> 14         0.68070
      12 -> 15         0.11616

 Excited State   8:      Singlet-A      8.8405 eV  140.25 nm  f=0.2966  <S**2>=0.000
       9 -> 16        -0.12850
      11 -> 14        -0.12726
      12 -> 15         0.60297
      12 -> 16        -0.12391
      12 -> 17        -0.21900

 Excited State   9:      Singlet-A      8.8695 eV  139.79 nm  f=0.0065  <S**2>=0.000
      11 -> 15         0.23196
      13 -> 18         0.64593

 Excited State  10:      Singlet-A      9.0317 eV  137.28 nm  f=0.0013  <S**2>=0.000
      11 -> 16         0.18115
      13 -> 19         0.66569

 Excited State  11:      Singlet-A      9.5574 eV  129.73 nm  f=0.0120  <S**2>=0.000
       9 -> 15        -0.12935
      10 -> 15        -0.17423
      10 -> 18         0.11057
      12 -> 15         0.20941
      12 -> 16         0.55562
      12 -> 17         0.22867

 Excited State  12:      Singlet-A      9.8066 eV  126.43 nm  f=0.0038  <S**2>=0.000
       7 -> 16        -0.10798
      11 -> 15         0.62102
      13 -> 16        -0.11555
      13 -> 18        -0.23161

 Excited State  13:      Singlet-A      9.8636 eV  125.70 nm  f=0.1004  <S**2>=0.000
      10 -> 16        -0.35318
      10 -> 18         0.18400
      12 -> 15         0.14624
      12 -> 16        -0.27369
      12 -> 17         0.40696
      12 -> 19        -0.14153

 Excited State  14:      Singlet-A      9.9990 eV  124.00 nm  f=0.0011  <S**2>=0.000
       7 -> 15        -0.12776
      11 -> 16         0.63002
      13 -> 15        -0.10162
      13 -> 19        -0.15881

 Excited State  15:      Singlet-A     10.2056 eV  121.49 nm  f=0.0075  <S**2>=0.000
       8 -> 15         0.20154
       8 -> 16         0.16266
       9 -> 15        -0.19039
       9 -> 16         0.15328
      10 -> 15         0.48091
      10 -> 16        -0.10656
      10 -> 19        -0.19694
      12 -> 16         0.11670
      12 -> 18         0.19466

 The electronic state is 1-A.
 Alpha  occ. eigenvalues --   -1.85479  -1.11174  -0.87656  -0.80177  -0.73584
 Alpha  occ. eigenvalues --   -0.67169  -0.63289  -0.54086  -0.53556  -0.45709
 Alpha  occ. eigenvalues --   -0.44843  -0.40953  -0.27867
 Alpha virt. eigenvalues --    0.08640   0.15283   0.16975   0.25534   0.28835
 Alpha virt. eigenvalues --    0.29907   0.36871   0.40577   0.49249   0.57388
 Alpha virt. eigenvalues --    0.60466

 Mulliken charges:
               1
     1  C   -0.152333
     2  C   -1.957029
     3  O    3.413901
     4  C   -1.995600
     5  C   -0.208490
     6  H    0.171494
     7  H    0.277237
     8  H    0.274762
     9  H    0.176059
 Sum of Mulliken charges =   0.00000

 Dipole moment (field-independent basis, Debye):
    X=             -1.8890    Y=            -11.9001    Z=              0.2989  Tot=             12.0528
 N-N= 1.040185463681D+02 E-N=-1.697021478591D+02  KE=-1.433829146262D+01
 Orbital energies and kinetic energies (alpha):
                                 1                 2
   1         O                -1.854789         -1.259950
   2         O                -1.111737         -0.964181
   3         O                -0.876558         -0.788231
   4         O                -0.801771         -0.541405
   5         O                -0.735839         -0.612424
   6         O                -0.671686         -0.524178
   7         O                -0.632885         -0.492431

 Normal termination of Gaussian 09 at Tue Dec 15 17:07:42 2015.
