 Gaussian 09, Revision D.01,
 Gaussian 09:  ES64L-G09RevD.01 24-Apr-2013

 ------------------------------------------------------------
 #P AM1(Input,print) CIS(Singlets,NStates=15) pop(full) force
 ------------------------------------------------------------

 -----------------
 AM1-Reparam Input
 -----------------
 Symbolic Z-matrix:
 Charge =  0 Multiplicity = 1

                         Standard orientation:
 ---------------------------------------------------------------------
 Center     Atomic      Atomic             Coordinates (Angstroms)
 Number     Number       Type             X           Y           Z
 ---------------------------------------------------------------------
      1          6           0       -0.680242    0.948863   -0.013063
      2          6           0       -1.083726   -0.310280    0.007307
      3          8           0       -0.016349   -1.107750    0.006145
      4          6           0        1.040856   -0.382702    0.006055
      5          6           0        0.727086    0.908568   -0.010395
      6          1           0        1.462002    1.801478    0.044368
      7          1           0        2.026513   -0.922641   -0.039495
      8          1           0       -2.094448   -0.811625   -0.032368
      9          1           0       -1.287123    1.808097    0.038915
 ---------------------------------------------------------------------

 SCF Done:  E(RAM1) =   1.83931145118     A.U. after   14 cycles

 Excitation energies and oscillator strengths:

 Excited State   1:      Singlet-A      5.5504 eV  223.38 nm  f=0.3378  <S**2>=0.000
      13 -> 14         0.69000
 This state for optimization and/or second-order correction.
 Total Energy, E(CIS) =   2.04328623076
 Copying the excited state density for this state as the 1-particle RhoCI density.

 Excited State   2:      Singlet-A      6.5329 eV  189.78 nm  f=0.0040  <S**2>=0.000
      13 -> 15         0.67036
      13 -> 17        -0.12074
      13 -> 18        -0.10682

 Excited State   3:      Singlet-A      6.8443 eV  181.15 nm  f=0.0025  <S**2>=0.000
      13 -> 16         0.66697
      13 -> 17        -0.10792
      13 -> 19         0.13007

 Excited State   4:      Singlet-A      7.5151 eV  164.98 nm  f=0.0004  <S**2>=0.000
      12 -> 14         0.69671

 Excited State   5:      Singlet-A      8.1851 eV  151.48 nm  f=0.0008  <S**2>=0.000
      11 -> 14        -0.22698
      13 -> 17        -0.22749
      13 -> 18         0.56900
      13 -> 21         0.20340

 Excited State   6:      Singlet-A      8.1944 eV  151.30 nm  f=0.0064  <S**2>=0.000
      10 -> 14         0.10405
      11 -> 14         0.64737
      13 -> 18         0.22770

 Excited State   7:      Singlet-A      8.8071 eV  140.78 nm  f=0.0079  <S**2>=0.000
      10 -> 15         0.10484
      13 -> 15         0.12239
      13 -> 17         0.63276
      13 -> 18         0.20603

 Excited State   8:      Singlet-A      9.2350 eV  134.26 nm  f=0.0845  <S**2>=0.000
      10 -> 14         0.65935
      11 -> 14        -0.10200
      11 -> 18        -0.10336

 Excited State   9:      Singlet-A      9.5001 eV  130.51 nm  f=0.0018  <S**2>=0.000
      10 -> 16         0.11129
      13 -> 16        -0.10473
      13 -> 19         0.67500

 Excited State  10:      Singlet-A      9.6528 eV  128.44 nm  f=0.0012  <S**2>=0.000
       8 -> 15        -0.11623
      11 -> 15         0.15155
      11 -> 16         0.14377
      11 -> 17        -0.23061
      12 -> 15         0.36392
      12 -> 16        -0.23129
      12 -> 17         0.12549
      12 -> 18        -0.32893

 Excited State  11:      Singlet-A      9.8512 eV  125.86 nm  f=0.1481  <S**2>=0.000
       9 -> 15        -0.11778
      11 -> 15        -0.36451
      11 -> 17         0.13476
      12 -> 15         0.50548
      12 -> 17        -0.15719

 Excited State  12:      Singlet-A     10.1561 eV  122.08 nm  f=0.1419  <S**2>=0.000
      11 -> 16         0.38664
      12 -> 16         0.53044

 Excited State  13:      Singlet-A     10.2899 eV  120.49 nm  f=0.0462  <S**2>=0.000
      13 -> 18         0.20514
      13 -> 20         0.54174
      13 -> 21        -0.36058

 Excited State  14:      Singlet-A     10.3710 eV  119.55 nm  f=0.0096  <S**2>=0.000
       6 -> 15        -0.10981
      10 -> 15         0.61606
      10 -> 16         0.16715
      11 -> 15        -0.11070
      13 -> 15        -0.12035

 Excited State  15:      Singlet-A     10.6941 eV  115.94 nm  f=0.0512  <S**2>=0.000
      10 -> 16        -0.26728
      11 -> 16         0.11887
      12 -> 16        -0.10543
      13 -> 20         0.29411
      13 -> 21         0.48173

 The electronic state is 1-A.
 Alpha  occ. eigenvalues --   -2.03457  -1.29439  -1.01799  -0.91053  -0.84399
 Alpha  occ. eigenvalues --   -0.77450  -0.76182  -0.64100  -0.61200  -0.53202
 Alpha  occ. eigenvalues --   -0.51856  -0.49819  -0.37493
 Alpha virt. eigenvalues --    0.04374   0.09386   0.10794   0.18506   0.19679
 Alpha virt. eigenvalues --    0.22210   0.24831   0.27078   0.32494   0.40011
 Alpha virt. eigenvalues --    0.45901

 Mulliken charges:
               1
     1  C   -0.102076
     2  C   -1.902196
     3  O    3.164068
     4  C   -1.915186
     5  C   -0.179358
     6  H    0.172395
     7  H    0.311147
     8  H    0.300815
     9  H    0.150391
 Sum of Mulliken charges =   0.00000

 Dipole moment (field-independent basis, Debye):
    X=              0.1366    Y=             -9.9299    Z=             -0.0875  Tot=              9.9312
 N-N= 1.068128033551D+02 E-N=-1.725881578478D+02  KE=-1.572982532304D+01
 Orbital energies and kinetic energies (alpha):
                                 1                 2
   1         O                -2.034565         -1.442447
   2         O                -1.294392         -1.055242
   3         O                -1.017991         -0.876950
   4         O                -0.910533         -0.590722
   5         O                -0.843985         -0.696022
   6         O                -0.774502         -0.561324
   7         O                -0.761823         -0.597929

 Normal termination of Gaussian 09 at Tue Dec 15 17:08:54 2015.
