 Gaussian 09, Revision D.01,
 Gaussian 09:  ES64L-G09RevD.01 24-Apr-2013

 ------------------------------------------------------------
 #P AM1(Input,print) CIS(Singlets,NStates=15) pop(full) force
 ------------------------------------------------------------

 -----------------
 AM1-Reparam Input
 -----------------
 Symbolic Z-matrix:
 Charge =  0 Multiplicity = 1

                         Standard orientation:
 ---------------------------------------------------------------------
 Center     Atomic      Atomic             Coordinates (Angstroms)
 Number     Number       Type             X           Y           Z
 ---------------------------------------------------------------------
      1          6           0        0.476524    1.086467    0.033147
      2          6           0        1.157561   -0.080477   -0.016795
      3          8           0        0.259620   -1.161541   -0.013717
      4          6           0       -0.983331   -0.547575    0.051192
      5          6           0       -0.933816    0.784504   -0.032855
      6          1           0       -1.724804    1.440999   -0.075685
      7          1           0       -1.811747   -1.292232   -0.027602
      8          1           0        2.184792   -0.385207   -0.014027
      9          1           0        0.973178    2.071253    0.018917
 ---------------------------------------------------------------------

 SCF Done:  E(RAM1) =   1.12827449269     A.U. after   13 cycles

 Excitation energies and oscillator strengths:

 Excited State   1:      Singlet-A      5.4158 eV  228.93 nm  f=0.1883  <S**2>=0.000
      12 -> 15         0.15300
      13 -> 14         0.67723
 This state for optimization and/or second-order correction.
 Total Energy, E(CIS) =   1.32730129464
 Copying the excited state density for this state as the 1-particle RhoCI density.

 Excited State   2:      Singlet-A      6.4096 eV  193.44 nm  f=0.0034  <S**2>=0.000
      13 -> 16         0.62811
      13 -> 17         0.23001
      13 -> 18        -0.16114

 Excited State   3:      Singlet-A      6.5465 eV  189.39 nm  f=0.0412  <S**2>=0.000
      12 -> 14        -0.31916
      13 -> 15         0.61349

 Excited State   4:      Singlet-A      6.7287 eV  184.26 nm  f=0.0008  <S**2>=0.000
      13 -> 16        -0.23119
      13 -> 17         0.62642
      13 -> 19         0.14510
      13 -> 21        -0.12447

 Excited State   5:      Singlet-A      7.3348 eV  169.03 nm  f=0.0097  <S**2>=0.000
       9 -> 14         0.12195
      11 -> 14         0.65572
      12 -> 14        -0.19808

 Excited State   6:      Singlet-A      7.8710 eV  157.52 nm  f=0.1628  <S**2>=0.000
      10 -> 14        -0.34247
      11 -> 14         0.18875
      11 -> 15         0.12893
      12 -> 14         0.48794
      13 -> 15         0.23647

 Excited State   7:      Singlet-A      8.0754 eV  153.53 nm  f=0.0907  <S**2>=0.000
      10 -> 14         0.53783
      11 -> 15        -0.16901
      12 -> 14         0.30952
      13 -> 15         0.16178
      13 -> 20        -0.12898

 Excited State   8:      Singlet-A      8.1321 eV  152.46 nm  f=0.0047  <S**2>=0.000
      12 -> 16         0.17600
      13 -> 18         0.48410
      13 -> 19         0.36293
      13 -> 20        -0.18854
      13 -> 24        -0.15525

 Excited State   9:      Singlet-A      8.2570 eV  150.16 nm  f=0.0004  <S**2>=0.000
      10 -> 14         0.13603
      13 -> 17        -0.10755
      13 -> 18        -0.15440
      13 -> 19         0.44874
      13 -> 20         0.43635
      13 -> 23         0.12049

 Excited State  10:      Singlet-A      8.3851 eV  147.86 nm  f=0.1721  <S**2>=0.000
       9 -> 15         0.10557
      11 -> 15        -0.20344
      12 -> 15         0.61138
      13 -> 14        -0.12631

 Excited State  11:      Singlet-A      8.5771 eV  144.55 nm  f=0.0526  <S**2>=0.000
       9 -> 15        -0.21102
      10 -> 14         0.22753
      10 -> 15         0.11572
      11 -> 15         0.54408
      12 -> 15         0.21487

 Excited State  12:      Singlet-A      8.6694 eV  143.01 nm  f=0.0115  <S**2>=0.000
      12 -> 16         0.56174
      12 -> 17         0.28965
      13 -> 20         0.10706
      13 -> 22        -0.12631

 Excited State  13:      Singlet-A      8.8129 eV  140.69 nm  f=0.0073  <S**2>=0.000
      12 -> 16        -0.19746
      12 -> 17         0.49449
      13 -> 18        -0.23192
      13 -> 19         0.12994
      13 -> 20        -0.34321

 Excited State  14:      Singlet-A      9.2528 eV  134.00 nm  f=0.0007  <S**2>=0.000
      12 -> 17        -0.10743
      13 -> 19         0.10802
      13 -> 21         0.63081
      13 -> 22        -0.19900

 Excited State  15:      Singlet-A      9.3716 eV  132.30 nm  f=0.0028  <S**2>=0.000
      11 -> 16         0.13345
      11 -> 18        -0.10345
      12 -> 16        -0.21814
      12 -> 17         0.30087
      13 -> 17         0.10041
      13 -> 18         0.33642
      13 -> 19        -0.20991
      13 -> 20         0.27906
      13 -> 21         0.12052
      13 -> 22        -0.13139

 The electronic state is 1-A.
 Alpha  occ. eigenvalues --   -1.79533  -1.19131  -0.97551  -0.86863  -0.80230
 Alpha  occ. eigenvalues --   -0.73618  -0.70147  -0.59182  -0.55994  -0.51956
 Alpha  occ. eigenvalues --   -0.49329  -0.46534  -0.37114
 Alpha virt. eigenvalues --    0.04145   0.08446   0.10444   0.11731   0.18565
 Alpha virt. eigenvalues --    0.19260   0.20547   0.22157   0.25729   0.27437
 Alpha virt. eigenvalues --    0.28343

 Mulliken charges:
               1
     1  C   -0.131883
     2  C   -1.204591
     3  O    2.087648
     4  C   -1.206796
     5  C   -0.126986
     6  H    0.099078
     7  H    0.192138
     8  H    0.180849
     9  H    0.110542
 Sum of Mulliken charges =   0.00000

 Dipole moment (field-independent basis, Debye):
    X=              1.5155    Y=             -7.6344    Z=             -0.3820  Tot=              7.7928
 N-N= 1.038989906234D+02 E-N=-1.704856841748D+02  KE=-1.491214265827D+01
 Orbital energies and kinetic energies (alpha):
                                 1                 2
   1         O                -1.795325         -1.210392
   2         O                -1.191309         -0.978194
   3         O                -0.975505         -0.828519
   4         O                -0.868632         -0.618082
   5         O                -0.802300         -0.665785
   6         O                -0.736177         -0.594510
   7         O                -0.701465         -0.510091

 Normal termination of Gaussian 09 at Tue Dec 15 17:05:47 2015.
