 Gaussian 09, Revision D.01,
 Gaussian 09:  ES64L-G09RevD.01 24-Apr-2013

 ------------------------------------------------------------
 #P AM1(Input,print) CIS(Singlets,NStates=15) pop(full) force
 ------------------------------------------------------------

 -----------------
 AM1-Reparam Input
 -----------------
 Symbolic Z-matrix:
 Charge =  0 Multiplicity = 1

                         Standard orientation:
 ---------------------------------------------------------------------
 Center     Atomic      Atomic             Coordinates (Angstroms)
 Number     Number       Type             X           Y           Z
 ---------------------------------------------------------------------
      1          6           0       -0.649419    0.961871   -0.002631
      2          6           0       -1.095568   -0.246318    0.001723
      3          8           0       -0.104229   -1.154401    0.000617
      4          6           0        1.085947   -0.418762   -0.000511
      5          6           0        0.768999    0.916622    0.000003
      6          1           0        1.440928    1.691179    0.031100
      7          1           0        2.021488   -0.928274   -0.019471
      8          1           0       -2.054341   -0.701881    0.012815
      9          1           0       -1.233998    1.893702   -0.020884
 ---------------------------------------------------------------------

 SCF Done:  E(RAM1) =   1.41835056093     A.U. after   13 cycles

 Excitation energies and oscillator strengths:

 Excited State   1:      Singlet-A      5.9589 eV  208.07 nm  f=0.3060  <S**2>=0.000
      13 -> 14         0.69290
 This state for optimization and/or second-order correction.
 Total Energy, E(CIS) =   1.63733667717
 Copying the excited state density for this state as the 1-particle RhoCI density.

 Excited State   2:      Singlet-A      6.0209 eV  205.92 nm  f=0.0003  <S**2>=0.000
      12 -> 15         0.10450
      13 -> 15         0.67648

 Excited State   3:      Singlet-A      6.6201 eV  187.28 nm  f=0.0004  <S**2>=0.000
      12 -> 16        -0.11444
      13 -> 16         0.64582
      13 -> 17        -0.17467
      13 -> 20        -0.11637

 Excited State   4:      Singlet-A      7.4276 eV  166.92 nm  f=0.0003  <S**2>=0.000
      11 -> 14         0.60163
      12 -> 14         0.33413
      13 -> 22         0.10504

 Excited State   5:      Singlet-A      7.6409 eV  162.26 nm  f=0.0068  <S**2>=0.000
      13 -> 16         0.16292
      13 -> 17         0.65238
      13 -> 22        -0.11001

 Excited State   6:      Singlet-A      7.9708 eV  155.55 nm  f=0.0027  <S**2>=0.000
      12 -> 15         0.10226
      13 -> 19         0.47286
      13 -> 22         0.48135

 Excited State   7:      Singlet-A      8.3072 eV  149.25 nm  f=0.0004  <S**2>=0.000
      11 -> 14         0.23676
      12 -> 14        -0.40513
      13 -> 18         0.50652

 Excited State   8:      Singlet-A      8.4224 eV  147.21 nm  f=0.0016  <S**2>=0.000
      10 -> 14         0.68726

 Excited State   9:      Singlet-A      8.7092 eV  142.36 nm  f=0.0028  <S**2>=0.000
      12 -> 15         0.12245
      12 -> 16         0.13082
      13 -> 19        -0.34029
      13 -> 20        -0.27524
      13 -> 21         0.45223
      13 -> 22         0.21765

 Excited State  10:      Singlet-A      8.8548 eV  140.02 nm  f=0.0033  <S**2>=0.000
      13 -> 19         0.37718
      13 -> 20        -0.11357
      13 -> 21         0.41713
      13 -> 22        -0.37800

 Excited State  11:      Singlet-A      9.0910 eV  136.38 nm  f=0.0343  <S**2>=0.000
      11 -> 15        -0.16504
      12 -> 15         0.48295
      13 -> 20         0.39677
      13 -> 21         0.12397
      13 -> 23        -0.10430

 Excited State  12:      Singlet-A      9.1656 eV  135.27 nm  f=0.1540  <S**2>=0.000
      11 -> 14        -0.20841
      11 -> 15         0.20080
      11 -> 17         0.10034
      12 -> 14         0.39362
      13 -> 18         0.44273

 Excited State  13:      Singlet-A      9.2464 eV  134.09 nm  f=0.0282  <S**2>=0.000
      11 -> 15         0.14579
      12 -> 15        -0.34067
      12 -> 16        -0.20261
      13 -> 20         0.39403
      13 -> 21         0.26765
      13 -> 22         0.18658

 Excited State  14:      Singlet-A      9.4612 eV  131.04 nm  f=0.2230  <S**2>=0.000
       8 -> 15        -0.19107
      10 -> 17         0.10898
      11 -> 14         0.11928
      11 -> 15         0.49836
      11 -> 16        -0.12137
      11 -> 19        -0.12176
      12 -> 14        -0.21656
      12 -> 15         0.19491
      12 -> 16        -0.12059
      13 -> 18        -0.12330

 Excited State  15:      Singlet-A      9.7189 eV  127.57 nm  f=0.0036  <S**2>=0.000
      11 -> 15         0.11667
      11 -> 16        -0.22039
      12 -> 16         0.53601
      13 -> 16         0.15812
      13 -> 20         0.24321
      13 -> 23         0.10034

 The electronic state is 1-A.
 Alpha  occ. eigenvalues --   -1.89396  -1.20425  -0.96770  -0.79084  -0.77579
 Alpha  occ. eigenvalues --   -0.68007  -0.62490  -0.49619  -0.47980  -0.40178
 Alpha  occ. eigenvalues --   -0.37299  -0.36919  -0.24181
 Alpha virt. eigenvalues --    0.18142   0.20791   0.23768   0.29058   0.29792
 Alpha virt. eigenvalues --    0.31623   0.34149   0.34461   0.35917   0.40501
 Alpha virt. eigenvalues --    0.45385

 Mulliken charges:
               1
     1  C   -0.073331
     2  C   -1.508355
     3  O    2.771583
     4  C   -1.556344
     5  C   -0.063242
     6  H    0.063805
     7  H    0.161037
     8  H    0.145995
     9  H    0.058853
 Sum of Mulliken charges =   0.00000

 Dipole moment (field-independent basis, Debye):
    X=             -1.2791    Y=             -9.7248    Z=             -0.0046  Tot=              9.8086
 N-N= 1.040042926877D+02 E-N=-1.706587384932D+02  KE=-1.591463073807D+01
 Orbital energies and kinetic energies (alpha):
                                 1                 2
   1         O                -1.893960         -1.385296
   2         O                -1.204248         -1.086904
   3         O                -0.967697         -0.895363
   4         O                -0.790835         -0.643661
   5         O                -0.775790         -0.690059
   6         O                -0.680067         -0.625765
   7         O                -0.624900         -0.549671

 Normal termination of Gaussian 09 at Tue Dec 15 17:07:54 2015.
