 Gaussian 09, Revision D.01,
 Gaussian 09:  ES64L-G09RevD.01 24-Apr-2013

 ------------------------------------------------------------
 #P AM1(Input,print) CIS(Singlets,NStates=15) pop(full) force
 ------------------------------------------------------------

 -----------------
 AM1-Reparam Input
 -----------------
 Symbolic Z-matrix:
 Charge =  0 Multiplicity = 1

                         Standard orientation:
 ---------------------------------------------------------------------
 Center     Atomic      Atomic             Coordinates (Angstroms)
 Number     Number       Type             X           Y           Z
 ---------------------------------------------------------------------
      1          6           0        0.863239    0.784245   -0.020767
      2          6           0        1.033205   -0.481976    0.015390
      3          8           0       -0.225510   -1.153029    0.003608
      4          6           0       -1.105698   -0.133167   -0.010492
      5          6           0       -0.522442    1.046167   -0.000348
      6          1           0       -1.117619    1.976527    0.081247
      7          1           0       -2.183631   -0.462451   -0.015577
      8          1           0        1.851522   -1.191054    0.001046
      9          1           0        1.643985    1.609587    0.001716
 ---------------------------------------------------------------------

 SCF Done:  E(RAM1) =   2.64523749609     A.U. after   13 cycles

 Excitation energies and oscillator strengths:

 Excited State   1:      Singlet-A      4.9984 eV  248.05 nm  f=0.3413  <S**2>=0.000
      13 -> 14         0.69839
 This state for optimization and/or second-order correction.
 Total Energy, E(CIS) =   2.82892501187
 Copying the excited state density for this state as the 1-particle RhoCI density.

 Excited State   2:      Singlet-A      5.5863 eV  221.94 nm  f=0.0004  <S**2>=0.000
      13 -> 15         0.67833
      13 -> 19        -0.10829

 Excited State   3:      Singlet-A      6.2579 eV  198.13 nm  f=0.0018  <S**2>=0.000
      13 -> 16         0.67360

 Excited State   4:      Singlet-A      6.5103 eV  190.44 nm  f=0.0004  <S**2>=0.000
      12 -> 14         0.69577

 Excited State   5:      Singlet-A      7.3673 eV  168.29 nm  f=0.0067  <S**2>=0.000
      11 -> 14         0.68688
      13 -> 17        -0.10699

 Excited State   6:      Singlet-A      7.5665 eV  163.86 nm  f=0.0002  <S**2>=0.000
      11 -> 14         0.10625
      13 -> 17         0.66035
      13 -> 18        -0.10434
      13 -> 21         0.11387

 Excited State   7:      Singlet-A      8.6282 eV  143.70 nm  f=0.0081  <S**2>=0.000
      10 -> 15         0.19170
      13 -> 18         0.64919
      13 -> 19         0.10186

 Excited State   8:      Singlet-A      8.6893 eV  142.69 nm  f=0.0640  <S**2>=0.000
      10 -> 14         0.64383
      12 -> 15         0.10544
      12 -> 16        -0.11158
      12 -> 17        -0.15718

 Excited State   9:      Singlet-A      8.9325 eV  138.80 nm  f=0.1090  <S**2>=0.000
       9 -> 15         0.14580
      10 -> 14        -0.18227
      11 -> 15         0.11707
      11 -> 18         0.11968
      12 -> 15         0.55209
      12 -> 16        -0.16499
      12 -> 17        -0.18376

 Excited State  10:      Singlet-A      9.1785 eV  135.08 nm  f=0.0006  <S**2>=0.000
      10 -> 16         0.18457
      13 -> 17        -0.14040
      13 -> 19         0.64333

 Excited State  11:      Singlet-A      9.3190 eV  133.04 nm  f=0.2104  <S**2>=0.000
      10 -> 14         0.13602
      11 -> 15         0.51881
      11 -> 16         0.20140
      11 -> 18        -0.22693
      12 -> 15         0.10445
      12 -> 17         0.24207

 Excited State  12:      Singlet-A      9.5042 eV  130.45 nm  f=0.0948  <S**2>=0.000
      11 -> 15         0.22120
      11 -> 16        -0.18509
      11 -> 19        -0.11650
      12 -> 16         0.56316
      12 -> 17        -0.19772

 Excited State  13:      Singlet-A      9.7935 eV  126.60 nm  f=0.0083  <S**2>=0.000
       7 -> 15        -0.13746
      10 -> 15         0.63944
      13 -> 15        -0.12307
      13 -> 18        -0.16185

 Excited State  14:      Singlet-A      9.9298 eV  124.86 nm  f=0.0691  <S**2>=0.000
       8 -> 16         0.13194
       9 -> 15         0.25539
      10 -> 14         0.12838
      11 -> 15        -0.22128
      11 -> 16         0.14010
      11 -> 17        -0.11905
      11 -> 19         0.13911
      12 -> 15         0.24295
      12 -> 16         0.27381
      12 -> 17         0.35660

 Excited State  15:      Singlet-A     10.3978 eV  119.24 nm  f=0.0070  <S**2>=0.000
       7 -> 16         0.11742
      10 -> 16         0.62077
      11 -> 16         0.11664
      13 -> 16         0.13324
      13 -> 19        -0.16896

 The electronic state is 1-A.
 Alpha  occ. eigenvalues --   -1.84584  -1.14157  -0.87672  -0.78690  -0.74585
 Alpha  occ. eigenvalues --   -0.66160  -0.63335  -0.54288  -0.53338  -0.44263
 Alpha  occ. eigenvalues --   -0.42371  -0.40123  -0.27678
 Alpha virt. eigenvalues --    0.10983   0.15767   0.18577   0.26216   0.28126
 Alpha virt. eigenvalues --    0.30968   0.37841   0.42637   0.46759   0.55092
 Alpha virt. eigenvalues --    0.57873

 Mulliken charges:
               1
     1  C   -0.157151
     2  C   -1.932066
     3  O    3.431661
     4  C   -1.986342
     5  C   -0.270085
     6  H    0.195154
     7  H    0.278620
     8  H    0.247112
     9  H    0.193097
 Sum of Mulliken charges =   0.00000

 Dipole moment (field-independent basis, Debye):
    X=             -2.7182    Y=            -12.2208    Z=              0.0674  Tot=             12.5197
 N-N= 1.042324389149D+02 E-N=-1.701823688491D+02  KE=-1.436717944251D+01
 Orbital energies and kinetic energies (alpha):
                                 1                 2
   1         O                -1.845838         -1.237012
   2         O                -1.141568         -0.984013
   3         O                -0.876721         -0.814097
   4         O                -0.786900         -0.515961
   5         O                -0.745846         -0.613443
   6         O                -0.661595         -0.530946
   7         O                -0.633351         -0.506179

 Normal termination of Gaussian 09 at Tue Dec 15 17:07:43 2015.
