 Gaussian 09, Revision D.01,
 Gaussian 09:  ES64L-G09RevD.01 24-Apr-2013

 ------------------------------------------------------------
 #P AM1(Input,print) CIS(Singlets,NStates=15) pop(full) force
 ------------------------------------------------------------

 -----------------
 AM1-Reparam Input
 -----------------
 Symbolic Z-matrix:
 Charge =  0 Multiplicity = 1

                         Standard orientation:
 ---------------------------------------------------------------------
 Center     Atomic      Atomic             Coordinates (Angstroms)
 Number     Number       Type             X           Y           Z
 ---------------------------------------------------------------------
      1          6           0       -0.684561    0.942479   -0.004022
      2          6           0       -1.128426   -0.256752    0.028697
      3          8           0       -0.062078   -1.183638   -0.026626
      4          6           0        1.134487   -0.371953    0.024121
      5          6           0        0.738963    0.954621   -0.025195
      6          1           0        1.430802    1.758637    0.020651
      7          1           0        2.086086   -0.898317    0.043721
      8          1           0       -2.030648   -0.814098   -0.001215
      9          1           0       -1.352394    1.812515    0.008243
 ---------------------------------------------------------------------

 SCF Done:  E(RAM1) =   2.87715160475     A.U. after   13 cycles

 Excitation energies and oscillator strengths:

 Excited State   1:      Singlet-A      5.1812 eV  239.29 nm  f=0.3260  <S**2>=0.000
      13 -> 14         0.69408
 This state for optimization and/or second-order correction.
 Total Energy, E(CIS) =   3.06755839437
 Copying the excited state density for this state as the 1-particle RhoCI density.

 Excited State   2:      Singlet-A      6.1078 eV  202.99 nm  f=0.0003  <S**2>=0.000
      10 -> 15         0.12366
      13 -> 15         0.66971
      13 -> 17         0.10778
      13 -> 18         0.13100

 Excited State   3:      Singlet-A      6.5530 eV  189.20 nm  f=0.0032  <S**2>=0.000
      10 -> 16        -0.11718
      13 -> 16         0.63202
      13 -> 17         0.22340
      13 -> 18        -0.14958

 Excited State   4:      Singlet-A      6.8471 eV  181.08 nm  f=0.0010  <S**2>=0.000
      12 -> 14         0.69610

 Excited State   5:      Singlet-A      7.6032 eV  163.07 nm  f=0.0200  <S**2>=0.000
      11 -> 14         0.42032
      13 -> 16        -0.17388
      13 -> 17         0.50798

 Excited State   6:      Singlet-A      7.7156 eV  160.69 nm  f=0.0026  <S**2>=0.000
      13 -> 15        -0.10681
      13 -> 17         0.11227
      13 -> 18         0.48299
      13 -> 19         0.19535
      13 -> 21         0.41929

 Excited State   7:      Singlet-A      7.7539 eV  159.90 nm  f=0.0009  <S**2>=0.000
      11 -> 14         0.55869
      13 -> 16         0.10103
      13 -> 17        -0.38969

 Excited State   8:      Singlet-A      8.4028 eV  147.55 nm  f=0.0016  <S**2>=0.000
      13 -> 16        -0.13458
      13 -> 18        -0.31194
      13 -> 19         0.58409
      13 -> 21         0.13505

 Excited State   9:      Singlet-A      8.6356 eV  143.57 nm  f=0.0508  <S**2>=0.000
      10 -> 14         0.64663
      12 -> 15        -0.19441
      13 -> 22         0.12664

 Excited State  10:      Singlet-A      8.9889 eV  137.93 nm  f=0.0015  <S**2>=0.000
      13 -> 18        -0.34587
      13 -> 19        -0.30707
      13 -> 21         0.51528

 Excited State  11:      Singlet-A      9.1819 eV  135.03 nm  f=0.1172  <S**2>=0.000
       8 -> 15        -0.13768
      10 -> 14         0.19151
      11 -> 17        -0.12159
      12 -> 15         0.57257
      12 -> 16        -0.16176
      12 -> 18         0.17105

 Excited State  12:      Singlet-A      9.3499 eV  132.60 nm  f=0.0885  <S**2>=0.000
      13 -> 20         0.68143

 Excited State  13:      Singlet-A      9.4994 eV  130.52 nm  f=0.0706  <S**2>=0.000
       9 -> 15         0.14440
       9 -> 18         0.10113
      11 -> 15         0.25473
      11 -> 17         0.28958
      11 -> 18         0.10522
      12 -> 15         0.26191
      12 -> 16         0.21979
      12 -> 17         0.24524
      12 -> 18        -0.16974
      12 -> 19        -0.19463
      12 -> 21        -0.12111

 Excited State  14:      Singlet-A     10.0042 eV  123.93 nm  f=0.0020  <S**2>=0.000
       7 -> 15        -0.15435
      10 -> 15         0.63148
      10 -> 16         0.15410
      10 -> 17         0.11003
      13 -> 15        -0.14248

 Excited State  15:      Singlet-A     10.0236 eV  123.69 nm  f=0.1309  <S**2>=0.000
      10 -> 14        -0.17224
      11 -> 15         0.10683
      12 -> 16        -0.14897
      13 -> 22         0.62272

 The electronic state is 1-A.
 Alpha  occ. eigenvalues --   -1.68873  -1.11721  -0.91889  -0.78342  -0.74872
 Alpha  occ. eigenvalues --   -0.65938  -0.62097  -0.52886  -0.50376  -0.42114
 Alpha  occ. eigenvalues --   -0.41776  -0.39017  -0.26721
 Alpha virt. eigenvalues --    0.12831   0.18100   0.20631   0.25605   0.28817
 Alpha virt. eigenvalues --    0.29300   0.31324   0.31783   0.32740   0.42146
 Alpha virt. eigenvalues --    0.45363

 Mulliken charges:
               1
     1  C   -0.148323
     2  C   -1.871621
     3  O    3.207539
     4  C   -1.938204
     5  C   -0.155713
     6  H    0.177703
     7  H    0.287567
     8  H    0.262995
     9  H    0.178057
 Sum of Mulliken charges =   0.00000

 Dipole moment (field-independent basis, Debye):
    X=             -1.0315    Y=            -11.6433    Z=             -0.6883  Tot=             11.7092
 N-N= 1.033246209331D+02 E-N=-1.680448169652D+02  KE=-1.471771817991D+01
 Orbital energies and kinetic energies (alpha):
                                 1                 2
   1         O                -1.688730         -1.152524
   2         O                -1.117208         -0.987683
   3         O                -0.918892         -0.858890
   4         O                -0.783418         -0.600938
   5         O                -0.748715         -0.665075
   6         O                -0.659378         -0.565834
   7         O                -0.620965         -0.520352

 Normal termination of Gaussian 09 at Tue Dec 15 17:05:54 2015.
