 Gaussian 09, Revision D.01,
 Gaussian 09:  ES64L-G09RevD.01 24-Apr-2013

 ------------------------------------------------------------
 #P AM1(Input,print) CIS(Singlets,NStates=15) pop(full) force
 ------------------------------------------------------------

 -----------------
 AM1-Reparam Input
 -----------------
 Symbolic Z-matrix:
 Charge =  0 Multiplicity = 1

                         Standard orientation:
 ---------------------------------------------------------------------
 Center     Atomic      Atomic             Coordinates (Angstroms)
 Number     Number       Type             X           Y           Z
 ---------------------------------------------------------------------
      1          6           0       -1.113238    0.442806   -0.004783
      2          6           0       -0.750595   -0.836111    0.021280
      3          8           0        0.627596   -1.017490   -0.014962
      4          6           0        1.104850    0.268298    0.003039
      5          6           0        0.107970    1.210609   -0.013149
      6          1           0        0.178041    2.208215    0.024157
      7          1           0        2.205136    0.340432    0.057520
      8          1           0       -1.369346   -1.803414   -0.005826
      9          1           0       -2.128520    0.881079    0.005513
 ---------------------------------------------------------------------

 SCF Done:  E(RAM1) =  0.196353010674E-01 A.U. after   13 cycles

 Excitation energies and oscillator strengths:

 Excited State   1:      Singlet-A      4.4214 eV  280.42 nm  f=0.0820  <S**2>=0.000
      12 -> 15         0.18590
      13 -> 14         0.67453
 This state for optimization and/or second-order correction.
 Total Energy, E(CIS) =  0.182118958824
 Copying the excited state density for this state as the 1-particle RhoCI density.

 Excited State   2:      Singlet-A      5.0879 eV  243.68 nm  f=0.0067  <S**2>=0.000
      12 -> 14        -0.35580
      13 -> 15         0.50703
      13 -> 16         0.31882

 Excited State   3:      Singlet-A      5.1614 eV  240.21 nm  f=0.0018  <S**2>=0.000
      12 -> 14         0.21445
      13 -> 15        -0.25671
      13 -> 16         0.59536

 Excited State   4:      Singlet-A      5.8289 eV  212.70 nm  f=0.0022  <S**2>=0.000
      12 -> 16         0.12524
      12 -> 18         0.13157
      12 -> 20        -0.11208
      12 -> 21         0.15665
      13 -> 18         0.53908
      13 -> 20        -0.18423
      13 -> 21         0.20881
      13 -> 23        -0.14845
      13 -> 24        -0.12215

 Excited State   5:      Singlet-A      6.0502 eV  204.93 nm  f=0.0032  <S**2>=0.000
       7 -> 16        -0.17008
      12 -> 16         0.58039
      12 -> 18        -0.12983
      12 -> 21         0.12357
      13 -> 19         0.14298
      13 -> 20         0.10753
      13 -> 21        -0.15957

 Excited State   6:      Singlet-A      6.2005 eV  199.96 nm  f=0.0209  <S**2>=0.000
      12 -> 14        -0.12704
      12 -> 16        -0.18701
      12 -> 18        -0.16270
      12 -> 19        -0.19234
      12 -> 23         0.10564
      12 -> 24         0.11365
      13 -> 18         0.14865
      13 -> 19         0.39040
      13 -> 20         0.15376
      13 -> 21        -0.29310
      13 -> 23        -0.12355

 Excited State   7:      Singlet-A      6.2762 eV  197.55 nm  f=0.3495  <S**2>=0.000
      12 -> 14         0.50693
      12 -> 15         0.10003
      12 -> 16        -0.11045
      13 -> 15         0.37385

 Excited State   8:      Singlet-A      6.3289 eV  195.90 nm  f=0.0074  <S**2>=0.000
      11 -> 14         0.10925
      12 -> 15         0.10273
      12 -> 19         0.13147
      13 -> 17         0.62746
      13 -> 19         0.11281
      13 -> 23         0.10821

 Excited State   9:      Singlet-A      6.4541 eV  192.10 nm  f=0.1327  <S**2>=0.000
      12 -> 15         0.64367
      13 -> 14        -0.16866

 Excited State  10:      Singlet-A      6.9106 eV  179.41 nm  f=0.0008  <S**2>=0.000
      12 -> 17         0.43517
      12 -> 18         0.27299
      12 -> 19         0.14690
      12 -> 20        -0.11051
      13 -> 18        -0.14304
      13 -> 19         0.33336
      13 -> 21         0.14066

 Excited State  11:      Singlet-A      7.1831 eV  172.61 nm  f=0.0014  <S**2>=0.000
       9 -> 14         0.24825
      10 -> 14         0.38483
      10 -> 15         0.14870
      11 -> 14        -0.35954
      11 -> 15        -0.29849

 Excited State  12:      Singlet-A      7.3310 eV  169.12 nm  f=0.0039  <S**2>=0.000
       9 -> 14        -0.16975
      10 -> 14         0.29237
      10 -> 15        -0.23494
      11 -> 14         0.38708
      11 -> 15        -0.28052
      12 -> 17         0.10458
      12 -> 20        -0.10719
      13 -> 21        -0.15325

 Excited State  13:      Singlet-A      7.4497 eV  166.43 nm  f=0.0005  <S**2>=0.000
      10 -> 14         0.15890
      11 -> 15        -0.12310
      12 -> 18        -0.24799
      12 -> 19        -0.12474
      12 -> 20         0.16583
      12 -> 22        -0.12178
      13 -> 16        -0.12294
      13 -> 18        -0.10131
      13 -> 19         0.26181
      13 -> 21         0.41437
      13 -> 22         0.14242

 Excited State  14:      Singlet-A      7.5039 eV  165.23 nm  f=0.0008  <S**2>=0.000
      10 -> 14         0.18332
      12 -> 17        -0.22812
      12 -> 18         0.33688
      12 -> 19         0.11798
      12 -> 20         0.18797
      12 -> 21         0.12173
      12 -> 22        -0.11804
      12 -> 23        -0.15559
      12 -> 24         0.10818
      13 -> 18        -0.10470
      13 -> 19         0.14348
      13 -> 22        -0.28444
      13 -> 23        -0.13321

 Excited State  15:      Singlet-A      7.5960 eV  163.22 nm  f=0.0038  <S**2>=0.000
       7 -> 16         0.10126
       9 -> 14         0.15214
      11 -> 14         0.21995
      12 -> 19         0.21451
      12 -> 21        -0.26355
      12 -> 22        -0.19464
      13 -> 17        -0.17444
      13 -> 18         0.24938
      13 -> 23         0.12306
      13 -> 24         0.34352

 The electronic state is 1-A.
 Alpha  occ. eigenvalues --   -1.55156  -1.24289  -1.08600  -0.82538  -0.80694
 Alpha  occ. eigenvalues --   -0.67799  -0.59518  -0.55905  -0.51778  -0.50468
 Alpha  occ. eigenvalues --   -0.48975  -0.39646  -0.34745
 Alpha virt. eigenvalues --    0.03014   0.06405   0.09873   0.13306   0.14050
 Alpha virt. eigenvalues --    0.15427   0.17580   0.18480   0.18961   0.20921
 Alpha virt. eigenvalues --    0.22015

 Mulliken charges:
               1
     1  C   -0.198812
     2  C   -0.108413
     3  O   -0.083667
     4  C   -0.100879
     5  C   -0.199000
     6  H    0.154393
     7  H    0.184196
     8  H    0.187971
     9  H    0.164210
 Sum of Mulliken charges =   0.00000

 Dipole moment (field-independent basis, Debye):
    X=             -0.3227    Y=              0.3119    Z=              0.0752  Tot=              0.4551
 N-N= 1.031359087163D+02 E-N=-1.705205213485D+02  KE=-1.650979623323D+01
 Orbital energies and kinetic energies (alpha):
                                 1                 2
   1         O                -1.551560         -1.306143
   2         O                -1.242886         -1.054819
   3         O                -1.086002         -0.950242
   4         O                -0.825380         -0.716969
   5         O                -0.806943         -0.708750
   6         O                -0.677990         -0.600494
   7         O                -0.595178         -0.483097

 Normal termination of Gaussian 09 at Tue Dec 15 16:21:19 2015.
