 Gaussian 09, Revision D.01,
 Gaussian 09:  ES64L-G09RevD.01 24-Apr-2013

 ------------------------------------------------------------
 #P AM1(Input,print) CIS(Singlets,NStates=15) pop(full) force
 ------------------------------------------------------------

 -----------------
 AM1-Reparam Input
 -----------------
 Symbolic Z-matrix:
 Charge =  0 Multiplicity = 1

                         Standard orientation:
 ---------------------------------------------------------------------
 Center     Atomic      Atomic             Coordinates (Angstroms)
 Number     Number       Type             X           Y           Z
 ---------------------------------------------------------------------
      1          6           0        0.757171    0.896867   -0.007864
      2          6           0        1.115852   -0.438017   -0.018797
      3          8           0       -0.113448   -1.144788    0.022470
      4          6           0       -1.135647   -0.256853   -0.027972
      5          6           0       -0.613125    0.984238    0.020463
      6          1           0       -1.228986    1.966866   -0.028794
      7          1           0       -2.111270   -0.674049    0.012461
      8          1           0        1.989501   -0.939612   -0.011258
      9          1           0        1.512834    1.687690    0.052856
 ---------------------------------------------------------------------

 SCF Done:  E(RAM1) =   1.72634157755     A.U. after   14 cycles

 Excitation energies and oscillator strengths:

 Excited State   1:      Singlet-A      5.6663 eV  218.81 nm  f=0.3270  <S**2>=0.000
      13 -> 14         0.68875
 This state for optimization and/or second-order correction.
 Total Energy, E(CIS) =   1.93457418047
 Copying the excited state density for this state as the 1-particle RhoCI density.

 Excited State   2:      Singlet-A      7.3100 eV  169.61 nm  f=0.0006  <S**2>=0.000
      12 -> 14         0.69052

 Excited State   3:      Singlet-A      7.3562 eV  168.54 nm  f=0.0049  <S**2>=0.000
      10 -> 15         0.11317
      13 -> 15         0.64839
      13 -> 16         0.12770
      13 -> 17        -0.11151

 Excited State   4:      Singlet-A      7.6934 eV  161.16 nm  f=0.0073  <S**2>=0.000
      11 -> 14         0.66006
      13 -> 15         0.12066
      13 -> 16        -0.18900

 Excited State   5:      Singlet-A      7.8510 eV  157.92 nm  f=0.0013  <S**2>=0.000
      11 -> 14         0.21629
      13 -> 16         0.63549
      13 -> 19         0.12971

 Excited State   6:      Singlet-A      9.0947 eV  136.33 nm  f=0.0007  <S**2>=0.000
      13 -> 17        -0.33760
      13 -> 18         0.54658
      13 -> 22         0.25642

 Excited State   7:      Singlet-A      9.3368 eV  132.79 nm  f=0.0046  <S**2>=0.000
      13 -> 15         0.12608
      13 -> 17         0.58093
      13 -> 18         0.30005
      13 -> 19         0.13315

 Excited State   8:      Singlet-A      9.5079 eV  130.40 nm  f=0.0881  <S**2>=0.000
      10 -> 14         0.67636

 Excited State   9:      Singlet-A      9.9289 eV  124.87 nm  f=0.1259  <S**2>=0.000
       9 -> 15         0.10059
      11 -> 15         0.29962
      11 -> 16         0.24599
      11 -> 17        -0.23840
      11 -> 18        -0.14710
      12 -> 16         0.23918
      12 -> 17        -0.19572
      12 -> 18         0.27851
      13 -> 14        -0.12760

 Excited State  10:      Singlet-A     10.1335 eV  122.35 nm  f=0.0002  <S**2>=0.000
      10 -> 16         0.12598
      13 -> 18        -0.20238
      13 -> 19         0.61820
      13 -> 22         0.14949

 Excited State  11:      Singlet-A     10.3161 eV  120.19 nm  f=0.1111  <S**2>=0.000
      11 -> 15         0.19070
      12 -> 15         0.63623
      12 -> 19        -0.10789

 Excited State  12:      Singlet-A     10.6870 eV  116.01 nm  f=0.0561  <S**2>=0.000
      13 -> 18        -0.20160
      13 -> 19        -0.20474
      13 -> 20         0.42485
      13 -> 21        -0.14321
      13 -> 22         0.43396

 Excited State  13:      Singlet-A     10.7805 eV  115.01 nm  f=0.1535  <S**2>=0.000
      11 -> 16         0.49258
      11 -> 19         0.18774
      12 -> 16        -0.39282
      12 -> 17         0.13495

 Excited State  14:      Singlet-A     10.9614 eV  113.11 nm  f=0.0714  <S**2>=0.000
      10 -> 14         0.11466
      11 -> 15         0.16976
      11 -> 18         0.12812
      11 -> 19        -0.10650
      12 -> 16        -0.20653
      12 -> 17        -0.10029
      13 -> 20         0.42506
      13 -> 21         0.19528
      13 -> 22        -0.29319

 Excited State  15:      Singlet-A     11.0088 eV  112.62 nm  f=0.0738  <S**2>=0.000
      10 -> 15         0.11414
      11 -> 15         0.12716
      11 -> 18         0.16039
      11 -> 19        -0.11539
      12 -> 16        -0.18274
      12 -> 17        -0.12634
      13 -> 20        -0.25379
      13 -> 21         0.35911
      13 -> 22         0.32079

 The electronic state is 1-A.
 Alpha  occ. eigenvalues --   -1.90497  -1.18108  -0.92903  -0.81402  -0.79171
 Alpha  occ. eigenvalues --   -0.69898  -0.67657  -0.58041  -0.55871  -0.46978
 Alpha  occ. eigenvalues --   -0.43385  -0.42410  -0.31385
 Alpha virt. eigenvalues --    0.11151   0.18692   0.21650   0.26341   0.27756
 Alpha virt. eigenvalues --    0.30522   0.32122   0.32606   0.35236   0.40890
 Alpha virt. eigenvalues --    0.45055

 Mulliken charges:
               1
     1  C   -0.142507
     2  C   -2.040924
     3  O    3.316374
     4  C   -2.028432
     5  C   -0.191547
     6  H    0.217404
     7  H    0.332727
     8  H    0.325066
     9  H    0.211839
 Sum of Mulliken charges =   0.00000

 Dipole moment (field-independent basis, Debye):
    X=             -1.5628    Y=            -10.2964    Z=              0.7505  Tot=             10.4413
 N-N= 1.037248817603D+02 E-N=-1.689483186922D+02  KE=-1.549463050139D+01
 Orbital energies and kinetic energies (alpha):
                                 1                 2
   1         O                -1.904973         -1.356353
   2         O                -1.181084         -1.047367
   3         O                -0.929026         -0.889444
   4         O                -0.814017         -0.574498
   5         O                -0.791709         -0.698485
   6         O                -0.698979         -0.589383
   7         O                -0.676568         -0.542044

 Normal termination of Gaussian 09 at Tue Dec 15 17:09:43 2015.
