 Gaussian 09, Revision D.01,
 Gaussian 09:  ES64L-G09RevD.01 24-Apr-2013

 ------------------------------------------------------------
 #P AM1(Input,print) CIS(Singlets,NStates=15) pop(full) force
 ------------------------------------------------------------

 -----------------
 AM1-Reparam Input
 -----------------
 Symbolic Z-matrix:
 Charge =  0 Multiplicity = 1

                         Standard orientation:
 ---------------------------------------------------------------------
 Center     Atomic      Atomic             Coordinates (Angstroms)
 Number     Number       Type             X           Y           Z
 ---------------------------------------------------------------------
      1          6           0       -0.716696    0.974194   -0.001533
      2          6           0       -1.107298   -0.366008   -0.010851
      3          8           0       -0.014993   -1.126145    0.021393
      4          6           0        1.125713   -0.343801   -0.025532
      5          6           0        0.713331    0.902906    0.003358
      6          1           0        1.455381    1.817331    0.048706
      7          1           0        2.036707   -0.850826   -0.004192
      8          1           0       -2.092884   -0.817018   -0.011359
      9          1           0       -1.369558    1.855927    0.003043
 ---------------------------------------------------------------------

 SCF Done:  E(RAM1) =   1.71610998511     A.U. after   13 cycles

 Excitation energies and oscillator strengths:

 Excited State   1:      Singlet-A      5.4316 eV  228.26 nm  f=0.3595  <S**2>=0.000
      13 -> 14         0.69345
 This state for optimization and/or second-order correction.
 Total Energy, E(CIS) =   1.91571805732
 Copying the excited state density for this state as the 1-particle RhoCI density.

 Excited State   2:      Singlet-A      6.9118 eV  179.38 nm  f=0.0015  <S**2>=0.000
      12 -> 14         0.69718

 Excited State   3:      Singlet-A      7.1266 eV  173.97 nm  f=0.0046  <S**2>=0.000
      13 -> 15         0.66354
      13 -> 17        -0.14243
      13 -> 19         0.13315

 Excited State   4:      Singlet-A      7.5457 eV  164.31 nm  f=0.0019  <S**2>=0.000
      10 -> 16         0.10128
      13 -> 16         0.66402
      13 -> 18        -0.10561
      13 -> 19        -0.13675

 Excited State   5:      Singlet-A      7.9376 eV  156.20 nm  f=0.0055  <S**2>=0.000
      11 -> 14         0.69648

 Excited State   6:      Singlet-A      8.7045 eV  142.44 nm  f=0.0003  <S**2>=0.000
      13 -> 15         0.11770
      13 -> 17         0.52307
      13 -> 18        -0.34527
      13 -> 19        -0.13955
      13 -> 21         0.24002

 Excited State   7:      Singlet-A      9.1885 eV  134.93 nm  f=0.0034  <S**2>=0.000
      10 -> 16         0.10261
      13 -> 16         0.12891
      13 -> 17         0.42151
      13 -> 18         0.48361
      13 -> 19         0.14723
      13 -> 21        -0.16215

 Excited State   8:      Singlet-A      9.4399 eV  131.34 nm  f=0.0636  <S**2>=0.000
      10 -> 14         0.64761
      12 -> 17         0.18465

 Excited State   9:      Singlet-A      9.6371 eV  128.65 nm  f=0.0047  <S**2>=0.000
      13 -> 15        -0.10914
      13 -> 18        -0.28495
      13 -> 19         0.59751
      13 -> 20         0.10389

 Excited State  10:      Singlet-A      9.8975 eV  125.27 nm  f=0.0994  <S**2>=0.000
      10 -> 14         0.19592
      11 -> 16        -0.19801
      11 -> 17         0.13122
      11 -> 18         0.19880
      12 -> 15         0.38805
      12 -> 17        -0.31917
      12 -> 18         0.17047

 Excited State  11:      Singlet-A     10.3226 eV  120.11 nm  f=0.1897  <S**2>=0.000
      12 -> 16         0.65665
      12 -> 17        -0.11232
      12 -> 19        -0.13368

 Excited State  12:      Singlet-A     10.4887 eV  118.21 nm  f=0.0308  <S**2>=0.000
      13 -> 18         0.18493
      13 -> 19         0.22169
      13 -> 20        -0.34833
      13 -> 21         0.52191

 Excited State  13:      Singlet-A     10.5510 eV  117.51 nm  f=0.1858  <S**2>=0.000
      10 -> 14        -0.12983
      11 -> 15         0.36444
      11 -> 17        -0.13811
      12 -> 15         0.43629
      12 -> 17         0.21283
      12 -> 18        -0.18794
      12 -> 19         0.12794

 Excited State  14:      Singlet-A     10.6935 eV  115.94 nm  f=0.0799  <S**2>=0.000
      13 -> 18         0.10844
      13 -> 20         0.58112
      13 -> 21         0.34484

 Excited State  15:      Singlet-A     10.8351 eV  114.43 nm  f=0.0681  <S**2>=0.000
       9 -> 15        -0.20066
      11 -> 15         0.45078
      11 -> 18        -0.19487
      11 -> 19         0.19105
      12 -> 17        -0.31403
      12 -> 19        -0.14624

 The electronic state is 1-A.
 Alpha  occ. eigenvalues --   -1.91554  -1.16834  -0.93254  -0.81998  -0.78257
 Alpha  occ. eigenvalues --   -0.69566  -0.68101  -0.58689  -0.55278  -0.47890
 Alpha  occ. eigenvalues --   -0.45116  -0.41657  -0.30815
 Alpha virt. eigenvalues --    0.10129   0.18528   0.20133   0.25378   0.27917
 Alpha virt. eigenvalues --    0.29222   0.32012   0.34131   0.34315   0.42352
 Alpha virt. eigenvalues --    0.47152

 Mulliken charges:
               1
     1  C   -0.222117
     2  C   -2.061660
     3  O    3.313024
     4  C   -2.003500
     5  C   -0.131586
     6  H    0.212868
     7  H    0.327178
     8  H    0.349139
     9  H    0.216655
 Sum of Mulliken charges =   0.00000

 Dipole moment (field-independent basis, Debye):
    X=             -0.0757    Y=            -10.0777    Z=              0.6410  Tot=             10.0983
 N-N= 1.037893756421D+02 E-N=-1.690942050414D+02  KE=-1.547213848820D+01
 Orbital energies and kinetic energies (alpha):
                                 1                 2
   1         O                -1.915538         -1.380937
   2         O                -1.168339         -1.029853
   3         O                -0.932542         -0.883592
   4         O                -0.819980         -0.567533
   5         O                -0.782574         -0.704650
   6         O                -0.695662         -0.575204
   7         O                -0.681008         -0.539481

 Normal termination of Gaussian 09 at Tue Dec 15 17:09:36 2015.
