 Gaussian 09, Revision D.01,
 Gaussian 09:  ES64L-G09RevD.01 24-Apr-2013

 ------------------------------------------------------------
 #P AM1(Input,print) CIS(Singlets,NStates=15) pop(full) force
 ------------------------------------------------------------

 -----------------
 AM1-Reparam Input
 -----------------
 Symbolic Z-matrix:
 Charge =  0 Multiplicity = 1

                         Standard orientation:
 ---------------------------------------------------------------------
 Center     Atomic      Atomic             Coordinates (Angstroms)
 Number     Number       Type             X           Y           Z
 ---------------------------------------------------------------------
      1          6           0       -1.158379    0.268987    0.024399
      2          6           0       -0.594766   -0.916088    0.019218
      3          8           0        0.769663   -0.928633   -0.014536
      4          6           0        1.047387    0.466421   -0.002715
      5          6           0       -0.099143    1.174056   -0.022885
      6          1           0       -0.130116    2.278516    0.031869
      7          1           0        2.082167    0.677807    0.071047
      8          1           0       -1.035090   -1.957870   -0.020945
      9          1           0       -2.244857    0.470356   -0.073788
 ---------------------------------------------------------------------

 SCF Done:  E(RAM1) =   2.09342655275     A.U. after   14 cycles

 Excitation energies and oscillator strengths:

 Excited State   1:      Singlet-A      5.4621 eV  226.99 nm  f=0.3219  <S**2>=0.000
      13 -> 14         0.69240
 This state for optimization and/or second-order correction.
 Total Energy, E(CIS) =   2.29415585204
 Copying the excited state density for this state as the 1-particle RhoCI density.

 Excited State   2:      Singlet-A      6.3781 eV  194.39 nm  f=0.0031  <S**2>=0.000
      10 -> 15         0.11787
      13 -> 15         0.66490
      13 -> 17         0.15667
      13 -> 18         0.11473

 Excited State   3:      Singlet-A      6.9484 eV  178.44 nm  f=0.0014  <S**2>=0.000
      12 -> 14         0.66549
      13 -> 16        -0.18932

 Excited State   4:      Singlet-A      7.0394 eV  176.13 nm  f=0.0056  <S**2>=0.000
      10 -> 16        -0.10686
      12 -> 14         0.21332
      13 -> 16         0.61376
      13 -> 17         0.12419
      13 -> 18        -0.19719

 Excited State   5:      Singlet-A      7.6891 eV  161.25 nm  f=0.0090  <S**2>=0.000
      11 -> 14         0.69381

 Excited State   6:      Singlet-A      8.0436 eV  154.14 nm  f=0.0065  <S**2>=0.000
      13 -> 15        -0.14649
      13 -> 17         0.39636
      13 -> 18         0.39001
      13 -> 19        -0.13813
      13 -> 21         0.34537

 Excited State   7:      Singlet-A      8.4186 eV  147.27 nm  f=0.0161  <S**2>=0.000
      10 -> 16         0.12964
      13 -> 16        -0.15655
      13 -> 17         0.51978
      13 -> 18        -0.20736
      13 -> 19         0.23402
      13 -> 21        -0.27396

 Excited State   8:      Singlet-A      8.8556 eV  140.01 nm  f=0.0802  <S**2>=0.000
      10 -> 14         0.67251
      13 -> 22        -0.10625

 Excited State   9:      Singlet-A      8.9404 eV  138.68 nm  f=0.0013  <S**2>=0.000
      10 -> 16        -0.10720
      13 -> 16         0.14434
      13 -> 17        -0.10732
      13 -> 18         0.38822
      13 -> 19         0.50779
      13 -> 21        -0.18318

 Excited State  10:      Singlet-A      9.3453 eV  132.67 nm  f=0.0296  <S**2>=0.000
       9 -> 15         0.19659
      11 -> 16         0.16079
      11 -> 17         0.19843
      12 -> 15         0.47617
      12 -> 16        -0.14847
      12 -> 17         0.12236
      12 -> 18         0.22165
      12 -> 21         0.11322

 Excited State  11:      Singlet-A      9.5010 eV  130.50 nm  f=0.0029  <S**2>=0.000
      13 -> 18        -0.28346
      13 -> 19         0.39478
      13 -> 21         0.49707

 Excited State  12:      Singlet-A      9.7952 eV  126.58 nm  f=0.1357  <S**2>=0.000
      10 -> 15        -0.15841
      11 -> 15        -0.37525
      11 -> 16        -0.10040
      11 -> 17        -0.19539
      12 -> 15         0.27258
      12 -> 19         0.12607
      13 -> 20         0.38238

 Excited State  13:      Singlet-A      9.8461 eV  125.92 nm  f=0.1081  <S**2>=0.000
      11 -> 15         0.27393
      11 -> 17         0.16153
      12 -> 15        -0.16190
      13 -> 20         0.56508

 Excited State  14:      Singlet-A      9.9990 eV  124.00 nm  f=0.0109  <S**2>=0.000
       7 -> 15        -0.13206
      10 -> 15         0.60179
      10 -> 16         0.10720
      10 -> 17         0.10679
      12 -> 15         0.12478
      13 -> 15        -0.13949

 Excited State  15:      Singlet-A     10.1255 eV  122.45 nm  f=0.1368  <S**2>=0.000
       9 -> 15        -0.10391
      11 -> 15        -0.13041
      11 -> 16         0.28754
      11 -> 18        -0.17687
      12 -> 16         0.47582
      12 -> 17         0.24960
      12 -> 19        -0.15877

 The electronic state is 1-A.
 Alpha  occ. eigenvalues --   -1.92772  -1.21119  -0.94112  -0.80825  -0.78772
 Alpha  occ. eigenvalues --   -0.67784  -0.64233  -0.53513  -0.51466  -0.42499
 Alpha  occ. eigenvalues --   -0.41476  -0.39464  -0.27756
 Alpha virt. eigenvalues --    0.13463   0.18151   0.21750   0.27045   0.29054
 Alpha virt. eigenvalues --    0.30518   0.32081   0.32809   0.33919   0.43835
 Alpha virt. eigenvalues --    0.46444

 Mulliken charges:
               1
     1  C   -0.230935
     2  C   -1.975883
     3  O    3.162882
     4  C   -1.969973
     5  C   -0.183983
     6  H    0.246009
     7  H    0.340922
     8  H    0.361467
     9  H    0.249495
 Sum of Mulliken charges =   0.00000

 Dipole moment (field-independent basis, Debye):
    X=              6.7817    Y=             -9.2677    Z=             -0.2919  Tot=             11.4877
 N-N= 1.042727459655D+02 E-N=-1.697663983071D+02  KE=-1.547640612016D+01
 Orbital energies and kinetic energies (alpha):
                                 1                 2
   1         O                -1.927716         -1.362500
   2         O                -1.211193         -1.093334
   3         O                -0.941123         -0.882267
   4         O                -0.808247         -0.585187
   5         O                -0.787724         -0.667343
   6         O                -0.677845         -0.572466
   7         O                -0.642333         -0.528816

 Normal termination of Gaussian 09 at Tue Dec 15 17:07:21 2015.
