 Gaussian 09, Revision D.01,
 Gaussian 09:  ES64L-G09RevD.01 24-Apr-2013

 ------------------------------------------------------------
 #P AM1(Input,print) CIS(Singlets,NStates=15) pop(full) force
 ------------------------------------------------------------

 -----------------
 AM1-Reparam Input
 -----------------
 Symbolic Z-matrix:
 Charge =  0 Multiplicity = 1

                         Standard orientation:
 ---------------------------------------------------------------------
 Center     Atomic      Atomic             Coordinates (Angstroms)
 Number     Number       Type             X           Y           Z
 ---------------------------------------------------------------------
      1          6           0       -0.649419    0.961871   -0.002631
      2          6           0       -1.095568   -0.246318    0.001723
      3          8           0       -0.104229   -1.154401    0.000617
      4          6           0        1.085947   -0.418762   -0.000511
      5          6           0        0.768999    0.916622    0.000003
      6          1           0        1.440928    1.691179    0.031100
      7          1           0        2.021488   -0.928274   -0.019471
      8          1           0       -2.054341   -0.701881    0.012815
      9          1           0       -1.233998    1.893702   -0.020884
 ---------------------------------------------------------------------

 SCF Done:  E(RAM1) =   2.62673365726     A.U. after   13 cycles

 Excitation energies and oscillator strengths:

 Excited State   1:      Singlet-A      5.0593 eV  245.06 nm  f=0.3549  <S**2>=0.000
      13 -> 14         0.69904
 This state for optimization and/or second-order correction.
 Total Energy, E(CIS) =   2.81265776957
 Copying the excited state density for this state as the 1-particle RhoCI density.

 Excited State   2:      Singlet-A      6.0010 eV  206.61 nm  f=0.0005  <S**2>=0.000
      13 -> 15         0.66765
      13 -> 16        -0.10572
      13 -> 18         0.10606

 Excited State   3:      Singlet-A      6.5276 eV  189.94 nm  f=0.0030  <S**2>=0.000
      12 -> 14        -0.36596
      13 -> 16         0.57400

 Excited State   4:      Singlet-A      6.5375 eV  189.65 nm  f=0.0004  <S**2>=0.000
      12 -> 14         0.59423
      13 -> 16         0.33741

 Excited State   5:      Singlet-A      7.4372 eV  166.71 nm  f=0.0046  <S**2>=0.000
      10 -> 14         0.21786
      11 -> 14         0.66263

 Excited State   6:      Singlet-A      7.7692 eV  159.58 nm  f=0.0003  <S**2>=0.000
      13 -> 16         0.10357
      13 -> 17         0.66574
      13 -> 18         0.10410
      13 -> 21        -0.11517

 Excited State   7:      Singlet-A      8.5206 eV  145.51 nm  f=0.1145  <S**2>=0.000
      10 -> 14         0.65797
      11 -> 14        -0.21810

 Excited State   8:      Singlet-A      9.0906 eV  136.39 nm  f=0.0071  <S**2>=0.000
      10 -> 15        -0.22344
      13 -> 17        -0.11102
      13 -> 18         0.62475
      13 -> 19        -0.11152

 Excited State   9:      Singlet-A      9.1641 eV  135.29 nm  f=0.1083  <S**2>=0.000
       8 -> 15        -0.10703
      11 -> 18        -0.11510
      12 -> 15         0.54018
      12 -> 16        -0.22104
      12 -> 17         0.25503

 Excited State  10:      Singlet-A      9.4663 eV  130.97 nm  f=0.1066  <S**2>=0.000
       9 -> 15         0.12169
      11 -> 15         0.30529
      11 -> 16         0.13117
      11 -> 18         0.18370
      12 -> 15         0.37518
      12 -> 16         0.24695
      12 -> 17        -0.29848
      12 -> 18         0.10064

 Excited State  11:      Singlet-A      9.5699 eV  129.56 nm  f=0.0033  <S**2>=0.000
       7 -> 16         0.10141
      10 -> 16         0.31741
      11 -> 16        -0.15471
      13 -> 19         0.58658

 Excited State  12:      Singlet-A     10.0717 eV  123.10 nm  f=0.1690  <S**2>=0.000
      10 -> 15        -0.16005
      10 -> 16         0.13618
      11 -> 15        -0.10722
      11 -> 16         0.46557
      11 -> 19         0.14007
      12 -> 16        -0.36381
      12 -> 17        -0.17496

 Excited State  13:      Singlet-A     10.0828 eV  122.97 nm  f=0.0045  <S**2>=0.000
       7 -> 15        -0.14459
      10 -> 15         0.55906
      10 -> 16         0.11349
      11 -> 15        -0.24918
      13 -> 15        -0.13931
      13 -> 18         0.22349

 Excited State  14:      Singlet-A     10.3501 eV  119.79 nm  f=0.0064  <S**2>=0.000
       8 -> 15        -0.23707
       9 -> 16        -0.18533
      10 -> 15        -0.14012
      11 -> 15        -0.30244
      11 -> 17         0.19810
      11 -> 19         0.15573
      12 -> 16         0.35582
      12 -> 18        -0.14462

 Excited State  15:      Singlet-A     10.4725 eV  118.39 nm  f=0.0021  <S**2>=0.000
       9 -> 14        -0.19179
      10 -> 16         0.51471
      11 -> 16        -0.15534
      13 -> 16         0.14125
      13 -> 18        -0.13229
      13 -> 19        -0.30953

 The electronic state is 1-A.
 Alpha  occ. eigenvalues --   -1.84972  -1.13998  -0.88921  -0.79693  -0.75094
 Alpha  occ. eigenvalues --   -0.67289  -0.63805  -0.55490  -0.54826  -0.44759
 Alpha  occ. eigenvalues --   -0.44462  -0.41937  -0.29418
 Alpha virt. eigenvalues --    0.09322   0.16019   0.18568   0.25543   0.28255
 Alpha virt. eigenvalues --    0.30461   0.36616   0.41049   0.47629   0.55460
 Alpha virt. eigenvalues --    0.59149

 Mulliken charges:
               1
     1  C   -0.223148
     2  C   -1.967864
     3  O    3.435740
     4  C   -2.002249
     5  C   -0.165786
     6  H    0.181741
     7  H    0.272995
     8  H    0.266988
     9  H    0.201584
 Sum of Mulliken charges =   0.00000

 Dipole moment (field-independent basis, Debye):
    X=             -1.5573    Y=            -11.5752    Z=             -0.0050  Tot=             11.6795
 N-N= 1.043886928673D+02 E-N=-1.702228486322D+02  KE=-1.440779649167D+01
 Orbital energies and kinetic energies (alpha):
                                 1                 2
   1         O                -1.849722         -1.247010
   2         O                -1.139978         -0.978595
   3         O                -0.889205         -0.808394
   4         O                -0.796931         -0.533084
   5         O                -0.750942         -0.623122
   6         O                -0.672887         -0.548541
   7         O                -0.638047         -0.500807

 Normal termination of Gaussian 09 at Tue Dec 15 17:07:34 2015.
