 Gaussian 09, Revision D.01,
 Gaussian 09:  ES64L-G09RevD.01 24-Apr-2013

 ------------------------------------------------------------
 #P AM1(Input,print) CIS(Singlets,NStates=15) pop(full) force
 ------------------------------------------------------------

 -----------------
 AM1-Reparam Input
 -----------------
 Symbolic Z-matrix:
 Charge =  0 Multiplicity = 1

                         Standard orientation:
 ---------------------------------------------------------------------
 Center     Atomic      Atomic             Coordinates (Angstroms)
 Number     Number       Type             X           Y           Z
 ---------------------------------------------------------------------
      1          6           0        0.284427    1.155142   -0.014745
      2          6           0       -1.009958    0.597668   -0.004234
      3          8           0       -0.898506   -0.785851    0.003526
      4          6           0        0.448782   -1.041636    0.009463
      5          6           0        1.206793    0.132270   -0.010155
      6          1           0        2.319277    0.109767    0.026051
      7          1           0        0.757952   -2.073515   -0.015654
      8          1           0       -1.915603    0.955824    0.004693
      9          1           0        0.446161    2.234072    0.074725
 ---------------------------------------------------------------------

 SCF Done:  E(RAM1) =   2.02729984338     A.U. after   13 cycles

 Excitation energies and oscillator strengths:

 Excited State   1:      Singlet-A      5.7076 eV  217.23 nm  f=0.3125  <S**2>=0.000
      13 -> 14         0.68924
 This state for optimization and/or second-order correction.
 Total Energy, E(CIS) =   2.23705029405
 Copying the excited state density for this state as the 1-particle RhoCI density.

 Excited State   2:      Singlet-A      7.0344 eV  176.25 nm  f=0.0162  <S**2>=0.000
      12 -> 14        -0.11212
      13 -> 15         0.64198
      13 -> 16         0.14809
      13 -> 17         0.18946

 Excited State   3:      Singlet-A      7.1872 eV  172.51 nm  f=0.0028  <S**2>=0.000
      11 -> 14         0.15505
      12 -> 14         0.66897
      13 -> 15         0.10283

 Excited State   4:      Singlet-A      7.4697 eV  165.98 nm  f=0.0024  <S**2>=0.000
      13 -> 16         0.62936
      13 -> 18         0.21806

 Excited State   5:      Singlet-A      7.6501 eV  162.07 nm  f=0.0044  <S**2>=0.000
      10 -> 14        -0.46443
      11 -> 14         0.50264
      12 -> 14        -0.13835

 Excited State   6:      Singlet-A      8.5177 eV  145.56 nm  f=0.0009  <S**2>=0.000
      10 -> 15         0.10178
      13 -> 16        -0.13404
      13 -> 17        -0.20734
      13 -> 18         0.19471
      13 -> 19        -0.31217
      13 -> 20        -0.34700
      13 -> 21         0.37554

 Excited State   7:      Singlet-A      8.7469 eV  141.75 nm  f=0.1137  <S**2>=0.000
      10 -> 14         0.52086
      11 -> 14         0.45703

 Excited State   8:      Singlet-A      9.0755 eV  136.61 nm  f=0.0124  <S**2>=0.000
      10 -> 16         0.11510
      11 -> 16         0.11586
      13 -> 15        -0.13922
      13 -> 17         0.58261
      13 -> 19        -0.23448
      13 -> 21         0.16061

 Excited State   9:      Singlet-A      9.5049 eV  130.44 nm  f=0.0726  <S**2>=0.000
       9 -> 15         0.11024
      10 -> 15         0.12703
      10 -> 17         0.12880
      11 -> 15        -0.22622
      11 -> 16        -0.22459
      12 -> 15         0.35013
      12 -> 16         0.11136
      12 -> 17         0.15303
      12 -> 19         0.12991
      13 -> 14        -0.10347
      13 -> 18        -0.24554
      13 -> 19        -0.15304

 Excited State  10:      Singlet-A      9.5671 eV  129.59 nm  f=0.0163  <S**2>=0.000
      10 -> 15         0.23256
      10 -> 16         0.20475
      11 -> 17        -0.10131
      12 -> 15         0.16631
      12 -> 17         0.10818
      13 -> 17         0.11934
      13 -> 18         0.41415
      13 -> 19         0.32194

 Excited State  11:      Singlet-A      9.8109 eV  126.37 nm  f=0.0035  <S**2>=0.000
      13 -> 18        -0.33670
      13 -> 19         0.44713
      13 -> 20        -0.27787
      13 -> 21         0.31417

 Excited State  12:      Singlet-A     10.1372 eV  122.31 nm  f=0.0209  <S**2>=0.000
      10 -> 15        -0.26759
      10 -> 17        -0.12740
      11 -> 15         0.10258
      12 -> 15         0.15873
      12 -> 16         0.48579
      12 -> 18         0.17083
      13 -> 20         0.13699
      13 -> 21         0.17169

 Excited State  13:      Singlet-A     10.1982 eV  121.57 nm  f=0.0109  <S**2>=0.000
      10 -> 15         0.21034
      10 -> 16         0.16364
      11 -> 15         0.51668
      11 -> 17         0.14146
      13 -> 15        -0.10436
      13 -> 16         0.14297
      13 -> 18        -0.13302
      13 -> 21        -0.17388

 Excited State  14:      Singlet-A     10.2186 eV  121.33 nm  f=0.0712  <S**2>=0.000
      10 -> 15         0.18636
      11 -> 15         0.13174
      12 -> 16        -0.11016
      13 -> 18        -0.10630
      13 -> 20         0.47748
      13 -> 21         0.38685

 Excited State  15:      Singlet-A     10.3630 eV  119.64 nm  f=0.1653  <S**2>=0.000
      10 -> 15         0.39130
      11 -> 15        -0.21524
      11 -> 16         0.13071
      11 -> 18         0.10846
      12 -> 15        -0.23229
      12 -> 16         0.33552
      12 -> 17        -0.10492
      12 -> 18         0.15085

 The electronic state is 1-A.
 Alpha  occ. eigenvalues --   -1.92741  -1.19470  -0.94618  -0.81310  -0.79549
 Alpha  occ. eigenvalues --   -0.68531  -0.63873  -0.54768  -0.53831  -0.43355
 Alpha  occ. eigenvalues --   -0.43010  -0.41936  -0.30748
 Alpha virt. eigenvalues --    0.11676   0.19373   0.21471   0.25854   0.27934
 Alpha virt. eigenvalues --    0.29032   0.30296   0.30616   0.34771   0.43918
 Alpha virt. eigenvalues --    0.47939

 Mulliken charges:
               1
     1  C   -0.178484
     2  C   -2.015034
     3  O    3.185255
     4  C   -2.034766
     5  C   -0.182132
     6  H    0.256440
     7  H    0.369102
     8  H    0.344930
     9  H    0.254690
 Sum of Mulliken charges =   0.00000

 Dipole moment (field-independent basis, Debye):
    X=             -7.2428    Y=             -7.1862    Z=              0.1061  Tot=             10.2034
 N-N= 1.039236714801D+02 E-N=-1.689652473142D+02  KE=-1.547265598249D+01
 Orbital energies and kinetic energies (alpha):
                                 1                 2
   1         O                -1.927413         -1.365429
   2         O                -1.194704         -1.071847
   3         O                -0.946182         -0.865600
   4         O                -0.813099         -0.609211
   5         O                -0.795491         -0.677527
   6         O                -0.685309         -0.574862
   7         O                -0.638734         -0.516516

 Normal termination of Gaussian 09 at Tue Dec 15 17:07:22 2015.
