 Gaussian 09, Revision D.01,
 Gaussian 09:  ES64L-G09RevD.01 24-Apr-2013

 ------------------------------------------------------------
 #P AM1(Input,print) CIS(Singlets,NStates=15) pop(full) force
 ------------------------------------------------------------

 -----------------
 AM1-Reparam Input
 -----------------
 Symbolic Z-matrix:
 Charge =  0 Multiplicity = 1

                         Standard orientation:
 ---------------------------------------------------------------------
 Center     Atomic      Atomic             Coordinates (Angstroms)
 Number     Number       Type             X           Y           Z
 ---------------------------------------------------------------------
      1          6           0       -0.019172    1.188053   -0.031530
      2          6           0        1.098895    0.359700    0.031743
      3          8           0        0.727362   -0.947149    0.002160
      4          6           0       -0.659023   -0.891027   -0.032035
      5          6           0       -1.176731    0.335006    0.033046
      6          1           0       -2.218232    0.574251    0.032953
      7          1           0       -1.151457   -1.871327   -0.002203
      8          1           0        2.139430    0.634543   -0.023351
      9          1           0       -0.052447    2.289335   -0.032020
 ---------------------------------------------------------------------

 SCF Done:  E(RAM1) =   1.73047976950     A.U. after   14 cycles

 Excitation energies and oscillator strengths:

 Excited State   1:      Singlet-A      5.4056 eV  229.36 nm  f=0.3551  <S**2>=0.000
      13 -> 14         0.69426
 This state for optimization and/or second-order correction.
 Total Energy, E(CIS) =   1.92913139917
 Copying the excited state density for this state as the 1-particle RhoCI density.

 Excited State   2:      Singlet-A      6.9681 eV  177.93 nm  f=0.0016  <S**2>=0.000
      12 -> 14         0.52632
      13 -> 15         0.44679

 Excited State   3:      Singlet-A      6.9982 eV  177.16 nm  f=0.0008  <S**2>=0.000
      12 -> 14        -0.46434
      13 -> 15         0.50693

 Excited State   4:      Singlet-A      7.2209 eV  171.70 nm  f=0.0035  <S**2>=0.000
      10 -> 16        -0.10360
      13 -> 16         0.66928
      13 -> 17        -0.10450
      13 -> 18        -0.12252

 Excited State   5:      Singlet-A      8.0710 eV  153.62 nm  f=0.0097  <S**2>=0.000
      11 -> 14         0.69856

 Excited State   6:      Singlet-A      8.7650 eV  141.45 nm  f=0.0019  <S**2>=0.000
      13 -> 15        -0.11205
      13 -> 17        -0.37373
      13 -> 18         0.51497
      13 -> 22         0.22494

 Excited State   7:      Singlet-A      9.2068 eV  134.67 nm  f=0.0103  <S**2>=0.000
      10 -> 16        -0.11234
      13 -> 16         0.13363
      13 -> 17         0.56491
      13 -> 18         0.35246
      13 -> 22         0.10339

 Excited State   8:      Singlet-A      9.3155 eV  133.09 nm  f=0.0905  <S**2>=0.000
      10 -> 14         0.65630
      12 -> 15         0.15608
      13 -> 21         0.11002

 Excited State   9:      Singlet-A      9.6860 eV  128.00 nm  f=0.0019  <S**2>=0.000
      13 -> 18        -0.13396
      13 -> 19         0.67574

 Excited State  10:      Singlet-A      9.7882 eV  126.67 nm  f=0.0456  <S**2>=0.000
       8 -> 15         0.13734
       9 -> 16         0.10509
      10 -> 14        -0.15740
      11 -> 16         0.13615
      11 -> 17        -0.17213
      12 -> 15         0.47445
      12 -> 16        -0.20215
      12 -> 17        -0.12556
      12 -> 18         0.24920

 Excited State  11:      Singlet-A     10.3917 eV  119.31 nm  f=0.0337  <S**2>=0.000
      10 -> 14        -0.11173
      11 -> 15        -0.14298
      12 -> 15         0.29235
      12 -> 16         0.54326
      12 -> 18        -0.18214

 Excited State  12:      Singlet-A     10.4649 eV  118.48 nm  f=0.1845  <S**2>=0.000
      11 -> 15         0.12720
      11 -> 16         0.20764
      11 -> 17        -0.14106
      12 -> 15        -0.19558
      12 -> 16         0.24311
      12 -> 17        -0.18619
      12 -> 18         0.13887
      12 -> 19        -0.10574
      13 -> 18         0.12206
      13 -> 20         0.38293
      13 -> 22        -0.21311

 Excited State  13:      Singlet-A     10.5181 eV  117.88 nm  f=0.1351  <S**2>=0.000
      11 -> 15        -0.18425
      11 -> 16        -0.19416
      11 -> 17         0.15676
      12 -> 15         0.17510
      12 -> 16        -0.12849
      12 -> 17         0.13775
      12 -> 18        -0.16750
      13 -> 18         0.14376
      13 -> 20         0.40032
      13 -> 22        -0.26392

 Excited State  14:      Singlet-A     10.7739 eV  115.08 nm  f=0.0427  <S**2>=0.000
      10 -> 16        -0.10560
      13 -> 18        -0.17329
      13 -> 20         0.36395
      13 -> 22         0.54863

 Excited State  15:      Singlet-A     10.8760 eV  114.00 nm  f=0.0564  <S**2>=0.000
       8 -> 15         0.18857
       9 -> 16        -0.11753
      10 -> 14        -0.11214
      11 -> 15         0.45720
      11 -> 16        -0.11520
      11 -> 19         0.19489
      12 -> 17         0.17792
      13 -> 21         0.33225

 The electronic state is 1-A.
 Alpha  occ. eigenvalues --   -1.89590  -1.16810  -0.91104  -0.80821  -0.77747
 Alpha  occ. eigenvalues --   -0.69703  -0.66668  -0.54853  -0.54498  -0.45977
 Alpha  occ. eigenvalues --   -0.44393  -0.40897  -0.29334
 Alpha virt. eigenvalues --    0.11528   0.19007   0.19985   0.28173   0.29216
 Alpha virt. eigenvalues --    0.31052   0.33347   0.33647   0.36586   0.42816
 Alpha virt. eigenvalues --    0.45636

 Mulliken charges:
               1
     1  C   -0.187905
     2  C   -2.036459
     3  O    3.286412
     4  C   -1.999675
     5  C   -0.130064
     6  H    0.197960
     7  H    0.326838
     8  H    0.340431
     9  H    0.202461
 Sum of Mulliken charges =   0.00000

 Dipole moment (field-independent basis, Debye):
    X=              6.4878    Y=             -9.1466    Z=             -0.0092  Tot=             11.2140
 N-N= 1.034465500778D+02 E-N=-1.687285441286D+02  KE=-1.545573851881D+01
 Orbital energies and kinetic energies (alpha):
                                 1                 2
   1         O                -1.895899         -1.352584
   2         O                -1.168103         -1.059871
   3         O                -0.911037         -0.891276
   4         O                -0.808206         -0.558594
   5         O                -0.777467         -0.688469
   6         O                -0.697032         -0.586493
   7         O                -0.666679         -0.536136

 Normal termination of Gaussian 09 at Tue Dec 15 17:09:36 2015.
