 Gaussian 09, Revision D.01,
 Gaussian 09:  ES64L-G09RevD.01 24-Apr-2013

 ------------------------------------------------------------
 #P AM1(Input,print) CIS(Singlets,NStates=15) pop(full) force
 ------------------------------------------------------------

 -----------------
 AM1-Reparam Input
 -----------------
 Symbolic Z-matrix:
 Charge =  0 Multiplicity = 1

                         Standard orientation:
 ---------------------------------------------------------------------
 Center     Atomic      Atomic             Coordinates (Angstroms)
 Number     Number       Type             X           Y           Z
 ---------------------------------------------------------------------
      1          6           0       -1.137190    0.380335    0.010335
      2          6           0       -0.696027   -0.885175   -0.005211
      3          8           0        0.690219   -0.967181    0.003865
      4          6           0        1.061751    0.335255   -0.003555
      5          6           0        0.039693    1.178220   -0.013275
      6          1           0        0.091382    2.257813   -0.001811
      7          1           0        2.232895    0.449551    0.037523
      8          1           0       -1.277352   -1.790679   -0.025039
      9          1           0       -2.178041    0.768954    0.028640
 ---------------------------------------------------------------------

 SCF Done:  E(RAM1) =   1.81410224111     A.U. after   14 cycles

 Excitation energies and oscillator strengths:

 Excited State   1:      Singlet-A      5.4851 eV  226.04 nm  f=0.3481  <S**2>=0.000
      13 -> 14         0.69250
 This state for optimization and/or second-order correction.
 Total Energy, E(CIS) =   2.01567474926
 Copying the excited state density for this state as the 1-particle RhoCI density.

 Excited State   2:      Singlet-A      6.2297 eV  199.02 nm  f=0.0007  <S**2>=0.000
      10 -> 15         0.10202
      13 -> 15         0.68035
      13 -> 17        -0.12240

 Excited State   3:      Singlet-A      6.7694 eV  183.15 nm  f=0.0036  <S**2>=0.000
      13 -> 16         0.67484
      13 -> 18         0.12225

 Excited State   4:      Singlet-A      7.5285 eV  164.69 nm  f=0.0002  <S**2>=0.000
      12 -> 14         0.70056

 Excited State   5:      Singlet-A      8.1456 eV  152.21 nm  f=0.0007  <S**2>=0.000
      13 -> 17         0.32171
      13 -> 18         0.56237
      13 -> 21        -0.22880

 Excited State   6:      Singlet-A      8.3395 eV  148.67 nm  f=0.0082  <S**2>=0.000
      10 -> 14        -0.16175
      11 -> 14         0.66192
      13 -> 17        -0.11421
      13 -> 18         0.11216

 Excited State   7:      Singlet-A      8.7031 eV  142.46 nm  f=0.0081  <S**2>=0.000
      11 -> 14         0.15592
      13 -> 17         0.57749
      13 -> 18        -0.30571
      13 -> 19         0.10448

 Excited State   8:      Singlet-A      9.1470 eV  135.55 nm  f=0.0663  <S**2>=0.000
      10 -> 14         0.64077
      11 -> 14         0.15451
      12 -> 15         0.13719

 Excited State   9:      Singlet-A      9.4177 eV  131.65 nm  f=0.0001  <S**2>=0.000
      10 -> 16         0.10321
      13 -> 17        -0.11267
      13 -> 19         0.67400

 Excited State  10:      Singlet-A      9.5270 eV  130.14 nm  f=0.0594  <S**2>=0.000
       8 -> 15         0.12558
       9 -> 16         0.11974
      11 -> 16         0.10669
      11 -> 17        -0.16955
      12 -> 15         0.48258
      12 -> 16        -0.24224
      12 -> 17        -0.12144
      12 -> 18        -0.25388

 Excited State  11:      Singlet-A      9.9404 eV  124.73 nm  f=0.1292  <S**2>=0.000
      10 -> 14        -0.10637
      10 -> 15         0.13104
      11 -> 15        -0.33807
      11 -> 16        -0.11467
      11 -> 17         0.21325
      12 -> 15         0.39020
      12 -> 16         0.18213
      12 -> 18         0.24880

 Excited State  12:      Singlet-A     10.0878 eV  122.91 nm  f=0.0084  <S**2>=0.000
       7 -> 15        -0.12068
      10 -> 15         0.60988
      11 -> 15         0.23448
      13 -> 15        -0.12894

 Excited State  13:      Singlet-A     10.3690 eV  119.57 nm  f=0.0048  <S**2>=0.000
      13 -> 18         0.21837
      13 -> 20        -0.15228
      13 -> 21         0.63322

 Excited State  14:      Singlet-A     10.4132 eV  119.06 nm  f=0.1405  <S**2>=0.000
      10 -> 16         0.11694
      11 -> 16         0.30952
      12 -> 16         0.42780
      12 -> 18        -0.10702
      13 -> 20        -0.33775
      13 -> 21        -0.13023

 Excited State  15:      Singlet-A     10.4527 eV  118.62 nm  f=0.1337  <S**2>=0.000
      10 -> 16        -0.16869
      11 -> 16         0.15816
      12 -> 16         0.29871
      13 -> 20         0.54279
      13 -> 21         0.10665

 The electronic state is 1-A.
 Alpha  occ. eigenvalues --   -1.98627  -1.27899  -0.98864  -0.88565  -0.84357
 Alpha  occ. eigenvalues --   -0.75842  -0.74208  -0.61059  -0.60959  -0.51227
 Alpha  occ. eigenvalues --   -0.50870  -0.48423  -0.35372
 Alpha virt. eigenvalues --    0.05963   0.09605   0.12960   0.20499   0.21424
 Alpha virt. eigenvalues --    0.24025   0.26708   0.28703   0.29016   0.37821
 Alpha virt. eigenvalues --    0.41740

 Mulliken charges:
               1
     1  C   -0.107171
     2  C   -1.891332
     3  O    3.155263
     4  C   -1.871337
     5  C   -0.151684
     6  H    0.146753
     7  H    0.287770
     8  H    0.286104
     9  H    0.145634
 Sum of Mulliken charges =   0.00000

 Dipole moment (field-independent basis, Debye):
    X=              6.8043    Y=             -9.1311    Z=              0.1682  Tot=             11.3888
 N-N= 1.055269790275D+02 E-N=-1.706699767036D+02  KE=-1.563032992512D+01
 Orbital energies and kinetic energies (alpha):
                                 1                 2
   1         O                -1.986272         -1.368342
   2         O                -1.278992         -1.067427
   3         O                -0.988639         -0.890799
   4         O                -0.885646         -0.568553
   5         O                -0.843574         -0.688462
   6         O                -0.758419         -0.604242
   7         O                -0.742078         -0.550792

 Normal termination of Gaussian 09 at Tue Dec 15 17:09:05 2015.
