 Gaussian 09, Revision D.01,
 Gaussian 09:  ES64L-G09RevD.01 24-Apr-2013

 ------------------------------------------------------------
 #P AM1(Input,print) CIS(Singlets,NStates=15) pop(full) force
 ------------------------------------------------------------

 -----------------
 AM1-Reparam Input
 -----------------
 Symbolic Z-matrix:
 Charge =  0 Multiplicity = 1

                         Standard orientation:
 ---------------------------------------------------------------------
 Center     Atomic      Atomic             Coordinates (Angstroms)
 Number     Number       Type             X           Y           Z
 ---------------------------------------------------------------------
      1          6           0       -1.130919    0.287243   -0.029313
      2          6           0       -0.637332   -0.884118    0.006210
      3          8           0        0.735099   -0.927321   -0.005206
      4          6           0        1.033423    0.377811   -0.009964
      5          6           0       -0.047682    1.198774    0.038390
      6          1           0        0.041450    2.270713   -0.035986
      7          1           0        2.146735    0.537052   -0.008008
      8          1           0       -1.150029   -1.903191    0.061767
      9          1           0       -2.223890    0.635741   -0.008065
 ---------------------------------------------------------------------

 SCF Done:  E(RAM1) =   2.10303441917     A.U. after   13 cycles

 Excitation energies and oscillator strengths:

 Excited State   1:      Singlet-A      5.3876 eV  230.13 nm  f=0.3366  <S**2>=0.000
      13 -> 14         0.69467
 This state for optimization and/or second-order correction.
 Total Energy, E(CIS) =   2.30102501530
 Copying the excited state density for this state as the 1-particle RhoCI density.

 Excited State   2:      Singlet-A      6.3676 eV  194.71 nm  f=0.0010  <S**2>=0.000
      13 -> 15         0.64382
      13 -> 17        -0.19791
      13 -> 18        -0.12882

 Excited State   3:      Singlet-A      6.5222 eV  190.10 nm  f=0.0041  <S**2>=0.000
      10 -> 16         0.10298
      13 -> 16         0.66163
      13 -> 17        -0.11102
      13 -> 18         0.15270

 Excited State   4:      Singlet-A      6.7504 eV  183.67 nm  f=0.0011  <S**2>=0.000
      12 -> 14         0.69964

 Excited State   5:      Singlet-A      7.7541 eV  159.90 nm  f=0.0090  <S**2>=0.000
      11 -> 14         0.61948
      13 -> 15        -0.10626
      13 -> 17        -0.22669
      13 -> 18        -0.13058
      13 -> 21        -0.15437

 Excited State   6:      Singlet-A      7.8744 eV  157.45 nm  f=0.0002  <S**2>=0.000
      11 -> 14         0.32030
      13 -> 15         0.16303
      13 -> 17         0.35999
      13 -> 18         0.35350
      13 -> 21         0.29545

 Excited State   7:      Singlet-A      8.2024 eV  151.16 nm  f=0.0232  <S**2>=0.000
      13 -> 16         0.13486
      13 -> 17         0.50067
      13 -> 18        -0.36319
      13 -> 19        -0.12917
      13 -> 21        -0.22219

 Excited State   8:      Singlet-A      8.7196 eV  142.19 nm  f=0.0000  <S**2>=0.000
      13 -> 18        -0.29670
      13 -> 19         0.57660
      13 -> 20        -0.11353
      13 -> 21         0.20493

 Excited State   9:      Singlet-A      8.8594 eV  139.95 nm  f=0.0521  <S**2>=0.000
      10 -> 14         0.62890
      12 -> 16        -0.18583
      12 -> 17        -0.11134

 Excited State  10:      Singlet-A      9.2382 eV  134.21 nm  f=0.1178  <S**2>=0.000
       9 -> 15         0.13619
       9 -> 16         0.11787
      10 -> 14        -0.22462
      11 -> 16         0.11899
      11 -> 17        -0.13503
      11 -> 18         0.10349
      12 -> 15         0.41631
      12 -> 16        -0.28624
      12 -> 17        -0.15525
      12 -> 18        -0.20820

 Excited State  11:      Singlet-A      9.3414 eV  132.73 nm  f=0.0121  <S**2>=0.000
      13 -> 18        -0.29998
      13 -> 19        -0.35274
      13 -> 21         0.51415

 Excited State  12:      Singlet-A      9.6535 eV  128.43 nm  f=0.0884  <S**2>=0.000
      10 -> 14         0.10281
      11 -> 16         0.14732
      11 -> 18         0.12134
      12 -> 15         0.18572
      12 -> 16         0.55453
      12 -> 17        -0.16204
      13 -> 20         0.13188

 Excited State  13:      Singlet-A      9.7688 eV  126.92 nm  f=0.0650  <S**2>=0.000
      12 -> 15        -0.13138
      13 -> 20         0.65219
      13 -> 21         0.13488

 Excited State  14:      Singlet-A      9.9157 eV  125.04 nm  f=0.2018  <S**2>=0.000
      10 -> 14        -0.10915
      11 -> 15         0.40661
      11 -> 16         0.17501
      11 -> 17        -0.26414
      12 -> 15        -0.33204
      12 -> 19        -0.21183

 Excited State  15:      Singlet-A      9.9777 eV  124.26 nm  f=0.0010  <S**2>=0.000
       7 -> 15         0.11192
      10 -> 15         0.55401
      10 -> 16         0.17126
      11 -> 15         0.23304
      12 -> 17         0.12058
      13 -> 15         0.12875

 The electronic state is 1-A.
 Alpha  occ. eigenvalues --   -1.94315  -1.21464  -0.94518  -0.81664  -0.77785
 Alpha  occ. eigenvalues --   -0.67838  -0.65406  -0.52786  -0.51709  -0.43119
 Alpha  occ. eigenvalues --   -0.42069  -0.38949  -0.27516
 Alpha virt. eigenvalues --    0.13171   0.18455   0.18900   0.26581   0.28922
 Alpha virt. eigenvalues --    0.29763   0.32394   0.32637   0.36233   0.46024
 Alpha virt. eigenvalues --    0.48778

 Mulliken charges:
               1
     1  C   -0.175108
     2  C   -1.962516
     3  O    3.157180
     4  C   -1.987071
     5  C   -0.252352
     6  H    0.249392
     7  H    0.355073
     8  H    0.368874
     9  H    0.246528
 Sum of Mulliken charges =   0.00000

 Dipole moment (field-independent basis, Debye):
    X=              6.6275    Y=             -8.9733    Z=             -0.0038  Tot=             11.1555
 N-N= 1.047591817538D+02 E-N=-1.706289782698D+02  KE=-1.550053370141D+01
 Orbital energies and kinetic energies (alpha):
                                 1                 2
   1         O                -1.943155         -1.398492
   2         O                -1.214639         -1.091210
   3         O                -0.945182         -0.877809
   4         O                -0.816637         -0.589543
   5         O                -0.777849         -0.655384
   6         O                -0.678384         -0.564612
   7         O                -0.654060         -0.534701

 Normal termination of Gaussian 09 at Tue Dec 15 17:07:12 2015.
