 Gaussian 09, Revision D.01,
 Gaussian 09:  ES64L-G09RevD.01 24-Apr-2013

 ------------------------------------------------------------
 #P AM1(Input,print) CIS(Singlets,NStates=15) pop(full) force
 ------------------------------------------------------------

 -----------------
 AM1-Reparam Input
 -----------------
 Symbolic Z-matrix:
 Charge =  0 Multiplicity = 1

                         Standard orientation:
 ---------------------------------------------------------------------
 Center     Atomic      Atomic             Coordinates (Angstroms)
 Number     Number       Type             X           Y           Z
 ---------------------------------------------------------------------
      1          6           0       -1.020417    0.619512   -0.026118
      2          6           0       -0.891285   -0.654347    0.012216
      3          8           0        0.411707   -1.029125   -0.003098
      4          6           0        1.176884    0.035336   -0.000925
      5          6           0        0.295869    1.087925    0.013852
      6          1           0        0.646310    2.146935   -0.021383
      7          1           0        2.242712   -0.100238    0.002443
      8          1           0       -1.675040   -1.535533   -0.006018
      9          1           0       -1.873945    1.191277    0.055588
 ---------------------------------------------------------------------

 SCF Done:  E(RAM1) =   1.10079006538     A.U. after   14 cycles

 Excitation energies and oscillator strengths:

 Excited State   1:      Singlet-A      5.5521 eV  223.31 nm  f=0.1948  <S**2>=0.000
      12 -> 17        -0.12639
      13 -> 14         0.68026
 This state for optimization and/or second-order correction.
 Total Energy, E(CIS) =   1.30482523333
 Copying the excited state density for this state as the 1-particle RhoCI density.

 Excited State   2:      Singlet-A      6.4209 eV  193.09 nm  f=0.0043  <S**2>=0.000
      13 -> 15         0.62780
      13 -> 16         0.25822
      13 -> 19        -0.12878

 Excited State   3:      Singlet-A      6.8209 eV  181.77 nm  f=0.0001  <S**2>=0.000
      13 -> 15        -0.25216
      13 -> 16         0.61272
      13 -> 18         0.10353
      13 -> 21        -0.14921

 Excited State   4:      Singlet-A      7.1101 eV  174.38 nm  f=0.0000  <S**2>=0.000
       9 -> 14         0.15537
      11 -> 14         0.67652

 Excited State   5:      Singlet-A      7.1893 eV  172.46 nm  f=0.0069  <S**2>=0.000
      12 -> 14         0.39732
      13 -> 17         0.55866

 Excited State   6:      Singlet-A      7.9621 eV  155.72 nm  f=0.0052  <S**2>=0.000
       9 -> 14         0.10680
      10 -> 14         0.58974
      11 -> 17         0.14440
      13 -> 18         0.28163

 Excited State   7:      Singlet-A      8.0196 eV  154.60 nm  f=0.0013  <S**2>=0.000
      10 -> 14        -0.28782
      12 -> 15         0.11628
      13 -> 18         0.56904
      13 -> 19        -0.16823
      13 -> 22         0.11550
      13 -> 23        -0.10370

 Excited State   8:      Singlet-A      8.2370 eV  150.52 nm  f=0.2279  <S**2>=0.000
      10 -> 14        -0.10687
      12 -> 14         0.54242
      13 -> 17        -0.36604

 Excited State   9:      Singlet-A      8.4660 eV  146.45 nm  f=0.0192  <S**2>=0.000
       9 -> 17        -0.19437
      10 -> 14        -0.18496
      10 -> 17         0.15902
      11 -> 17         0.59974

 Excited State  10:      Singlet-A      8.5749 eV  144.59 nm  f=0.0010  <S**2>=0.000
      12 -> 15        -0.26627
      13 -> 20         0.60416
      13 -> 23         0.10788

 Excited State  11:      Singlet-A      8.6761 eV  142.90 nm  f=0.0019  <S**2>=0.000
      12 -> 15         0.46620
      12 -> 16         0.39511
      12 -> 20         0.10392
      13 -> 20         0.27059

 Excited State  12:      Singlet-A      8.7643 eV  141.47 nm  f=0.0478  <S**2>=0.000
       9 -> 15        -0.15885
       9 -> 16        -0.12666
      10 -> 16        -0.10802
      11 -> 15         0.42415
      11 -> 16         0.40960
      11 -> 20         0.12022
      13 -> 17        -0.11619

 Excited State  13:      Singlet-A      9.0220 eV  137.43 nm  f=0.0066  <S**2>=0.000
      12 -> 15        -0.31763
      12 -> 16         0.42169
      13 -> 19        -0.38772
      13 -> 21         0.14504

 Excited State  14:      Singlet-A      9.1750 eV  135.13 nm  f=0.1090  <S**2>=0.000
       8 -> 15         0.12255
       9 -> 15         0.15528
       9 -> 16        -0.18895
      10 -> 15        -0.14606
      10 -> 19         0.10454
      11 -> 15         0.13111
      11 -> 16        -0.13689
      11 -> 18        -0.19703
      12 -> 17         0.47011
      13 -> 14         0.13329

 Excited State  15:      Singlet-A      9.3285 eV  132.91 nm  f=0.0013  <S**2>=0.000
       9 -> 14         0.63605
      11 -> 14        -0.16048
      13 -> 21         0.12899

 The electronic state is 1-A.
 Alpha  occ. eigenvalues --   -1.86074  -1.21739  -1.00119  -0.88766  -0.80657
 Alpha  occ. eigenvalues --   -0.73674  -0.73410  -0.61683  -0.55332  -0.52176
 Alpha  occ. eigenvalues --   -0.48634  -0.48200  -0.38633
 Alpha virt. eigenvalues --    0.03709   0.09162   0.10378   0.10848   0.17465
 Alpha virt. eigenvalues --    0.18786   0.19837   0.21405   0.26824   0.28376
 Alpha virt. eigenvalues --    0.28871

 Mulliken charges:
               1
     1  C   -0.079973
     2  C   -1.284101
     3  O    2.163091
     4  C   -1.257047
     5  C   -0.216133
     6  H    0.129943
     7  H    0.207887
     8  H    0.230118
     9  H    0.106213
 Sum of Mulliken charges =   0.00000

 Dipole moment (field-independent basis, Debye):
    X=              2.1422    Y=             -6.6401    Z=             -0.0905  Tot=              6.9777
 N-N= 1.052759839436D+02 E-N=-1.727059974911D+02  KE=-1.506244213067D+01
 Orbital energies and kinetic energies (alpha):
                                 1                 2
   1         O                -1.860737         -1.284663
   2         O                -1.217394         -0.981960
   3         O                -1.001193         -0.810089
   4         O                -0.887658         -0.636001
   5         O                -0.806569         -0.663911
   6         O                -0.736736         -0.529619
   7         O                -0.734101         -0.593997

 Normal termination of Gaussian 09 at Tue Dec 15 17:05:35 2015.
