 Gaussian 09, Revision D.01,
 Gaussian 09:  ES64L-G09RevD.01 24-Apr-2013

 ------------------------------------------------------------
 #P AM1(Input,print) CIS(Singlets,NStates=15) pop(full) force
 ------------------------------------------------------------

 -----------------
 AM1-Reparam Input
 -----------------
 Symbolic Z-matrix:
 Charge =  0 Multiplicity = 1

                         Standard orientation:
 ---------------------------------------------------------------------
 Center     Atomic      Atomic             Coordinates (Angstroms)
 Number     Number       Type             X           Y           Z
 ---------------------------------------------------------------------
      1          6           0        0.757171    0.896867   -0.007864
      2          6           0        1.115852   -0.438017   -0.018797
      3          8           0       -0.113448   -1.144788    0.022470
      4          6           0       -1.135647   -0.256853   -0.027972
      5          6           0       -0.613125    0.984238    0.020463
      6          1           0       -1.228986    1.966866   -0.028794
      7          1           0       -2.111270   -0.674049    0.012461
      8          1           0        1.989501   -0.939612   -0.011258
      9          1           0        1.512834    1.687690    0.052856
 ---------------------------------------------------------------------

 SCF Done:  E(RAM1) =   1.79489917318     A.U. after   14 cycles

 Excitation energies and oscillator strengths:

 Excited State   1:      Singlet-A      5.6558 eV  219.22 nm  f=0.3101  <S**2>=0.000
      13 -> 14         0.68563
 This state for optimization and/or second-order correction.
 Total Energy, E(CIS) =   2.00274492797
 Copying the excited state density for this state as the 1-particle RhoCI density.

 Excited State   2:      Singlet-A      6.8838 eV  180.11 nm  f=0.0084  <S**2>=0.000
      13 -> 15         0.66276
      13 -> 16         0.15080

 Excited State   3:      Singlet-A      7.3475 eV  168.74 nm  f=0.0028  <S**2>=0.000
      13 -> 15        -0.12963
      13 -> 16         0.65816
      13 -> 19         0.13648

 Excited State   4:      Singlet-A      7.7305 eV  160.38 nm  f=0.0005  <S**2>=0.000
      11 -> 14         0.13916
      12 -> 14         0.68452

 Excited State   5:      Singlet-A      7.9715 eV  155.53 nm  f=0.0049  <S**2>=0.000
      11 -> 14         0.68213
      12 -> 14        -0.14259

 Excited State   6:      Singlet-A      8.4135 eV  147.36 nm  f=0.0004  <S**2>=0.000
      13 -> 17        -0.37092
      13 -> 18         0.52493
      13 -> 21         0.24361

 Excited State   7:      Singlet-A      9.1449 eV  135.58 nm  f=0.0974  <S**2>=0.000
      10 -> 14         0.67566
      11 -> 18        -0.10045

 Excited State   8:      Singlet-A      9.1694 eV  135.22 nm  f=0.0066  <S**2>=0.000
      10 -> 15         0.11221
      10 -> 16        -0.12896
      13 -> 15         0.10667
      13 -> 17         0.55352
      13 -> 18         0.34922

 Excited State   9:      Singlet-A      9.6870 eV  127.99 nm  f=0.2071  <S**2>=0.000
       9 -> 15         0.10530
      11 -> 15         0.33585
      11 -> 16         0.19869
      11 -> 17        -0.10691
      11 -> 18        -0.22404
      12 -> 15        -0.13850
      12 -> 16        -0.23795
      12 -> 17         0.28402
      12 -> 18        -0.18733
      13 -> 14        -0.14632

 Excited State  10:      Singlet-A      9.9535 eV  124.56 nm  f=0.0002  <S**2>=0.000
      10 -> 15         0.16309
      10 -> 16         0.17653
      13 -> 18        -0.15009
      13 -> 19         0.60257
      13 -> 21         0.15922

 Excited State  11:      Singlet-A     10.1464 eV  122.19 nm  f=0.0489  <S**2>=0.000
      11 -> 16         0.12897
      12 -> 15         0.63857
      12 -> 16        -0.11341
      12 -> 18        -0.14932
      12 -> 19        -0.11539

 Excited State  12:      Singlet-A     10.4263 eV  118.92 nm  f=0.0321  <S**2>=0.000
      13 -> 17         0.11088
      13 -> 18        -0.20148
      13 -> 19        -0.21117
      13 -> 20        -0.38395
      13 -> 21         0.48118

 Excited State  13:      Singlet-A     10.5332 eV  117.71 nm  f=0.1042  <S**2>=0.000
      10 -> 15        -0.29374
      11 -> 16         0.48091
      11 -> 19         0.13362
      12 -> 16         0.25418
      12 -> 17        -0.13481
      13 -> 19         0.12833

 Excited State  14:      Singlet-A     10.5813 eV  117.17 nm  f=0.0297  <S**2>=0.000
      10 -> 15         0.53909
      11 -> 16         0.27149
      12 -> 16         0.15497
      13 -> 15        -0.11613
      13 -> 19        -0.14180

 Excited State  15:      Singlet-A     10.7780 eV  115.03 nm  f=0.0696  <S**2>=0.000
      10 -> 16        -0.27705
      13 -> 20         0.48487
      13 -> 21         0.40435

 The electronic state is 1-A.
 Alpha  occ. eigenvalues --   -1.98973  -1.27713  -1.01053  -0.88934  -0.86040
 Alpha  occ. eigenvalues --   -0.76490  -0.74368  -0.64936  -0.62419  -0.52108
 Alpha  occ. eigenvalues --   -0.50786  -0.50197  -0.37915
 Alpha virt. eigenvalues --    0.04610   0.11018   0.13536   0.19033   0.19726
 Alpha virt. eigenvalues --    0.23025   0.24988   0.26606   0.27796   0.35655
 Alpha virt. eigenvalues --    0.41252

 Mulliken charges:
               1
     1  C   -0.100619
     2  C   -1.899683
     3  O    3.190522
     4  C   -1.896142
     5  C   -0.174756
     6  H    0.177003
     7  H    0.280315
     8  H    0.264010
     9  H    0.159350
 Sum of Mulliken charges =   0.00000

 Dipole moment (field-independent basis, Debye):
    X=             -1.5376    Y=            -10.1320    Z=              0.7013  Tot=             10.2720
 N-N= 1.054763227209D+02 E-N=-1.702730625774D+02  KE=-1.565117135457D+01
 Orbital energies and kinetic energies (alpha):
                                 1                 2
   1         O                -1.989733         -1.362915
   2         O                -1.277126         -1.045069
   3         O                -1.010532         -0.884072
   4         O                -0.889341         -0.588433
   5         O                -0.860401         -0.707915
   6         O                -0.764904         -0.606485
   7         O                -0.743676         -0.549685

 Normal termination of Gaussian 09 at Tue Dec 15 17:09:03 2015.
