 Gaussian 09, Revision D.01,
 Gaussian 09:  ES64L-G09RevD.01 24-Apr-2013

 ------------------------------------------------------------
 #P AM1(Input,print) CIS(Singlets,NStates=15) pop(full) force
 ------------------------------------------------------------

 -----------------
 AM1-Reparam Input
 -----------------
 Symbolic Z-matrix:
 Charge =  0 Multiplicity = 1

                         Standard orientation:
 ---------------------------------------------------------------------
 Center     Atomic      Atomic             Coordinates (Angstroms)
 Number     Number       Type             X           Y           Z
 ---------------------------------------------------------------------
      1          6           0       -0.604638    1.068931   -0.015413
      2          6           0       -1.152340   -0.264023    0.032375
      3          8           0       -0.149541   -1.118586   -0.035039
      4          6           0        1.069541   -0.492961    0.036707
      5          6           0        0.853211    0.849429   -0.018215
      6          1           0        1.528250    1.653489    0.034645
      7          1           0        1.939498   -1.071980    0.000474
      8          1           0       -2.163899   -0.586992    0.032373
      9          1           0       -1.102162    1.985913    0.000107
 ---------------------------------------------------------------------

 SCF Done:  E(RAM1) =   1.69174455040     A.U. after   13 cycles

 Excitation energies and oscillator strengths:

 Excited State   1:      Singlet-A      5.3577 eV  231.42 nm  f=0.3925  <S**2>=0.000
      13 -> 14         0.69642
 This state for optimization and/or second-order correction.
 Total Energy, E(CIS) =   1.88863464418
 Copying the excited state density for this state as the 1-particle RhoCI density.

 Excited State   2:      Singlet-A      6.8230 eV  181.72 nm  f=0.0016  <S**2>=0.000
      12 -> 14         0.70102

 Excited State   3:      Singlet-A      7.2694 eV  170.56 nm  f=0.0067  <S**2>=0.000
      13 -> 15         0.66275
      13 -> 17        -0.20183

 Excited State   4:      Singlet-A      7.6394 eV  162.30 nm  f=0.0043  <S**2>=0.000
      13 -> 16         0.65165
      13 -> 18        -0.19830

 Excited State   5:      Singlet-A      8.0543 eV  153.94 nm  f=0.0053  <S**2>=0.000
      10 -> 14         0.11279
      11 -> 14         0.69183

 Excited State   6:      Singlet-A      8.7840 eV  141.15 nm  f=0.0002  <S**2>=0.000
      13 -> 15        -0.10354
      13 -> 16         0.16588
      13 -> 17        -0.41410
      13 -> 18         0.43451
      13 -> 19        -0.13149
      13 -> 21        -0.25673

 Excited State   7:      Singlet-A      9.1247 eV  135.88 nm  f=0.1201  <S**2>=0.000
      10 -> 14         0.67718
      11 -> 14        -0.11097

 Excited State   8:      Singlet-A      9.6046 eV  129.09 nm  f=0.0103  <S**2>=0.000
      10 -> 15        -0.10706
      13 -> 15         0.12542
      13 -> 17         0.48074
      13 -> 18         0.45566

 Excited State   9:      Singlet-A     10.0167 eV  123.78 nm  f=0.0437  <S**2>=0.000
      11 -> 15        -0.13884
      11 -> 16        -0.14192
      11 -> 18         0.16257
      12 -> 15         0.34901
      12 -> 16        -0.27044
      12 -> 17        -0.29398
      12 -> 18         0.24718
      12 -> 21        -0.10072

 Excited State  10:      Singlet-A     10.0323 eV  123.59 nm  f=0.0011  <S**2>=0.000
      13 -> 16         0.10645
      13 -> 19         0.66630

 Excited State  11:      Singlet-A     10.5946 eV  117.03 nm  f=0.0212  <S**2>=0.000
      12 -> 15        -0.14636
      13 -> 17        -0.15214
      13 -> 18         0.15287
      13 -> 20         0.41860
      13 -> 21         0.47036

 Excited State  12:      Singlet-A     10.6138 eV  116.81 nm  f=0.0072  <S**2>=0.000
      11 -> 15         0.21052
      11 -> 17        -0.10613
      12 -> 15         0.46103
      12 -> 16         0.36988
      12 -> 18        -0.15232
      13 -> 20         0.11136
      13 -> 21         0.13319

 Excited State  13:      Singlet-A     10.8034 eV  114.76 nm  f=0.0757  <S**2>=0.000
       9 -> 14         0.26573
      10 -> 15         0.10240
      13 -> 18        -0.12063
      13 -> 20         0.49285
      13 -> 21        -0.34855

 Excited State  14:      Singlet-A     10.8285 eV  114.50 nm  f=0.2312  <S**2>=0.000
       9 -> 14         0.20869
      11 -> 15        -0.33431
      11 -> 16        -0.15467
      11 -> 17         0.10835
      11 -> 18         0.12076
      12 -> 15        -0.15789
      12 -> 16         0.43926
      12 -> 19        -0.17713

 Excited State  15:      Singlet-A     10.9009 eV  113.74 nm  f=0.0322  <S**2>=0.000
       9 -> 14         0.59553
      11 -> 15         0.12307
      13 -> 20        -0.16265
      13 -> 21         0.23955

 The electronic state is 1-A.
 Alpha  occ. eigenvalues --   -1.91162  -1.15587  -0.92540  -0.82574  -0.78770
 Alpha  occ. eigenvalues --   -0.70690  -0.67521  -0.59235  -0.55803  -0.48000
 Alpha  occ. eigenvalues --   -0.47439  -0.43408  -0.31920
 Alpha virt. eigenvalues --    0.08206   0.18328   0.19708   0.26206   0.27305
 Alpha virt. eigenvalues --    0.29137   0.31207   0.32779   0.35127   0.42802
 Alpha virt. eigenvalues --    0.48151

 Mulliken charges:
               1
     1  C   -0.211498
     2  C   -2.074758
     3  O    3.315462
     4  C   -2.027287
     5  C   -0.115303
     6  H    0.210728
     7  H    0.337301
     8  H    0.349327
     9  H    0.216027
 Sum of Mulliken charges =   0.00000

 Dipole moment (field-independent basis, Debye):
    X=             -1.1461    Y=             -9.5211    Z=             -0.9889  Tot=              9.6407
 N-N= 1.035326568537D+02 E-N=-1.685212463123D+02  KE=-1.546762411528D+01
 Orbital energies and kinetic energies (alpha):
                                 1                 2
   1         O                -1.911625         -1.377606
   2         O                -1.155870         -1.026948
   3         O                -0.925403         -0.869504
   4         O                -0.825736         -0.578902
   5         O                -0.787700         -0.705960
   6         O                -0.706895         -0.598003
   7         O                -0.675205         -0.525956

 Normal termination of Gaussian 09 at Tue Dec 15 17:09:37 2015.
