 Gaussian 09, Revision D.01,
 Gaussian 09:  ES64L-G09RevD.01 24-Apr-2013

 ------------------------------------------------------------
 #P AM1(Input,print) CIS(Singlets,NStates=15) pop(full) force
 ------------------------------------------------------------

 -----------------
 AM1-Reparam Input
 -----------------
 Symbolic Z-matrix:
 Charge =  0 Multiplicity = 1

                         Standard orientation:
 ---------------------------------------------------------------------
 Center     Atomic      Atomic             Coordinates (Angstroms)
 Number     Number       Type             X           Y           Z
 ---------------------------------------------------------------------
      1          6           0       -0.885270    0.787392    0.015701
      2          6           0       -1.065905   -0.472591   -0.015346
      3          8           0        0.213108   -1.146504    0.022311
      4          6           0        1.169657   -0.156108   -0.021829
      5          6           0        0.536669    1.068398   -0.009674
      6          1           0        1.077165    1.969415    0.057703
      7          1           0        2.133243   -0.528447   -0.004625
      8          1           0       -1.874166   -1.175156   -0.029939
      9          1           0       -1.572016    1.543671   -0.014736
 ---------------------------------------------------------------------

 SCF Done:  E(RAM1) =  -5.73692403849     A.U. after   13 cycles

 Excitation energies and oscillator strengths:

 Excited State   1:      Singlet-A      6.3778 eV  194.40 nm  f=0.2972  <S**2>=0.000
      13 -> 14         0.65873
      13 -> 15         0.20718
 This state for optimization and/or second-order correction.
 Total Energy, E(CIS) =  -5.50254357726
 Copying the excited state density for this state as the 1-particle RhoCI density.

 Excited State   2:      Singlet-A      6.5559 eV  189.12 nm  f=0.0418  <S**2>=0.000
      13 -> 14        -0.20853
      13 -> 15         0.61110
      13 -> 16        -0.26580

 Excited State   3:      Singlet-A      7.6890 eV  161.25 nm  f=0.0908  <S**2>=0.000
      12 -> 14         0.18417
      13 -> 15         0.25591
      13 -> 16         0.60129
      13 -> 17         0.14438

 Excited State   4:      Singlet-A      7.8144 eV  158.66 nm  f=0.0051  <S**2>=0.000
      13 -> 16        -0.13528
      13 -> 17         0.66409

 Excited State   5:      Singlet-A      8.4289 eV  147.09 nm  f=0.0016  <S**2>=0.000
      11 -> 14         0.68798

 Excited State   6:      Singlet-A      9.2531 eV  133.99 nm  f=0.0126  <S**2>=0.000
      10 -> 14         0.65584
      12 -> 14        -0.16829

 Excited State   7:      Singlet-A      9.5190 eV  130.25 nm  f=0.0013  <S**2>=0.000
      10 -> 14         0.11097
      12 -> 15        -0.17827
      13 -> 18        -0.13983
      13 -> 19         0.30969
      13 -> 20         0.54134
      13 -> 22        -0.10289

 Excited State   8:      Singlet-A      9.6178 eV  128.91 nm  f=0.0210  <S**2>=0.000
      12 -> 15        -0.11303
      13 -> 18        -0.10507
      13 -> 19         0.54550
      13 -> 20        -0.39489

 Excited State   9:      Singlet-A      9.7546 eV  127.10 nm  f=0.3643  <S**2>=0.000
      10 -> 14         0.17951
      12 -> 14         0.62493
      13 -> 16        -0.15035

 Excited State  10:      Singlet-A      9.9819 eV  124.21 nm  f=0.0060  <S**2>=0.000
      12 -> 15         0.60448
      12 -> 16        -0.20928
      13 -> 18        -0.15884
      13 -> 19         0.14912
      13 -> 22        -0.12153

 Excited State  11:      Singlet-A     10.3119 eV  120.23 nm  f=0.0137  <S**2>=0.000
      12 -> 17         0.19529
      13 -> 18         0.61071
      13 -> 19         0.20515
      13 -> 22        -0.13707

 Excited State  12:      Singlet-A     10.6890 eV  115.99 nm  f=0.0439  <S**2>=0.000
      11 -> 15         0.43263
      11 -> 16         0.36960
      12 -> 15        -0.14336
      12 -> 16        -0.32511

 Excited State  13:      Singlet-A     10.8033 eV  114.77 nm  f=0.1190  <S**2>=0.000
      10 -> 15        -0.16352
      11 -> 15         0.22069
      11 -> 16         0.28585
      12 -> 15         0.19461
      12 -> 16         0.51224

 Excited State  14:      Singlet-A     10.8856 eV  113.90 nm  f=0.0127  <S**2>=0.000
      11 -> 16         0.11045
      12 -> 16         0.10403
      13 -> 21         0.58997
      13 -> 22        -0.29187

 Excited State  15:      Singlet-A     10.9443 eV  113.29 nm  f=0.1445  <S**2>=0.000
      10 -> 15         0.12483
      10 -> 17        -0.14151
      11 -> 15        -0.42273
      11 -> 16         0.46237
      13 -> 21        -0.12440

 The electronic state is 1-A.
 Alpha  occ. eigenvalues --   -4.06510  -1.44336  -1.10284  -1.06062  -1.01896
 Alpha  occ. eigenvalues --   -0.96465  -0.92238  -0.76055  -0.75481  -0.67257
 Alpha  occ. eigenvalues --   -0.64749  -0.63429  -0.50378
 Alpha virt. eigenvalues --   -0.08402  -0.02066  -0.01412   0.02422   0.08828
 Alpha virt. eigenvalues --    0.09455   0.09911   0.12055   0.15199   0.16725
 Alpha virt. eigenvalues --    0.16978

 Mulliken charges:
               1
     1  C   -0.387026
     2  C   -1.062577
     3  O    2.366752
     4  C   -1.089355
     5  C   -0.471571
     6  H    0.194725
     7  H    0.122274
     8  H    0.131602
     9  H    0.195175
 Sum of Mulliken charges =   0.00000

 Dipole moment (field-independent basis, Debye):
    X=              1.5383    Y=             -9.8846    Z=              0.4192  Tot=             10.0124
 N-N= 1.024364264544D+02 E-N=-1.633580306552D+02  KE=-2.388587623069D+01
 Orbital energies and kinetic energies (alpha):
                                 1                 2
   1         O                -4.065102         -3.241290
   2         O                -1.443356         -1.225043
   3         O                -1.102839         -1.009874
   4         O                -1.060619         -0.956431
   5         O                -1.018962         -0.789253
   6         O                -0.964648         -0.806441
   7         O                -0.922385         -0.777938

 Normal termination of Gaussian 09 at Fri Dec 11 13:41:31 2015.
