 Gaussian 09, Revision D.01,
 Gaussian 09:  ES64L-G09RevD.01 24-Apr-2013

 ------------------------------------------------------------
 #P AM1(Input,print) CIS(Singlets,NStates=15) pop(full) force
 ------------------------------------------------------------

 -----------------
 AM1-Reparam Input
 -----------------
 Symbolic Z-matrix:
 Charge =  0 Multiplicity = 1

                         Standard orientation:
 ---------------------------------------------------------------------
 Center     Atomic      Atomic             Coordinates (Angstroms)
 Number     Number       Type             X           Y           Z
 ---------------------------------------------------------------------
      1          6           0        0.225668    1.175268    0.009621
      2          6           0        1.134246    0.127333   -0.014697
      3          8           0        0.512387   -1.068016    0.009717
      4          6           0       -0.839463   -0.714196   -0.009019
      5          6           0       -1.062685    0.545460   -0.011297
      6          1           0       -1.968830    1.034051    0.041291
      7          1           0       -1.511663   -1.649770    0.015622
      8          1           0        2.190800    0.169636    0.015316
      9          1           0        0.443995    2.187015    0.002382
 ---------------------------------------------------------------------

 SCF Done:  E(RAM1) =  0.322671231199E-01 A.U. after   13 cycles

 Excitation energies and oscillator strengths:

 Excited State   1:      Singlet-A      4.4745 eV  277.09 nm  f=0.0878  <S**2>=0.000
      12 -> 15         0.18073
      13 -> 14         0.67402
 This state for optimization and/or second-order correction.
 Total Energy, E(CIS) =  0.196703759838
 Copying the excited state density for this state as the 1-particle RhoCI density.

 Excited State   2:      Singlet-A      5.1362 eV  241.39 nm  f=0.0003  <S**2>=0.000
      13 -> 16         0.67428

 Excited State   3:      Singlet-A      5.1968 eV  238.58 nm  f=0.0144  <S**2>=0.000
      12 -> 14        -0.37740
      13 -> 15         0.58672

 Excited State   4:      Singlet-A      5.7396 eV  216.01 nm  f=0.0008  <S**2>=0.000
      12 -> 18         0.13401
      12 -> 21        -0.10330
      13 -> 17        -0.17298
      13 -> 18         0.53113
      13 -> 21        -0.32380
      13 -> 23         0.14567

 Excited State   5:      Singlet-A      6.1597 eV  201.28 nm  f=0.0073  <S**2>=0.000
       7 -> 16        -0.17105
      12 -> 16         0.62910
      12 -> 21         0.14965

 Excited State   6:      Singlet-A      6.3429 eV  195.47 nm  f=0.3051  <S**2>=0.000
      12 -> 14         0.54617
      12 -> 15         0.16160
      13 -> 15         0.34225

 Excited State   7:      Singlet-A      6.3683 eV  194.69 nm  f=0.0043  <S**2>=0.000
      13 -> 17         0.56799
      13 -> 19         0.31428
      13 -> 20         0.11442
      13 -> 23         0.12598

 Excited State   8:      Singlet-A      6.4924 eV  190.97 nm  f=0.0012  <S**2>=0.000
      12 -> 16        -0.11036
      12 -> 18         0.14783
      12 -> 19        -0.20421
      12 -> 21         0.12733
      12 -> 23         0.14170
      12 -> 24         0.13610
      13 -> 17        -0.10711
      13 -> 18        -0.22034
      13 -> 19         0.36599
      13 -> 21        -0.31262
      13 -> 23        -0.18261

 Excited State   9:      Singlet-A      6.6579 eV  186.22 nm  f=0.1692  <S**2>=0.000
      12 -> 15         0.65040
      13 -> 14        -0.16508

 Excited State  10:      Singlet-A      7.0423 eV  176.06 nm  f=0.0015  <S**2>=0.000
      10 -> 14         0.46777
      10 -> 15         0.15905
      11 -> 15        -0.13663
      12 -> 17        -0.32759
      12 -> 18         0.11427
      13 -> 17         0.13533
      13 -> 19        -0.18005
      13 -> 21        -0.16521

 Excited State  11:      Singlet-A      7.0731 eV  175.29 nm  f=0.0007  <S**2>=0.000
      10 -> 14         0.39964
      10 -> 15         0.15673
      11 -> 14        -0.12000
      12 -> 17         0.37426
      12 -> 18        -0.11634
      12 -> 19         0.16614
      12 -> 20         0.10401
      13 -> 17        -0.10199
      13 -> 19         0.20369

 Excited State  12:      Singlet-A      7.4596 eV  166.21 nm  f=0.0049  <S**2>=0.000
      11 -> 14         0.33428
      11 -> 15        -0.30272
      12 -> 17         0.14811
      12 -> 18         0.15177
      12 -> 19        -0.17909
      12 -> 20         0.12083
      12 -> 21         0.13736
      12 -> 23         0.12660
      13 -> 19        -0.11131
      13 -> 20         0.27786
      13 -> 24        -0.21290

 Excited State  13:      Singlet-A      7.4942 eV  165.44 nm  f=0.0021  <S**2>=0.000
       9 -> 15         0.10250
      11 -> 14         0.38955
      11 -> 15        -0.12073
      12 -> 18        -0.23633
      12 -> 19         0.16586
      12 -> 21        -0.12285
      13 -> 18        -0.19284
      13 -> 20        -0.12333
      13 -> 21        -0.24798
      13 -> 22        -0.16211
      13 -> 24         0.16379

 Excited State  14:      Singlet-A      7.5209 eV  164.85 nm  f=0.0047  <S**2>=0.000
      10 -> 14         0.11089
      11 -> 14         0.25683
      12 -> 17        -0.12020
      12 -> 20        -0.18571
      13 -> 18         0.14685
      13 -> 19         0.26683
      13 -> 20        -0.26159
      13 -> 21         0.34764
      13 -> 22         0.14903
      13 -> 23        -0.12278

 Excited State  15:      Singlet-A      7.7137 eV  160.73 nm  f=0.0016  <S**2>=0.000
       8 -> 14         0.10622
       9 -> 14         0.34008
      11 -> 14         0.25169
      11 -> 15         0.39977
      13 -> 20         0.21067
      13 -> 23         0.22440

 The electronic state is 1-A.
 Alpha  occ. eigenvalues --   -1.57078  -1.25633  -1.09733  -0.82877  -0.81413
 Alpha  occ. eigenvalues --   -0.68676  -0.60210  -0.56218  -0.52393  -0.50282
 Alpha  occ. eigenvalues --   -0.49273  -0.40370  -0.34893
 Alpha virt. eigenvalues --    0.03094   0.06597   0.09911   0.13046   0.14636
 Alpha virt. eigenvalues --    0.15980   0.18219   0.18451   0.19125   0.20827
 Alpha virt. eigenvalues --    0.22054

 Mulliken charges:
               1
     1  C   -0.225050
     2  C   -0.094902
     3  O   -0.079711
     4  C   -0.105824
     5  C   -0.172143
     6  H    0.156228
     7  H    0.183957
     8  H    0.181221
     9  H    0.156223
 Sum of Mulliken charges =   0.00000

 Dipole moment (field-independent basis, Debye):
    X=             -0.2330    Y=              0.3065    Z=              0.0753  Tot=              0.3923
 N-N= 1.037314469709D+02 E-N=-1.714233055210D+02  KE=-1.659407900478D+01
 Orbital energies and kinetic energies (alpha):
                                 1                 2
   1         O                -1.570776         -1.322882
   2         O                -1.256332         -1.060868
   3         O                -1.097334         -0.958785
   4         O                -0.828769         -0.711077
   5         O                -0.814132         -0.719222
   6         O                -0.686761         -0.604668
   7         O                -0.602097         -0.487564

 Normal termination of Gaussian 09 at Tue Dec 15 16:13:00 2015.
