 Gaussian 09, Revision D.01,
 Gaussian 09:  ES64L-G09RevD.01 24-Apr-2013

 ------------------------------------------------------------
 #P AM1(Input,print) CIS(Singlets,NStates=15) pop(full) force
 ------------------------------------------------------------

 -----------------
 AM1-Reparam Input
 -----------------
 Symbolic Z-matrix:
 Charge =  0 Multiplicity = 1

                         Standard orientation:
 ---------------------------------------------------------------------
 Center     Atomic      Atomic             Coordinates (Angstroms)
 Number     Number       Type             X           Y           Z
 ---------------------------------------------------------------------
      1          6           0       -0.589631    1.054575   -0.016792
      2          6           0       -1.111765   -0.243624    0.022295
      3          8           0       -0.166484   -1.104616   -0.019738
      4          6           0        1.022811   -0.500155    0.018573
      5          6           0        0.862725    0.830863    0.001271
      6          1           0        1.536019    1.614345    0.031805
      7          1           0        1.917824   -1.073725   -0.032990
      8          1           0       -2.131600   -0.546810    0.034210
      9          1           0       -1.095214    1.993169   -0.027213
 ---------------------------------------------------------------------

 SCF Done:  E(RAM1) =   2.03189742406     A.U. after   13 cycles

 Excitation energies and oscillator strengths:

 Excited State   1:      Singlet-A      5.2877 eV  234.48 nm  f=0.3673  <S**2>=0.000
      13 -> 14         0.69714
 This state for optimization and/or second-order correction.
 Total Energy, E(CIS) =   2.22621661122
 Copying the excited state density for this state as the 1-particle RhoCI density.

 Excited State   2:      Singlet-A      6.5546 eV  189.16 nm  f=0.0004  <S**2>=0.000
      12 -> 14         0.69624

 Excited State   3:      Singlet-A      6.6689 eV  185.91 nm  f=0.0110  <S**2>=0.000
      13 -> 15         0.63863
      13 -> 16        -0.10528
      13 -> 17         0.24854

 Excited State   4:      Singlet-A      6.9795 eV  177.64 nm  f=0.0077  <S**2>=0.000
      13 -> 15         0.16456
      13 -> 16         0.59841
      13 -> 18        -0.31000

 Excited State   5:      Singlet-A      7.8187 eV  158.57 nm  f=0.0019  <S**2>=0.000
      10 -> 14         0.38487
      13 -> 16         0.21132
      13 -> 17         0.15247
      13 -> 18         0.33207
      13 -> 19         0.38621

 Excited State   6:      Singlet-A      7.8712 eV  157.52 nm  f=0.0044  <S**2>=0.000
      10 -> 14         0.58735
      13 -> 16        -0.15697
      13 -> 18        -0.23009
      13 -> 19        -0.23643

 Excited State   7:      Singlet-A      8.6241 eV  143.77 nm  f=0.1337  <S**2>=0.000
      11 -> 14         0.69251

 Excited State   8:      Singlet-A      8.9321 eV  138.81 nm  f=0.0141  <S**2>=0.000
      11 -> 15         0.13198
      11 -> 16        -0.10554
      13 -> 15        -0.18568
      13 -> 17         0.60092
      13 -> 18        -0.21428

 Excited State   9:      Singlet-A      9.2236 eV  134.42 nm  f=0.0029  <S**2>=0.000
      11 -> 16        -0.12663
      13 -> 16        -0.17858
      13 -> 18        -0.38249
      13 -> 19         0.52491

 Excited State  10:      Singlet-A      9.4589 eV  131.08 nm  f=0.0597  <S**2>=0.000
      10 -> 15        -0.18799
      10 -> 16        -0.10949
      10 -> 17        -0.11896
      10 -> 18         0.10970
      12 -> 15         0.25041
      12 -> 16        -0.30895
      12 -> 17         0.22057
      12 -> 18         0.34660
      12 -> 19         0.20613

 Excited State  11:      Singlet-A      9.7266 eV  127.47 nm  f=0.0109  <S**2>=0.000
      13 -> 17         0.10152
      13 -> 20         0.63417
      13 -> 21        -0.26808

 Excited State  12:      Singlet-A      9.9202 eV  124.98 nm  f=0.0063  <S**2>=0.000
      10 -> 15         0.21829
      10 -> 17         0.12090
      12 -> 15         0.55784
      12 -> 16         0.17642
      12 -> 17         0.15262
      12 -> 18        -0.16188

 Excited State  13:      Singlet-A      9.9842 eV  124.18 nm  f=0.0573  <S**2>=0.000
      13 -> 18        -0.11596
      13 -> 20         0.26488
      13 -> 21         0.62151

 Excited State  14:      Singlet-A     10.2125 eV  121.40 nm  f=0.1103  <S**2>=0.000
       9 -> 14         0.11305
      10 -> 15        -0.30793
      10 -> 17        -0.10771
      11 -> 15         0.40746
      12 -> 16         0.33218
      12 -> 19         0.10864

 Excited State  15:      Singlet-A     10.2630 eV  120.81 nm  f=0.0920  <S**2>=0.000
       9 -> 14         0.14078
      10 -> 15         0.21234
      10 -> 16         0.12744
      11 -> 15         0.45191
      12 -> 16        -0.34237
      12 -> 19        -0.14660

 The electronic state is 1-A.
 Alpha  occ. eigenvalues --   -1.96543  -1.19768  -0.97343  -0.83623  -0.78892
 Alpha  occ. eigenvalues --   -0.69727  -0.66821  -0.56819  -0.53855  -0.46379
 Alpha  occ. eigenvalues --   -0.45507  -0.42370  -0.30721
 Alpha virt. eigenvalues --    0.08975   0.17898   0.19401   0.24826   0.25818
 Alpha virt. eigenvalues --    0.27338   0.29483   0.29975   0.39230   0.47193
 Alpha virt. eigenvalues --    0.52863

 Mulliken charges:
               1
     1  C   -0.244252
     2  C   -2.053865
     3  O    3.188419
     4  C   -2.018206
     5  C   -0.161994
     6  H    0.253635
     7  H    0.383584
     8  H    0.391944
     9  H    0.260735
 Sum of Mulliken charges =   0.00000

 Dipole moment (field-independent basis, Debye):
    X=             -1.3362    Y=             -8.8363    Z=             -0.5960  Tot=              8.9566
 N-N= 1.050428831902D+02 E-N=-1.706944518514D+02  KE=-1.556017953309D+01
 Orbital energies and kinetic energies (alpha):
                                 1                 2
   1         O                -1.965425         -1.437478
   2         O                -1.197684         -1.056514
   3         O                -0.973427         -0.863857
   4         O                -0.836232         -0.610053
   5         O                -0.788921         -0.691386
   6         O                -0.697267         -0.568165
   7         O                -0.668212         -0.522706

 Normal termination of Gaussian 09 at Tue Dec 15 17:07:25 2015.
