 Gaussian 09, Revision D.01,
 Gaussian 09:  ES64L-G09RevD.01 24-Apr-2013

 ------------------------------------------------------------
 #P AM1(Input,print) CIS(Singlets,NStates=15) pop(full) force
 ------------------------------------------------------------

 -----------------
 AM1-Reparam Input
 -----------------
 Symbolic Z-matrix:
 Charge =  0 Multiplicity = 1

                         Standard orientation:
 ---------------------------------------------------------------------
 Center     Atomic      Atomic             Coordinates (Angstroms)
 Number     Number       Type             X           Y           Z
 ---------------------------------------------------------------------
      1          6           0        0.210344    1.215219    0.000537
      2          6           0        1.154654    0.153317    0.005513
      3          8           0        0.507579   -1.068729   -0.020091
      4          6           0       -0.798119   -0.745271    0.028571
      5          6           0       -1.090367    0.497913   -0.007144
      6          1           0       -2.018436    1.049665   -0.014923
      7          1           0       -1.467395   -1.591341   -0.012691
      8          1           0        2.158500    0.144025    0.042539
      9          1           0        0.407627    2.220422   -0.019058
 ---------------------------------------------------------------------

 SCF Done:  E(RAM1) =   1.42532559722     A.U. after   13 cycles

 Excitation energies and oscillator strengths:

 Excited State   1:      Singlet-A      5.7266 eV  216.50 nm  f=0.3018  <S**2>=0.000
      13 -> 14         0.68181
      13 -> 15         0.12051
 This state for optimization and/or second-order correction.
 Total Energy, E(CIS) =   1.63577510385
 Copying the excited state density for this state as the 1-particle RhoCI density.

 Excited State   2:      Singlet-A      5.7851 eV  214.32 nm  f=0.0115  <S**2>=0.000
      12 -> 15         0.10109
      13 -> 14        -0.12140
      13 -> 15         0.67293

 Excited State   3:      Singlet-A      6.6029 eV  187.77 nm  f=0.0013  <S**2>=0.000
      12 -> 16        -0.10633
      13 -> 16         0.63067
      13 -> 17        -0.20994
      13 -> 20        -0.14928
      13 -> 21         0.10362

 Excited State   4:      Singlet-A      7.1036 eV  174.54 nm  f=0.0002  <S**2>=0.000
      11 -> 14         0.69459

 Excited State   5:      Singlet-A      7.7527 eV  159.92 nm  f=0.0001  <S**2>=0.000
      12 -> 16        -0.13126
      13 -> 16         0.20472
      13 -> 17         0.42601
      13 -> 19        -0.22991
      13 -> 21        -0.23270
      13 -> 22         0.36210

 Excited State   6:      Singlet-A      7.8155 eV  158.64 nm  f=0.0082  <S**2>=0.000
      13 -> 17         0.45484
      13 -> 18         0.12734
      13 -> 19         0.37592
      13 -> 21         0.21845
      13 -> 22        -0.21462

 Excited State   7:      Singlet-A      8.1958 eV  151.28 nm  f=0.0098  <S**2>=0.000
      11 -> 15        -0.11500
      12 -> 14         0.53454
      13 -> 18         0.42644

 Excited State   8:      Singlet-A      8.5051 eV  145.78 nm  f=0.0015  <S**2>=0.000
      10 -> 14         0.66403
      13 -> 17         0.11829
      13 -> 19        -0.12121
      13 -> 21         0.14021

 Excited State   9:      Singlet-A      8.5541 eV  144.94 nm  f=0.0027  <S**2>=0.000
      10 -> 14         0.17306
      12 -> 16        -0.13978
      13 -> 19         0.42375
      13 -> 20         0.33672
      13 -> 21        -0.35932

 Excited State  10:      Singlet-A      8.7397 eV  141.86 nm  f=0.0005  <S**2>=0.000
      13 -> 17        -0.11267
      13 -> 19         0.30709
      13 -> 20        -0.39399
      13 -> 22         0.45730

 Excited State  11:      Singlet-A      8.9935 eV  137.86 nm  f=0.0317  <S**2>=0.000
       7 -> 15        -0.10134
      11 -> 15         0.15897
      12 -> 15         0.56253
      13 -> 20         0.22563
      13 -> 21         0.10530
      13 -> 22         0.19009

 Excited State  12:      Singlet-A      9.0571 eV  136.89 nm  f=0.1272  <S**2>=0.000
      11 -> 15         0.15992
      12 -> 14        -0.30322
      12 -> 15        -0.25114
      12 -> 16        -0.12382
      13 -> 17        -0.11825
      13 -> 18         0.41122
      13 -> 20         0.13442
      13 -> 21         0.22193

 Excited State  13:      Singlet-A      9.1551 eV  135.43 nm  f=0.0936  <S**2>=0.000
       8 -> 15         0.10311
      11 -> 15        -0.33083
      12 -> 16        -0.17465
      13 -> 18        -0.19573
      13 -> 20         0.27707
      13 -> 21         0.36483
      13 -> 22         0.20327

 Excited State  14:      Singlet-A      9.2177 eV  134.51 nm  f=0.3031  <S**2>=0.000
       8 -> 15        -0.11663
       9 -> 15        -0.12835
      11 -> 15         0.44130
      12 -> 14         0.31554
      12 -> 15        -0.17732
      13 -> 18        -0.23886
      13 -> 20         0.10872
      13 -> 21         0.14624

 Excited State  15:      Singlet-A      9.6144 eV  128.96 nm  f=0.0028  <S**2>=0.000
      12 -> 15        -0.11893
      12 -> 16         0.60028
      13 -> 16         0.16267
      13 -> 20         0.19145
      13 -> 22         0.10034

 The electronic state is 1-A.
 Alpha  occ. eigenvalues --   -1.88981  -1.18483  -0.96161  -0.78726  -0.77542
 Alpha  occ. eigenvalues --   -0.68171  -0.61668  -0.48931  -0.47860  -0.41151
 Alpha  occ. eigenvalues --   -0.36818  -0.36654  -0.23530
 Alpha virt. eigenvalues --    0.17348   0.20437   0.24537   0.29888   0.30224
 Alpha virt. eigenvalues --    0.31980   0.33841   0.34364   0.35695   0.40953
 Alpha virt. eigenvalues --    0.45546

 Mulliken charges:
               1
     1  C   -0.087489
     2  C   -1.550140
     3  O    2.758563
     4  C   -1.497821
     5  C   -0.046006
     6  H    0.056513
     7  H    0.150029
     8  H    0.152481
     9  H    0.063869
 Sum of Mulliken charges =   0.00000

 Dipole moment (field-independent basis, Debye):
    X=              3.5307    Y=             -9.3090    Z=             -0.4361  Tot=              9.9656
 N-N= 1.036138488205D+02 E-N=-1.700074782224D+02  KE=-1.587601845099D+01
 Orbital energies and kinetic energies (alpha):
                                 1                 2
   1         O                -1.889813         -1.379166
   2         O                -1.184835         -1.078822
   3         O                -0.961611         -0.889463
   4         O                -0.787263         -0.625488
   5         O                -0.775419         -0.710444
   6         O                -0.681714         -0.623523
   7         O                -0.616676         -0.539418

 Normal termination of Gaussian 09 at Tue Dec 15 17:07:57 2015.
