 Gaussian 09, Revision D.01,
 Gaussian 09:  ES64L-G09RevD.01 24-Apr-2013

 ------------------------------------------------------------
 #P AM1(Input,print) CIS(Singlets,NStates=15) pop(full) force
 ------------------------------------------------------------

 -----------------
 AM1-Reparam Input
 -----------------
 Symbolic Z-matrix:
 Charge =  0 Multiplicity = 1

                         Standard orientation:
 ---------------------------------------------------------------------
 Center     Atomic      Atomic             Coordinates (Angstroms)
 Number     Number       Type             X           Y           Z
 ---------------------------------------------------------------------
      1          6           0       -0.255349    1.154326   -0.018917
      2          6           0       -1.171603    0.043826    0.001751
      3          8           0       -0.444608   -1.028435    0.007647
      4          6           0        0.888982   -0.700744   -0.033743
      5          6           0        0.990899    0.587051    0.036535
      6          1           0        1.995673    1.179372   -0.013098
      7          1           0        1.550679   -1.601472    0.026153
      8          1           0       -2.157597    0.016672    0.021472
      9          1           0       -0.549466    2.126148   -0.009459
 ---------------------------------------------------------------------

 SCF Done:  E(RAM1) =   2.06911128717     A.U. after   14 cycles

 Excitation energies and oscillator strengths:

 Excited State   1:      Singlet-A      5.6206 eV  220.59 nm  f=0.3250  <S**2>=0.000
      13 -> 14         0.69128
 This state for optimization and/or second-order correction.
 Total Energy, E(CIS) =   2.27566314258
 Copying the excited state density for this state as the 1-particle RhoCI density.

 Excited State   2:      Singlet-A      6.7581 eV  183.46 nm  f=0.0157  <S**2>=0.000
      13 -> 15         0.59057
      13 -> 16        -0.34360
      13 -> 17        -0.10954

 Excited State   3:      Singlet-A      6.9107 eV  179.41 nm  f=0.0010  <S**2>=0.000
      12 -> 14         0.68959

 Excited State   4:      Singlet-A      7.2308 eV  171.47 nm  f=0.0005  <S**2>=0.000
      10 -> 15         0.10858
      13 -> 15         0.32859
      13 -> 16         0.54487
      13 -> 18        -0.21879

 Excited State   5:      Singlet-A      7.6835 eV  161.36 nm  f=0.0063  <S**2>=0.000
      11 -> 14         0.68183

 Excited State   6:      Singlet-A      8.2238 eV  150.76 nm  f=0.0024  <S**2>=0.000
      13 -> 16         0.13528
      13 -> 18         0.46651
      13 -> 19         0.21161
      13 -> 20        -0.42374

 Excited State   7:      Singlet-A      8.8553 eV  140.01 nm  f=0.0424  <S**2>=0.000
      10 -> 14         0.61947
      11 -> 15         0.16161
      12 -> 16         0.13479
      12 -> 17         0.11171

 Excited State   8:      Singlet-A      8.9193 eV  139.01 nm  f=0.0129  <S**2>=0.000
      10 -> 14        -0.10811
      10 -> 16         0.13551
      13 -> 15         0.10865
      13 -> 16         0.12388
      13 -> 17         0.56274
      13 -> 18         0.18099
      13 -> 19        -0.28790

 Excited State   9:      Singlet-A      9.4962 eV  130.56 nm  f=0.2183  <S**2>=0.000
       9 -> 16         0.14310
      10 -> 14        -0.26728
      11 -> 15         0.34265
      11 -> 17        -0.13370
      11 -> 18        -0.16710
      12 -> 15        -0.26187
      12 -> 16         0.18728
      12 -> 17         0.15340
      12 -> 18        -0.17100
      13 -> 14         0.10391

 Excited State  10:      Singlet-A      9.5420 eV  129.93 nm  f=0.0022  <S**2>=0.000
      10 -> 15        -0.23449
      10 -> 16         0.15596
      13 -> 17         0.28570
      13 -> 18        -0.17567
      13 -> 19         0.48849
      13 -> 20        -0.10402

 Excited State  11:      Singlet-A      9.7448 eV  127.23 nm  f=0.0273  <S**2>=0.000
      11 -> 15        -0.14055
      11 -> 16         0.13032
      13 -> 18         0.37864
      13 -> 19         0.16007
      13 -> 20         0.48770
      13 -> 21         0.13038

 Excited State  12:      Singlet-A      9.8204 eV  126.25 nm  f=0.0106  <S**2>=0.000
      11 -> 15         0.24856
      11 -> 16        -0.28589
      12 -> 15         0.50517
      12 -> 17        -0.11430
      12 -> 18        -0.13991
      13 -> 19         0.10475
      13 -> 20         0.10908

 Excited State  13:      Singlet-A      9.9083 eV  125.13 nm  f=0.1735  <S**2>=0.000
      11 -> 15        -0.20235
      11 -> 16         0.27220
      11 -> 19         0.11163
      12 -> 15         0.22992
      12 -> 16         0.46679
      12 -> 18        -0.22111

 Excited State  14:      Singlet-A     10.2050 eV  121.49 nm  f=0.0078  <S**2>=0.000
       9 -> 15         0.13157
      10 -> 15         0.37035
      10 -> 16        -0.20240
      11 -> 16         0.12416
      11 -> 19         0.10178
      12 -> 16        -0.20659
      12 -> 17         0.20495
      12 -> 18        -0.10502
      12 -> 19        -0.23375
      13 -> 16        -0.10430
      13 -> 17         0.11841
      13 -> 19         0.13097
      13 -> 21         0.19801

 Excited State  15:      Singlet-A     10.2873 eV  120.52 nm  f=0.0218  <S**2>=0.000
       9 -> 15        -0.13527
      10 -> 15         0.28656
      10 -> 16        -0.14732
      11 -> 16        -0.11055
      12 -> 15        -0.10163
      12 -> 16         0.25436
      12 -> 17        -0.19682
      12 -> 18         0.12021
      12 -> 19         0.25750
      13 -> 21         0.33758

 The electronic state is 1-A.
 Alpha  occ. eigenvalues --   -1.96154  -1.22064  -0.97434  -0.83162  -0.79687
 Alpha  occ. eigenvalues --   -0.69203  -0.66799  -0.57003  -0.54292  -0.45290
 Alpha  occ. eigenvalues --   -0.44448  -0.41852  -0.31466
 Alpha virt. eigenvalues --    0.10677   0.18095   0.18977   0.24955   0.26799
 Alpha virt. eigenvalues --    0.26966   0.29307   0.31172   0.37338   0.45515
 Alpha virt. eigenvalues --    0.50998

 Mulliken charges:
               1
     1  C   -0.262505
     2  C   -2.070455
     3  O    3.195850
     4  C   -1.987425
     5  C   -0.145305
     6  H    0.268799
     7  H    0.365805
     8  H    0.374428
     9  H    0.260806
 Sum of Mulliken charges =   0.00000

 Dipole moment (field-independent basis, Debye):
    X=             -2.9233    Y=             -8.8163    Z=              0.4829  Tot=              9.3008
 N-N= 1.052076096239D+02 E-N=-1.709222809747D+02  KE=-1.557768096940D+01
 Orbital energies and kinetic energies (alpha):
                                 1                 2
   1         O                -1.961538         -1.424015
   2         O                -1.220642         -1.071832
   3         O                -0.974338         -0.868252
   4         O                -0.831618         -0.614353
   5         O                -0.796867         -0.682627
   6         O                -0.692028         -0.570061
   7         O                -0.667991         -0.531880

 Normal termination of Gaussian 09 at Tue Dec 15 17:07:20 2015.
