 Gaussian 09, Revision D.01,
 Gaussian 09:  ES64L-G09RevD.01 24-Apr-2013

 ------------------------------------------------------------
 #P AM1(Input,print) CIS(Singlets,NStates=15) pop(full) force
 ------------------------------------------------------------

 -----------------
 AM1-Reparam Input
 -----------------
 Symbolic Z-matrix:
 Charge =  0 Multiplicity = 1

                         Standard orientation:
 ---------------------------------------------------------------------
 Center     Atomic      Atomic             Coordinates (Angstroms)
 Number     Number       Type             X           Y           Z
 ---------------------------------------------------------------------
      1          6           0       -0.885270    0.787392    0.015701
      2          6           0       -1.065905   -0.472591   -0.015346
      3          8           0        0.213108   -1.146504    0.022311
      4          6           0        1.169657   -0.156108   -0.021829
      5          6           0        0.536669    1.068398   -0.009674
      6          1           0        1.077165    1.969415    0.057703
      7          1           0        2.133243   -0.528447   -0.004625
      8          1           0       -1.874166   -1.175156   -0.029939
      9          1           0       -1.572016    1.543671   -0.014736
 ---------------------------------------------------------------------

 SCF Done:  E(RAM1) =  -5.61943681787     A.U. after   15 cycles

 Excitation energies and oscillator strengths:

 Excited State   1:      Singlet-A      5.6194 eV  220.64 nm  f=0.0110  <S**2>=0.000
      13 -> 14         0.20216
      13 -> 15         0.27914
      13 -> 16         0.61346
 This state for optimization and/or second-order correction.
 Total Energy, E(CIS) =  -5.41292724356
 Copying the excited state density for this state as the 1-particle RhoCI density.

 Excited State   2:      Singlet-A      5.9089 eV  209.83 nm  f=0.2033  <S**2>=0.000
      10 -> 15         0.11752
      13 -> 14         0.65016
      13 -> 16        -0.23323

 Excited State   3:      Singlet-A      6.2522 eV  198.31 nm  f=0.2031  <S**2>=0.000
      10 -> 14        -0.14679
      13 -> 14        -0.11595
      13 -> 15         0.61903
      13 -> 16        -0.24692

 Excited State   4:      Singlet-A      7.5135 eV  165.01 nm  f=0.0009  <S**2>=0.000
      12 -> 14        -0.15544
      12 -> 15         0.64612
      12 -> 16        -0.19446

 Excited State   5:      Singlet-A      7.9366 eV  156.22 nm  f=0.0003  <S**2>=0.000
      13 -> 17         0.68138

 Excited State   6:      Singlet-A      8.3374 eV  148.71 nm  f=0.0015  <S**2>=0.000
      11 -> 14        -0.25577
      11 -> 15         0.51579
      11 -> 16        -0.14801
      12 -> 14         0.34377

 Excited State   7:      Singlet-A      8.6928 eV  142.63 nm  f=0.0068  <S**2>=0.000
      11 -> 15        -0.33531
      12 -> 14         0.57893
      12 -> 15         0.14584

 Excited State   8:      Singlet-A      8.9311 eV  138.82 nm  f=0.0299  <S**2>=0.000
      10 -> 14        -0.22604
      10 -> 16        -0.43567
      12 -> 15         0.11180
      12 -> 16         0.44338
      13 -> 19         0.14882

 Excited State   9:      Singlet-A      9.0051 eV  137.68 nm  f=0.0251  <S**2>=0.000
      10 -> 15         0.26941
      10 -> 16         0.38890
      11 -> 16        -0.14018
      12 -> 15         0.12189
      12 -> 16         0.44206
      13 -> 19        -0.16562

 Excited State  10:      Singlet-A      9.3020 eV  133.29 nm  f=0.1784  <S**2>=0.000
       8 -> 16         0.13089
      10 -> 14         0.55919
      10 -> 15         0.11577
      10 -> 16        -0.15164
      11 -> 16         0.13754
      12 -> 16         0.12278
      13 -> 15         0.12587
      13 -> 19         0.13847

 Excited State  11:      Singlet-A      9.4772 eV  130.82 nm  f=0.0126  <S**2>=0.000
      10 -> 16         0.17617
      11 -> 14         0.12362
      13 -> 18         0.26844
      13 -> 19         0.51138
      13 -> 20         0.23619
      13 -> 21        -0.14788

 Excited State  12:      Singlet-A      9.6027 eV  129.11 nm  f=0.0018  <S**2>=0.000
      10 -> 16        -0.13077
      13 -> 18         0.57782
      13 -> 19        -0.22467
      13 -> 20         0.11887
      13 -> 21         0.23494

 Excited State  13:      Singlet-A      9.6413 eV  128.60 nm  f=0.0082  <S**2>=0.000
       8 -> 14         0.11109
       9 -> 15         0.11441
      10 -> 15         0.13952
      11 -> 14         0.59737
      11 -> 15         0.23503

 Excited State  14:      Singlet-A      9.8216 eV  126.24 nm  f=0.0805  <S**2>=0.000
      10 -> 14        -0.26741
      10 -> 15         0.36520
      11 -> 14        -0.12696
      11 -> 16         0.40913
      11 -> 20         0.10963
      12 -> 17        -0.16420

 Excited State  15:      Singlet-A     10.1342 eV  122.34 nm  f=0.1239  <S**2>=0.000
      10 -> 15        -0.36462
      10 -> 16         0.24288
      11 -> 15         0.19626
      11 -> 16         0.41629
      12 -> 16         0.15218

 The electronic state is 1-A.
 Alpha  occ. eigenvalues --   -4.04670  -1.19596  -0.91067  -0.89571  -0.85895
 Alpha  occ. eigenvalues --   -0.80644  -0.73518  -0.61207  -0.60585  -0.50922
 Alpha  occ. eigenvalues --   -0.50051  -0.47494  -0.35700
 Alpha virt. eigenvalues --    0.07989   0.09698   0.10145   0.18486   0.23766
 Alpha virt. eigenvalues --    0.24751   0.28517   0.29904   0.32543   0.35028
 Alpha virt. eigenvalues --    0.36319

 Mulliken charges:
               1
     1  C   -0.078835
     2  C   -1.352362
     3  O    2.435932
     4  C   -1.389706
     5  C   -0.217397
     6  H    0.126585
     7  H    0.184296
     8  H    0.178933
     9  H    0.112553
 Sum of Mulliken charges =   0.00000

 Dipole moment (field-independent basis, Debye):
    X=              1.3633    Y=             -9.0184    Z=              0.4683  Tot=              9.1328
 N-N= 1.047295608926D+02 E-N=-1.722308015709D+02  KE=-2.344877537026D+01
 Orbital energies and kinetic energies (alpha):
                                 1                 2
   1         O                -4.046699         -3.398752
   2         O                -1.195960         -1.148706
   3         O                -0.910671         -0.907692
   4         O                -0.895714         -0.858015
   5         O                -0.858952         -0.861019
   6         O                -0.806439         -0.767239
   7         O                -0.735180         -0.739682

 Normal termination of Gaussian 09 at Fri Dec 11 13:41:19 2015.
