 Gaussian 09, Revision D.01,
 Gaussian 09:  ES64L-G09RevD.01 24-Apr-2013

 ------------------------------------------------------------
 #P AM1(Input,print) CIS(Singlets,NStates=15) pop(full) force
 ------------------------------------------------------------

 -----------------
 AM1-Reparam Input
 -----------------
 Symbolic Z-matrix:
 Charge =  0 Multiplicity = 1

                         Standard orientation:
 ---------------------------------------------------------------------
 Center     Atomic      Atomic             Coordinates (Angstroms)
 Number     Number       Type             X           Y           Z
 ---------------------------------------------------------------------
      1          6           0        0.406120    1.091959    0.018226
      2          6           0        1.107284   -0.035841   -0.014882
      3          8           0        0.368895   -1.105081    0.022608
      4          6           0       -1.010431   -0.604028   -0.009463
      5          6           0       -0.913724    0.696158   -0.028902
      6          1           0       -1.827221    1.383583    0.078202
      7          1           0       -1.730922   -1.319018   -0.010736
      8          1           0        2.231231   -0.249486   -0.051530
      9          1           0        0.840253    2.136077    0.013329
 ---------------------------------------------------------------------

 SCF Done:  E(RAM1) =   1.90890974099     A.U. after   14 cycles

 Excitation energies and oscillator strengths:

 Excited State   1:      Singlet-A      5.5706 eV  222.57 nm  f=0.0471  <S**2>=0.000
      13 -> 14         0.64347
      13 -> 15         0.22964
 This state for optimization and/or second-order correction.
 Total Energy, E(CIS) =   2.11362607470
 Copying the excited state density for this state as the 1-particle RhoCI density.

 Excited State   2:      Singlet-A      5.7298 eV  216.38 nm  f=0.2470  <S**2>=0.000
      13 -> 14        -0.23178
      13 -> 15         0.64541

 Excited State   3:      Singlet-A      6.7980 eV  182.38 nm  f=0.0015  <S**2>=0.000
      12 -> 14        -0.48695
      12 -> 15         0.49730

 Excited State   4:      Singlet-A      7.0332 eV  176.28 nm  f=0.0030  <S**2>=0.000
      10 -> 16        -0.10554
      13 -> 16         0.65350
      13 -> 17        -0.15361
      13 -> 20         0.10026

 Excited State   5:      Singlet-A      7.6342 eV  162.41 nm  f=0.0077  <S**2>=0.000
      11 -> 14         0.44901
      11 -> 15        -0.43851
      13 -> 16         0.10782
      13 -> 17         0.27151

 Excited State   6:      Singlet-A      7.7909 eV  159.14 nm  f=0.0038  <S**2>=0.000
      11 -> 14        -0.20540
      11 -> 15         0.21875
      13 -> 17         0.57892
      13 -> 18        -0.11738
      13 -> 19         0.16163

 Excited State   7:      Singlet-A      8.1438 eV  152.24 nm  f=0.0005  <S**2>=0.000
      13 -> 16         0.10757
      13 -> 17         0.12835
      13 -> 18         0.63931
      13 -> 22        -0.22188

 Excited State   8:      Singlet-A      8.4583 eV  146.58 nm  f=0.0243  <S**2>=0.000
      11 -> 14        -0.14960
      11 -> 15        -0.14499
      12 -> 14         0.41980
      12 -> 15         0.41794
      12 -> 17        -0.10902

 Excited State   9:      Singlet-A      8.8032 eV  140.84 nm  f=0.0728  <S**2>=0.000
      10 -> 14         0.19773
      10 -> 15        -0.20289
      11 -> 14         0.29400
      11 -> 15         0.29394
      11 -> 16         0.18896
      11 -> 17        -0.21403
      12 -> 17        -0.20759
      12 -> 18         0.21870

 Excited State  10:      Singlet-A      8.8710 eV  139.76 nm  f=0.0026  <S**2>=0.000
      13 -> 17        -0.16885
      13 -> 19         0.64195
      13 -> 20         0.12057

 Excited State  11:      Singlet-A      9.0756 eV  136.61 nm  f=0.0076  <S**2>=0.000
       9 -> 14        -0.18116
       9 -> 15        -0.16059
      10 -> 14         0.33360
      10 -> 15        -0.16082
      11 -> 14        -0.26545
      11 -> 15        -0.28780
      11 -> 19         0.13354
      12 -> 17        -0.22999
      12 -> 18         0.11411
      13 -> 21         0.10719

 Excited State  12:      Singlet-A      9.3517 eV  132.58 nm  f=0.0030  <S**2>=0.000
      10 -> 14         0.45063
      10 -> 15         0.45304

 Excited State  13:      Singlet-A      9.5161 eV  130.29 nm  f=0.2599  <S**2>=0.000
      10 -> 14        -0.22147
      10 -> 15         0.30802
      11 -> 16         0.17641
      11 -> 19         0.11968
      12 -> 16         0.37509
      12 -> 17        -0.17241
      12 -> 18         0.21751
      13 -> 21        -0.10086

 Excited State  14:      Singlet-A      9.6019 eV  129.12 nm  f=0.0413  <S**2>=0.000
      10 -> 15        -0.12313
      13 -> 18         0.20419
      13 -> 19        -0.17003
      13 -> 20         0.38389
      13 -> 22         0.49313

 Excited State  15:      Singlet-A      9.7150 eV  127.62 nm  f=0.0445  <S**2>=0.000
      10 -> 14         0.16222
      10 -> 15        -0.24188
      12 -> 14         0.11694
      12 -> 16         0.52583
      12 -> 18        -0.19921
      12 -> 20         0.14604

 The electronic state is 1-A.
 Alpha  occ. eigenvalues --   -1.94914  -1.23540  -0.98497  -0.81519  -0.79315
 Alpha  occ. eigenvalues --   -0.69711  -0.66412  -0.51829  -0.48444  -0.42152
 Alpha  occ. eigenvalues --   -0.38975  -0.36334  -0.26661
 Alpha virt. eigenvalues --    0.15638   0.15932   0.23224   0.26403   0.28459
 Alpha virt. eigenvalues --    0.31091   0.34126   0.34960   0.36759   0.44089
 Alpha virt. eigenvalues --    0.47995

 Mulliken charges:
               1
     1  C   -0.207090
     2  C   -1.914209
     3  O    3.120384
     4  C   -1.883191
     5  C    0.001656
     6  H    0.133893
     7  H    0.281736
     8  H    0.310096
     9  H    0.156725
 Sum of Mulliken charges =   0.00000

 Dipole moment (field-independent basis, Debye):
    X=              4.2392    Y=            -10.1735    Z=              0.4093  Tot=             11.0290
 N-N= 1.045003115644D+02 E-N=-1.703301275766D+02  KE=-1.568662758383D+01
 Orbital energies and kinetic energies (alpha):
                                 1                 2
   1         O                -1.949140         -1.413858
   2         O                -1.235405         -1.096744
   3         O                -0.984968         -0.918511
   4         O                -0.815188         -0.649637
   5         O                -0.793149         -0.651779
   6         O                -0.697111         -0.583330
   7         O                -0.664118         -0.570748

 Normal termination of Gaussian 09 at Tue Dec 15 17:10:00 2015.
