 Gaussian 09, Revision D.01,
 Gaussian 09:  ES64L-G09RevD.01 24-Apr-2013

 ------------------------------------------------------------
 #P AM1(Input,print) CIS(Singlets,NStates=15) pop(full) force
 ------------------------------------------------------------

 -----------------
 AM1-Reparam Input
 -----------------
 Symbolic Z-matrix:
 Charge =  0 Multiplicity = 1

                         Standard orientation:
 ---------------------------------------------------------------------
 Center     Atomic      Atomic             Coordinates (Angstroms)
 Number     Number       Type             X           Y           Z
 ---------------------------------------------------------------------
      1          6           0       -0.876845    0.810863    0.003037
      2          6           0       -1.038661   -0.488756    0.018427
      3          8           0        0.198093   -1.086035   -0.031322
      4          6           0        1.112108   -0.203469    0.036920
      5          6           0        0.596026    1.014068   -0.009220
      6          1           0        1.077561    1.972741   -0.017671
      7          1           0        2.108694   -0.511949   -0.013008
      8          1           0       -1.906568   -1.134547    0.030369
      9          1           0       -1.620199    1.565802   -0.044097
 ---------------------------------------------------------------------

 SCF Done:  E(RAM1) =   1.74753376979     A.U. after   13 cycles

 Excitation energies and oscillator strengths:

 Excited State   1:      Singlet-A      5.0529 eV  245.37 nm  f=0.3496  <S**2>=0.000
      13 -> 14         0.69630
 This state for optimization and/or second-order correction.
 Total Energy, E(CIS) =   1.93322518254
 Copying the excited state density for this state as the 1-particle RhoCI density.

 Excited State   2:      Singlet-A      5.8568 eV  211.69 nm  f=0.0042  <S**2>=0.000
      13 -> 15         0.66242
      13 -> 17         0.18215
      13 -> 18        -0.10742

 Excited State   3:      Singlet-A      6.3156 eV  196.31 nm  f=0.0027  <S**2>=0.000
      13 -> 16         0.60792
      13 -> 17         0.14538
      13 -> 18         0.24691
      13 -> 19         0.16586

 Excited State   4:      Singlet-A      6.6845 eV  185.48 nm  f=0.0000  <S**2>=0.000
      12 -> 14         0.67902
      13 -> 16        -0.10302
      13 -> 19         0.13267

 Excited State   5:      Singlet-A      7.0345 eV  176.25 nm  f=0.0003  <S**2>=0.000
      12 -> 14        -0.16364
      13 -> 16        -0.24458
      13 -> 18         0.28476
      13 -> 19         0.52364
      13 -> 20         0.17334

 Excited State   6:      Singlet-A      7.5240 eV  164.78 nm  f=0.0195  <S**2>=0.000
      13 -> 15        -0.18917
      13 -> 17         0.65048
      13 -> 19        -0.10134

 Excited State   7:      Singlet-A      8.1005 eV  153.06 nm  f=0.0007  <S**2>=0.000
      10 -> 14        -0.40282
      11 -> 14        -0.14992
      13 -> 16        -0.11406
      13 -> 18         0.43721
      13 -> 19        -0.20563
      13 -> 20        -0.23048

 Excited State   8:      Singlet-A      8.2348 eV  150.56 nm  f=0.0023  <S**2>=0.000
      10 -> 14         0.50435
      11 -> 14         0.18606
      13 -> 16        -0.10158
      13 -> 18         0.33244
      13 -> 19        -0.18458
      13 -> 20        -0.10568
      13 -> 21         0.18088

 Excited State   9:      Singlet-A      8.4089 eV  147.44 nm  f=0.0042  <S**2>=0.000
      13 -> 18         0.19129
      13 -> 19        -0.28490
      13 -> 20         0.45718
      13 -> 21        -0.39740

 Excited State  10:      Singlet-A      8.7091 eV  142.36 nm  f=0.0893  <S**2>=0.000
      10 -> 14        -0.24251
      11 -> 14         0.61362
      12 -> 15         0.10086
      12 -> 16         0.13000

 Excited State  11:      Singlet-A      8.7966 eV  140.95 nm  f=0.0830  <S**2>=0.000
      10 -> 14        -0.10681
      13 -> 20         0.43601
      13 -> 21         0.52485

 Excited State  12:      Singlet-A      9.1749 eV  135.13 nm  f=0.1158  <S**2>=0.000
       8 -> 15         0.11250
      10 -> 17        -0.16781
      12 -> 15         0.39267
      12 -> 16        -0.30059
      12 -> 18        -0.30521
      12 -> 19        -0.23142
      12 -> 20        -0.10869

 Excited State  13:      Singlet-A      9.5640 eV  129.64 nm  f=0.0531  <S**2>=0.000
      10 -> 15         0.16234
      10 -> 17         0.11648
      11 -> 14        -0.16749
      12 -> 15         0.49653
      12 -> 16         0.21175
      12 -> 17         0.17876
      12 -> 18         0.10086
      12 -> 19         0.20154
      12 -> 20         0.16450

 Excited State  14:      Singlet-A      9.8294 eV  126.14 nm  f=0.0071  <S**2>=0.000
       7 -> 15        -0.13384
      10 -> 15        -0.10264
      11 -> 15         0.61788
      11 -> 16         0.14731
      11 -> 17         0.13689
      12 -> 16        -0.10614

 Excited State  15:      Singlet-A      9.9302 eV  124.86 nm  f=0.1225  <S**2>=0.000
       8 -> 16        -0.16248
      10 -> 15        -0.14387
      10 -> 17        -0.10977
      11 -> 14        -0.10414
      11 -> 15         0.12508
      12 -> 16         0.48405
      12 -> 18        -0.15194
      12 -> 19        -0.25721
      12 -> 21         0.15213

 The electronic state is 1-A.
 Alpha  occ. eigenvalues --   -1.94552  -1.22467  -1.02754  -0.83751  -0.80285
 Alpha  occ. eigenvalues --   -0.69688  -0.65524  -0.55968  -0.51719  -0.45249
 Alpha  occ. eigenvalues --   -0.43951  -0.40346  -0.27322
 Alpha virt. eigenvalues --    0.11341   0.16916   0.18908   0.24794   0.27011
 Alpha virt. eigenvalues --    0.27366   0.28212   0.28753   0.38828   0.47098
 Alpha virt. eigenvalues --    0.52623

 Mulliken charges:
               1
     1  C   -0.080788
     2  C   -1.917315
     3  O    3.186413
     4  C   -1.944005
     5  C   -0.236995
     6  H    0.190599
     7  H    0.321931
     8  H    0.303206
     9  H    0.176953
 Sum of Mulliken charges =   0.00000

 Dipole moment (field-independent basis, Debye):
    X=              1.8124    Y=             -9.5597    Z=             -0.8754  Tot=              9.7693
 N-N= 1.049264074528D+02 E-N=-1.708617073566D+02  KE=-1.582451287864D+01
 Orbital energies and kinetic energies (alpha):
                                 1                 2
   1         O                -1.945523         -1.430485
   2         O                -1.224668         -1.087729
   3         O                -1.027538         -0.929744
   4         O                -0.837512         -0.635742
   5         O                -0.802851         -0.714961
   6         O                -0.696878         -0.565540
   7         O                -0.655239         -0.518561

 Normal termination of Gaussian 09 at Tue Dec 15 17:07:04 2015.
