 Gaussian 09, Revision D.01,
 Gaussian 09:  ES64L-G09RevD.01 24-Apr-2013

 ------------------------------------------------------------
 #P AM1(Input,print) CIS(Singlets,NStates=15) pop(full) force
 ------------------------------------------------------------

 -----------------
 AM1-Reparam Input
 -----------------
 Symbolic Z-matrix:
 Charge =  0 Multiplicity = 1

                         Standard orientation:
 ---------------------------------------------------------------------
 Center     Atomic      Atomic             Coordinates (Angstroms)
 Number     Number       Type             X           Y           Z
 ---------------------------------------------------------------------
      1          6           0        0.760338    0.887249   -0.009021
      2          6           0        1.077972   -0.418550    0.017701
      3          8           0       -0.077139   -1.163490   -0.014097
      4          6           0       -1.145988   -0.238772    0.027431
      5          6           0       -0.613710    0.982587   -0.024102
      6          1           0       -1.233499    1.867463    0.041784
      7          1           0       -2.067250   -0.683119   -0.020846
      8          1           0        1.969513   -0.900513   -0.005957
      9          1           0        1.476681    1.749002    0.025739
 ---------------------------------------------------------------------

 SCF Done:  E(RAM1) =   2.08541456165     A.U. after   13 cycles

 Excitation energies and oscillator strengths:

 Excited State   1:      Singlet-A      5.4912 eV  225.79 nm  f=0.3190  <S**2>=0.000
      13 -> 14         0.69143
 This state for optimization and/or second-order correction.
 Total Energy, E(CIS) =   2.28721199033
 Copying the excited state density for this state as the 1-particle RhoCI density.

 Excited State   2:      Singlet-A      6.9235 eV  179.08 nm  f=0.0142  <S**2>=0.000
      13 -> 15         0.66617
      13 -> 17         0.17548

 Excited State   3:      Singlet-A      6.9945 eV  177.26 nm  f=0.0011  <S**2>=0.000
      12 -> 14         0.68304
      13 -> 16         0.10985

 Excited State   4:      Singlet-A      7.1709 eV  172.90 nm  f=0.0013  <S**2>=0.000
      12 -> 14        -0.13140
      13 -> 16         0.62459
      13 -> 18         0.22478

 Excited State   5:      Singlet-A      7.5397 eV  164.44 nm  f=0.0055  <S**2>=0.000
      11 -> 14         0.69636

 Excited State   6:      Singlet-A      8.1528 eV  152.08 nm  f=0.0000  <S**2>=0.000
      13 -> 16        -0.16433
      13 -> 18         0.41264
      13 -> 19        -0.37741
      13 -> 20        -0.26127
      13 -> 21         0.26557

 Excited State   7:      Singlet-A      8.8518 eV  140.07 nm  f=0.0131  <S**2>=0.000
      10 -> 14        -0.10299
      10 -> 16         0.15900
      13 -> 15        -0.14044
      13 -> 17         0.64776

 Excited State   8:      Singlet-A      8.9296 eV  138.85 nm  f=0.1006  <S**2>=0.000
      10 -> 14         0.67677
      13 -> 17         0.10254

 Excited State   9:      Singlet-A      9.2417 eV  134.16 nm  f=0.0004  <S**2>=0.000
      10 -> 15         0.14131
      13 -> 16        -0.17137
      13 -> 18         0.33144
      13 -> 19         0.55946

 Excited State  10:      Singlet-A      9.5162 eV  130.29 nm  f=0.0453  <S**2>=0.000
       9 -> 16         0.10411
      11 -> 15         0.33464
      11 -> 16         0.15854
      11 -> 17         0.26351
      12 -> 15         0.18230
      12 -> 16        -0.17356
      12 -> 18        -0.29132
      12 -> 19         0.19278
      12 -> 20         0.11486
      13 -> 14         0.10159

 Excited State  11:      Singlet-A      9.6547 eV  128.42 nm  f=0.0154  <S**2>=0.000
      13 -> 18         0.36847
      13 -> 19        -0.15245
      13 -> 20         0.44539
      13 -> 21        -0.35472

 Excited State  12:      Singlet-A     10.0231 eV  123.70 nm  f=0.0678  <S**2>=0.000
      13 -> 20         0.43289
      13 -> 21         0.51257

 Excited State  13:      Singlet-A     10.0631 eV  123.21 nm  f=0.0177  <S**2>=0.000
      11 -> 15        -0.27050
      11 -> 16         0.26309
      11 -> 18         0.16391
      12 -> 15         0.47873
      12 -> 16         0.12412
      12 -> 17         0.17927
      13 -> 20         0.10932
      13 -> 21         0.11376

 Excited State  14:      Singlet-A     10.1430 eV  122.24 nm  f=0.2491  <S**2>=0.000
      11 -> 15         0.31504
      11 -> 16         0.10464
      12 -> 16         0.54351
      12 -> 18         0.18904
      12 -> 19         0.11008

 Excited State  15:      Singlet-A     10.4892 eV  118.20 nm  f=0.0215  <S**2>=0.000
       8 -> 16         0.15121
       9 -> 15         0.22900
      10 -> 14         0.10296
      11 -> 15        -0.12500
      11 -> 16         0.26535
      11 -> 19         0.33271
      12 -> 15        -0.26936
      12 -> 17         0.11956
      12 -> 19         0.14734
      12 -> 20         0.20469
      13 -> 22         0.15982

 The electronic state is 1-A.
 Alpha  occ. eigenvalues --   -1.93623  -1.21693  -0.96867  -0.81529  -0.80428
 Alpha  occ. eigenvalues --   -0.68994  -0.65031  -0.55579  -0.54018  -0.44086
 Alpha  occ. eigenvalues --   -0.42372  -0.41136  -0.29513
 Alpha virt. eigenvalues --    0.11934   0.20305   0.21298   0.26282   0.28045
 Alpha virt. eigenvalues --    0.28905   0.30637   0.31349   0.33557   0.42662
 Alpha virt. eigenvalues --    0.46809

 Mulliken charges:
               1
     1  C   -0.231982
     2  C   -2.010631
     3  O    3.192737
     4  C   -1.981157
     5  C   -0.201943
     6  H    0.260062
     7  H    0.345106
     8  H    0.365403
     9  H    0.262403
 Sum of Mulliken charges =   0.00000

 Dipole moment (field-independent basis, Debye):
    X=             -0.4916    Y=            -10.4118    Z=             -0.5478  Tot=             10.4378
 N-N= 1.046249098134D+02 E-N=-1.700471644678D+02  KE=-1.553443330718D+01
 Orbital energies and kinetic energies (alpha):
                                 1                 2
   1         O                -1.936230         -1.370516
   2         O                -1.216935         -1.079012
   3         O                -0.968670         -0.891852
   4         O                -0.815292         -0.594669
   5         O                -0.804276         -0.692964
   6         O                -0.689938         -0.570940
   7         O                -0.650307         -0.528696

 Normal termination of Gaussian 09 at Tue Dec 15 17:07:18 2015.
