 Gaussian 09, Revision D.01,
 Gaussian 09:  ES64L-G09RevD.01 24-Apr-2013

 ------------------------------------------------------------
 #P AM1(Input,print) CIS(Singlets,NStates=15) pop(full) force
 ------------------------------------------------------------

 -----------------
 AM1-Reparam Input
 -----------------
 Symbolic Z-matrix:
 Charge =  0 Multiplicity = 1

                         Standard orientation:
 ---------------------------------------------------------------------
 Center     Atomic      Atomic             Coordinates (Angstroms)
 Number     Number       Type             X           Y           Z
 ---------------------------------------------------------------------
      1          6           0        0.406120    1.091959    0.018226
      2          6           0        1.107284   -0.035841   -0.014882
      3          8           0        0.368895   -1.105081    0.022608
      4          6           0       -1.010431   -0.604028   -0.009463
      5          6           0       -0.913724    0.696158   -0.028902
      6          1           0       -1.827221    1.383583    0.078202
      7          1           0       -1.730922   -1.319018   -0.010736
      8          1           0        2.231231   -0.249486   -0.051530
      9          1           0        0.840253    2.136077    0.013329
 ---------------------------------------------------------------------

 SCF Done:  E(RAM1) =   2.10675467444     A.U. after   13 cycles

 Excitation energies and oscillator strengths:

 Excited State   1:      Singlet-A      5.4490 eV  227.54 nm  f=0.3185  <S**2>=0.000
      13 -> 14         0.69161
 This state for optimization and/or second-order correction.
 Total Energy, E(CIS) =   2.30700048230
 Copying the excited state density for this state as the 1-particle RhoCI density.

 Excited State   2:      Singlet-A      6.1063 eV  203.04 nm  f=0.0048  <S**2>=0.000
      10 -> 15         0.10672
      13 -> 15         0.66315
      13 -> 17         0.18892

 Excited State   3:      Singlet-A      6.8322 eV  181.47 nm  f=0.0019  <S**2>=0.000
      12 -> 14         0.69308

 Excited State   4:      Singlet-A      7.3106 eV  169.60 nm  f=0.0086  <S**2>=0.000
      13 -> 16         0.64834
      13 -> 18        -0.16394
      13 -> 19        -0.11191
      13 -> 20        -0.11578

 Excited State   5:      Singlet-A      7.6158 eV  162.80 nm  f=0.0068  <S**2>=0.000
      11 -> 14         0.66646
      13 -> 17         0.11851

 Excited State   6:      Singlet-A      7.8732 eV  157.48 nm  f=0.0061  <S**2>=0.000
      11 -> 14        -0.17129
      13 -> 15        -0.17011
      13 -> 16         0.13156
      13 -> 17         0.52675
      13 -> 18         0.24852
      13 -> 20         0.10380
      13 -> 21        -0.24482

 Excited State   7:      Singlet-A      8.2776 eV  149.78 nm  f=0.0056  <S**2>=0.000
      13 -> 17        -0.35401
      13 -> 18         0.42078
      13 -> 19        -0.22008
      13 -> 21        -0.34230

 Excited State   8:      Singlet-A      8.9381 eV  138.71 nm  f=0.0572  <S**2>=0.000
      10 -> 14         0.61518
      11 -> 15        -0.11664
      11 -> 16        -0.12774
      12 -> 17        -0.15865
      12 -> 18        -0.11379
      12 -> 19         0.10209

 Excited State   9:      Singlet-A      9.1072 eV  136.14 nm  f=0.0007  <S**2>=0.000
      10 -> 16        -0.12120
      13 -> 16         0.12043
      13 -> 17        -0.16060
      13 -> 18         0.11852
      13 -> 19         0.64324

 Excited State  10:      Singlet-A      9.2528 eV  134.00 nm  f=0.0080  <S**2>=0.000
       9 -> 15         0.16661
      10 -> 14         0.14624
      11 -> 15        -0.16988
      11 -> 16         0.15311
      11 -> 18        -0.16065
      12 -> 15         0.51468
      12 -> 17         0.20503
      12 -> 18         0.11563

 Excited State  11:      Singlet-A      9.4019 eV  131.87 nm  f=0.0070  <S**2>=0.000
      13 -> 18         0.43883
      13 -> 20        -0.31186
      13 -> 21         0.43951

 Excited State  12:      Singlet-A      9.5688 eV  129.57 nm  f=0.1633  <S**2>=0.000
       9 -> 15         0.11110
      10 -> 14         0.21932
      11 -> 15         0.54352
      11 -> 16         0.16058
      11 -> 17         0.23135
      12 -> 18         0.12343

 Excited State  13:      Singlet-A      9.8378 eV  126.03 nm  f=0.0647  <S**2>=0.000
      10 -> 15         0.33763
      13 -> 20         0.50807
      13 -> 21         0.25153

 Excited State  14:      Singlet-A      9.9100 eV  125.11 nm  f=0.0341  <S**2>=0.000
       7 -> 15        -0.11701
      10 -> 15         0.52655
      12 -> 16         0.14336
      12 -> 19        -0.12566
      13 -> 15        -0.10533
      13 -> 20        -0.23252
      13 -> 21        -0.16695

 Excited State  15:      Singlet-A     10.0034 eV  123.94 nm  f=0.1379  <S**2>=0.000
       9 -> 15         0.15778
      10 -> 14        -0.11893
      10 -> 15         0.17797
      11 -> 15         0.16777
      11 -> 16        -0.14451
      11 -> 19         0.15454
      12 -> 15         0.22747
      12 -> 16        -0.23477
      12 -> 17        -0.14593
      12 -> 18        -0.18455
      12 -> 19         0.30053
      13 -> 20        -0.19373
      13 -> 21        -0.12022

 The electronic state is 1-A.
 Alpha  occ. eigenvalues --   -1.94475  -1.21892  -0.95865  -0.81701  -0.78529
 Alpha  occ. eigenvalues --   -0.68200  -0.65726  -0.54914  -0.52375  -0.43855
 Alpha  occ. eigenvalues --   -0.41682  -0.39338  -0.28338
 Alpha virt. eigenvalues --    0.12962   0.16282   0.23245   0.25653   0.28812
 Alpha virt. eigenvalues --    0.29103   0.31540   0.31924   0.34678   0.43747
 Alpha virt. eigenvalues --    0.47557

 Mulliken charges:
               1
     1  C   -0.319314
     2  C   -2.007676
     3  O    3.179630
     4  C   -1.959802
     5  C   -0.132627
     6  H    0.252369
     7  H    0.339879
     8  H    0.383097
     9  H    0.264443
 Sum of Mulliken charges =   0.00000

 Dipole moment (field-independent basis, Debye):
    X=              4.2762    Y=             -9.9473    Z=              0.4571  Tot=             10.8371
 N-N= 1.047009965869D+02 E-N=-1.703401210047D+02  KE=-1.551055819856D+01
 Orbital energies and kinetic energies (alpha):
                                 1                 2
   1         O                -1.944751         -1.385935
   2         O                -1.218915         -1.083135
   3         O                -0.958647         -0.883494
   4         O                -0.817010         -0.584933
   5         O                -0.785288         -0.678727
   6         O                -0.682005         -0.560169
   7         O                -0.657264         -0.529978

 Normal termination of Gaussian 09 at Tue Dec 15 17:07:20 2015.
