 Gaussian 09, Revision D.01,
 Gaussian 09:  ES64L-G09RevD.01 24-Apr-2013

 ------------------------------------------------------------
 #P AM1(Input,print) CIS(Singlets,NStates=15) pop(full) force
 ------------------------------------------------------------

 -----------------
 AM1-Reparam Input
 -----------------
 Symbolic Z-matrix:
 Charge =  0 Multiplicity = 1

                         Standard orientation:
 ---------------------------------------------------------------------
 Center     Atomic      Atomic             Coordinates (Angstroms)
 Number     Number       Type             X           Y           Z
 ---------------------------------------------------------------------
      1          6           0       -0.539353    1.061019   -0.012649
      2          6           0       -1.170045   -0.182549    0.028961
      3          8           0       -0.201308   -1.090727   -0.017120
      4          6           0        1.014732   -0.522020   -0.001889
      5          6           0        0.911592    0.780923   -0.009582
      6          1           0        1.622497    1.557458    0.076031
      7          1           0        1.845513   -1.197540    0.044122
      8          1           0       -2.155868   -0.461706    0.015911
      9          1           0       -1.003236    2.003364   -0.028147
 ---------------------------------------------------------------------

 SCF Done:  E(RAM1) =  -3.74467323916     A.U. after   13 cycles

 Excitation energies and oscillator strengths:

 Excited State   1:      Singlet-A      6.3643 eV  194.81 nm  f=0.3885  <S**2>=0.000
      13 -> 14         0.69417
 This state for optimization and/or second-order correction.
 Total Energy, E(CIS) =  -3.51078951301
 Copying the excited state density for this state as the 1-particle RhoCI density.

 Excited State   2:      Singlet-A      7.7252 eV  160.49 nm  f=0.0010  <S**2>=0.000
      12 -> 14         0.68884

 Excited State   3:      Singlet-A      8.3723 eV  148.09 nm  f=0.0002  <S**2>=0.000
      13 -> 15        -0.43763
      13 -> 16         0.45429
      13 -> 18         0.22855
      13 -> 20         0.17401

 Excited State   4:      Singlet-A      8.4446 eV  146.82 nm  f=0.0191  <S**2>=0.000
      13 -> 15         0.49286
      13 -> 16         0.46047
      13 -> 17         0.17536

 Excited State   5:      Singlet-A      8.7713 eV  141.35 nm  f=0.0081  <S**2>=0.000
      10 -> 14         0.65939
      11 -> 14        -0.22836

 Excited State   6:      Singlet-A      9.6289 eV  128.76 nm  f=0.1223  <S**2>=0.000
      10 -> 14         0.22340
      11 -> 14         0.63479
      13 -> 21         0.13991

 Excited State   7:      Singlet-A     10.0270 eV  123.65 nm  f=0.0047  <S**2>=0.000
      11 -> 15         0.11980
      13 -> 15         0.17767
      13 -> 16        -0.16559
      13 -> 17        -0.16343
      13 -> 18         0.51881
      13 -> 20         0.15090
      13 -> 22        -0.30387

 Excited State   8:      Singlet-A     10.6899 eV  115.98 nm  f=0.0065  <S**2>=0.000
      11 -> 16         0.14021
      13 -> 16        -0.11562
      13 -> 17         0.63863
      13 -> 18         0.13332
      13 -> 19        -0.11146
      13 -> 22        -0.10323

 Excited State   9:      Singlet-A     10.8576 eV  114.19 nm  f=0.0012  <S**2>=0.000
       9 -> 14         0.66393
      13 -> 20         0.13374

 Excited State  10:      Singlet-A     11.3606 eV  109.13 nm  f=0.0049  <S**2>=0.000
       9 -> 14        -0.13732
      11 -> 15         0.10188
      11 -> 16         0.14046
      12 -> 15         0.10906
      13 -> 18        -0.24278
      13 -> 19         0.17220
      13 -> 20         0.55609
      13 -> 21        -0.11436

 Excited State  11:      Singlet-A     11.3911 eV  108.84 nm  f=0.0770  <S**2>=0.000
      10 -> 17        -0.10327
      12 -> 15        -0.35316
      12 -> 16         0.39796
      12 -> 18         0.30508
      12 -> 20         0.15265
      12 -> 22        -0.11224
      13 -> 19         0.12247

 Excited State  12:      Singlet-A     11.4378 eV  108.40 nm  f=0.0750  <S**2>=0.000
       8 -> 14        -0.11376
      11 -> 16         0.14209
      13 -> 19         0.59949
      13 -> 20        -0.20942
      13 -> 21         0.10714
      13 -> 22        -0.10515

 Excited State  13:      Singlet-A     11.6013 eV  106.87 nm  f=0.0007  <S**2>=0.000
      13 -> 18         0.29221
      13 -> 19         0.13155
      13 -> 22         0.60372

 Excited State  14:      Singlet-A     11.7359 eV  105.64 nm  f=0.0016  <S**2>=0.000
      10 -> 16         0.21730
      11 -> 15         0.18507
      12 -> 15         0.44782
      12 -> 16         0.34613
      12 -> 17         0.14085
      12 -> 19         0.11115
      13 -> 21         0.10591

 Excited State  15:      Singlet-A     11.8714 eV  104.44 nm  f=0.1536  <S**2>=0.000
      10 -> 16        -0.13457
      11 -> 14        -0.11803
      11 -> 15         0.12673
      11 -> 16         0.15648
      12 -> 16        -0.10731
      13 -> 20         0.10870
      13 -> 21         0.59896

 The electronic state is 1-A.
 Alpha  occ. eigenvalues --   -3.05513  -1.26762  -0.98522  -0.91239  -0.90143
 Alpha  occ. eigenvalues --   -0.89057  -0.80900  -0.68880  -0.63602  -0.58890
 Alpha  occ. eigenvalues --   -0.58440  -0.55805  -0.43780
 Alpha virt. eigenvalues --    0.00695   0.11251   0.12537   0.19264   0.20431
 Alpha virt. eigenvalues --    0.22306   0.23363   0.23446   0.25028   0.34242
 Alpha virt. eigenvalues --    0.43681

 Mulliken charges:
               1
     1  C   -0.285931
     2  C   -1.500946
     3  O    2.709144
     4  C   -1.472176
     5  C   -0.209066
     6  H    0.165022
     7  H    0.214829
     8  H    0.211172
     9  H    0.167953
 Sum of Mulliken charges =   0.00000

 Dipole moment (field-independent basis, Debye):
    X=             -1.1593    Y=             -9.0976    Z=             -0.2379  Tot=              9.1743
 N-N= 1.062482495501D+02 E-N=-1.736051013113D+02  KE=-2.175007014571D+01
 Orbital energies and kinetic energies (alpha):
                                 1                 2
   1         O                -3.055131         -2.383197
   2         O                -1.267621         -1.127824
   3         O                -0.985217         -0.793381
   4         O                -0.912394         -0.820593
   5         O                -0.901426         -0.871331
   6         O                -0.890565         -0.906036
   7         O                -0.809003         -0.697009

 Normal termination of Gaussian 09 at Fri Dec 11 13:41:17 2015.
