 Gaussian 09, Revision D.01,
 Gaussian 09:  ES64L-G09RevD.01 24-Apr-2013

 ------------------------------------------------------------
 #P AM1(Input,print) CIS(Singlets,NStates=15) pop(full) force
 ------------------------------------------------------------

 -----------------
 AM1-Reparam Input
 -----------------
 Symbolic Z-matrix:
 Charge =  0 Multiplicity = 1

                         Standard orientation:
 ---------------------------------------------------------------------
 Center     Atomic      Atomic             Coordinates (Angstroms)
 Number     Number       Type             X           Y           Z
 ---------------------------------------------------------------------
      1          6           0       -0.997617    0.663434    0.002578
      2          6           0       -0.876975   -0.703491   -0.019168
      3          8           0        0.403608   -1.045229    0.013682
      4          6           0        1.141382    0.032805   -0.004873
      5          6           0        0.313001    1.104345   -0.014920
      6          1           0        0.565638    2.173084    0.016866
      7          1           0        2.267236   -0.017053    0.024764
      8          1           0       -1.574377   -1.494734   -0.004473
      9          1           0       -1.966114    1.117970    0.071685
 ---------------------------------------------------------------------

 SCF Done:  E(RAM1) =   2.52622918088     A.U. after   14 cycles

 Excitation energies and oscillator strengths:

 Excited State   1:      Singlet-A      5.5995 eV  221.42 nm  f=0.3251  <S**2>=0.000
      13 -> 14         0.69197
 This state for optimization and/or second-order correction.
 Total Energy, E(CIS) =   2.73200586146
 Copying the excited state density for this state as the 1-particle RhoCI density.

 Excited State   2:      Singlet-A      6.6083 eV  187.62 nm  f=0.0057  <S**2>=0.000
      13 -> 15         0.57004
      13 -> 16         0.33222
      13 -> 17         0.20405

 Excited State   3:      Singlet-A      6.8183 eV  181.84 nm  f=0.0002  <S**2>=0.000
      13 -> 15        -0.33862
      13 -> 16         0.56333
      13 -> 19         0.17069

 Excited State   4:      Singlet-A      6.9470 eV  178.47 nm  f=0.0005  <S**2>=0.000
       9 -> 14         0.13386
      12 -> 14         0.68497

 Excited State   5:      Singlet-A      7.8431 eV  158.08 nm  f=0.0059  <S**2>=0.000
       9 -> 14         0.10134
      10 -> 14        -0.28956
      11 -> 14         0.62201

 Excited State   6:      Singlet-A      8.1806 eV  151.56 nm  f=0.0001  <S**2>=0.000
      13 -> 16        -0.11363
      13 -> 17         0.34229
      13 -> 18         0.49840
      13 -> 21         0.30686

 Excited State   7:      Singlet-A      8.5226 eV  145.48 nm  f=0.0119  <S**2>=0.000
      10 -> 15         0.10385
      13 -> 15        -0.13836
      13 -> 17         0.55111
      13 -> 18        -0.32456
      13 -> 21        -0.15971

 Excited State   8:      Singlet-A      8.8580 eV  139.97 nm  f=0.0838  <S**2>=0.000
      10 -> 14         0.61828
      11 -> 14         0.28640
      12 -> 15         0.11406

 Excited State   9:      Singlet-A      9.0842 eV  136.48 nm  f=0.0004  <S**2>=0.000
      10 -> 15        -0.10029
      13 -> 16        -0.10778
      13 -> 19         0.65436

 Excited State  10:      Singlet-A      9.3623 eV  132.43 nm  f=0.0443  <S**2>=0.000
       9 -> 15        -0.13843
       9 -> 16         0.11904
      10 -> 15         0.10555
      10 -> 16         0.10903
      10 -> 17         0.11799
      11 -> 15        -0.23211
      11 -> 16        -0.19215
      11 -> 17        -0.23279
      12 -> 16         0.31155
      12 -> 17         0.17379
      12 -> 18         0.24719

 Excited State  11:      Singlet-A      9.4155 eV  131.68 nm  f=0.0847  <S**2>=0.000
       9 -> 15        -0.11075
      12 -> 15         0.63255
      12 -> 16        -0.13573
      12 -> 18        -0.10100
      12 -> 19        -0.10879

 Excited State  12:      Singlet-A      9.6699 eV  128.22 nm  f=0.0072  <S**2>=0.000
       9 -> 14        -0.31548
      11 -> 16        -0.11745
      13 -> 18        -0.31148
      13 -> 20         0.10597
      13 -> 21         0.48299

 Excited State  13:      Singlet-A      9.7323 eV  127.40 nm  f=0.0899  <S**2>=0.000
      10 -> 16        -0.13538
      11 -> 15         0.10256
      11 -> 16         0.42455
      12 -> 16         0.46049
      13 -> 21         0.12555

 Excited State  14:      Singlet-A      9.8657 eV  125.67 nm  f=0.0039  <S**2>=0.000
       9 -> 14         0.58807
      12 -> 14        -0.11032
      13 -> 18        -0.15079
      13 -> 19        -0.11053
      13 -> 20         0.11894
      13 -> 21         0.27626

 Excited State  15:      Singlet-A      9.9464 eV  124.65 nm  f=0.0106  <S**2>=0.000
       7 -> 15         0.10032
      10 -> 15         0.51816
      10 -> 16         0.17154
      11 -> 15         0.29233
      13 -> 15         0.13464
      13 -> 20         0.16297

 The electronic state is 1-A.
 Alpha  occ. eigenvalues --   -1.77175  -1.17347  -0.96367  -0.81916  -0.76122
 Alpha  occ. eigenvalues --   -0.67830  -0.66267  -0.56138  -0.49605  -0.44596
 Alpha  occ. eigenvalues --   -0.43993  -0.41315  -0.30767
 Alpha virt. eigenvalues --    0.11144   0.16572   0.17848   0.24238   0.26437
 Alpha virt. eigenvalues --    0.27914   0.30289   0.31740   0.42705   0.51399
 Alpha virt. eigenvalues --    0.56839

 Mulliken charges:
               1
     1  C   -0.044742
     2  C   -1.955984
     3  O    3.229859
     4  C   -1.963922
     5  C   -0.071006
     6  H    0.125642
     7  H    0.291450
     8  H    0.263453
     9  H    0.125251
 Sum of Mulliken charges =   0.00000

 Dipole moment (field-independent basis, Debye):
    X=              3.5743    Y=             -8.8798    Z=              0.4863  Tot=              9.5845
 N-N= 1.046273552381D+02 E-N=-1.701072408824D+02  KE=-1.510624286369D+01
 Orbital energies and kinetic energies (alpha):
                                 1                 2
   1         O                -1.771753         -1.291529
   2         O                -1.173469         -1.018249
   3         O                -0.963667         -0.862322
   4         O                -0.819161         -0.616818
   5         O                -0.761215         -0.685906
   6         O                -0.678301         -0.578000
   7         O                -0.662670         -0.536553

 Normal termination of Gaussian 09 at Tue Dec 15 17:06:15 2015.
