 Gaussian 09, Revision D.01,
 Gaussian 09:  ES64L-G09RevD.01 24-Apr-2013

 -------------------------------------------------------
 #P B3LYP/3-21G CIS(Singlets,NStates=15) pop(full) force
 -------------------------------------------------------

 --------
 FuranDFT
 --------
 Symbolic Z-matrix:
 Charge =  0 Multiplicity = 1

                         Standard orientation:
 ---------------------------------------------------------------------
 Center     Atomic      Atomic             Coordinates (Angstroms)
 Number     Number       Type             X           Y           Z
 ---------------------------------------------------------------------
      1          6           0       -0.873396    0.885094    0.037995
      2          6           0       -1.056651   -0.514862   -0.031016
      3          8           0        0.187870   -1.157394    0.029963
      4          6           0        1.139993   -0.180627   -0.018536
      5          6           0        0.583327    1.030721   -0.014062
      6          1           0        1.102784    1.990162    0.006108
      7          1           0        2.125937   -0.480355   -0.009790
      8          1           0       -1.858154   -1.182478   -0.058149
      9          1           0       -1.633164    1.609865   -0.024166
 ---------------------------------------------------------------------

 SCF Done:  E(RB3LYP) =  -228.743966086     A.U. after   14 cycles

 Excitation energies and oscillator strengths:

 Excited State   1:      Singlet-A      6.9233 eV  179.08 nm  f=0.0739  <S**2>=0.000
      17 -> 19         0.43213
      18 -> 19         0.42626
      18 -> 20         0.33575
 This state for optimization and/or second-order correction.
 Total Energy, E(CIS) =  -228.489539812
 Copying the excited state density for this state as the 1-particle RhoCI density.

 Excited State   2:      Singlet-A      7.1851 eV  172.56 nm  f=0.1362  <S**2>=0.000
      17 -> 19        -0.29943
      18 -> 19         0.53060
      18 -> 20        -0.32239

 Excited State   3:      Singlet-A      8.5871 eV  144.38 nm  f=0.0080  <S**2>=0.000
      16 -> 19         0.68978

 Excited State   4:      Singlet-A      8.6555 eV  143.24 nm  f=0.0003  <S**2>=0.000
      18 -> 21         0.69245

 Excited State   5:      Singlet-A      9.1417 eV  135.62 nm  f=0.2159  <S**2>=0.000
      17 -> 19         0.24248
      17 -> 20         0.56264
      18 -> 20        -0.26208

 Excited State   6:      Singlet-A      9.4672 eV  130.96 nm  f=0.0386  <S**2>=0.000
      15 -> 19         0.13143
      17 -> 19        -0.10010
      17 -> 20         0.14486
      18 -> 20         0.11916
      18 -> 22         0.61090
      18 -> 23        -0.18469

 Excited State   7:      Singlet-A      9.6119 eV  128.99 nm  f=0.2587  <S**2>=0.000
      15 -> 19         0.46204
      16 -> 20        -0.11175
      17 -> 19         0.26872
      17 -> 20        -0.21192
      18 -> 20        -0.32012

 Excited State   8:      Singlet-A      9.6370 eV  128.65 nm  f=0.1003  <S**2>=0.000
      15 -> 19         0.40105
      17 -> 19        -0.15668
      17 -> 20         0.22242
      17 -> 21         0.14242
      18 -> 20         0.19055
      18 -> 22        -0.31094
      18 -> 23        -0.28458

 Excited State   9:      Singlet-A      9.7575 eV  127.07 nm  f=0.0575  <S**2>=0.000
      15 -> 19        -0.21870
      17 -> 19         0.10302
      17 -> 20        -0.15243
      17 -> 21         0.52962
      18 -> 20        -0.12492
      18 -> 23        -0.28124
      18 -> 24        -0.16805

 Excited State  10:      Singlet-A      9.9112 eV  125.10 nm  f=0.0115  <S**2>=0.000
      15 -> 19         0.18368
      17 -> 21         0.41819
      18 -> 23         0.50454
      18 -> 24         0.10388

 Excited State  11:      Singlet-A     10.2834 eV  120.57 nm  f=0.0067  <S**2>=0.000
      14 -> 19        -0.43073
      16 -> 20         0.53239

 Excited State  12:      Singlet-A     10.3678 eV  119.59 nm  f=0.0028  <S**2>=0.000
      17 -> 22        -0.12989
      18 -> 23        -0.18352
      18 -> 24         0.65719

 Excited State  13:      Singlet-A     10.5492 eV  117.53 nm  f=0.0026  <S**2>=0.000
      17 -> 22         0.66172
      18 -> 24         0.12750
      18 -> 25        -0.12564

 Excited State  14:      Singlet-A     10.6278 eV  116.66 nm  f=0.0030  <S**2>=0.000
      12 -> 19        -0.12651
      14 -> 19         0.52203
      16 -> 20         0.42670
      17 -> 23         0.10482

 Excited State  15:      Singlet-A     10.8812 eV  113.94 nm  f=0.0069  <S**2>=0.000
      17 -> 22         0.12749
      18 -> 25         0.63034
      18 -> 26         0.24612

 The electronic state is 1-A.
 Alpha  occ. eigenvalues --  -19.10984 -10.17981 -10.16898 -10.13428 -10.12610
 Alpha  occ. eigenvalues --   -1.11173  -0.79717  -0.74721  -0.60239  -0.57628
 Alpha  occ. eigenvalues --   -0.53957  -0.45174  -0.43939  -0.42595  -0.39523
 Alpha  occ. eigenvalues --   -0.36076  -0.27364  -0.23209
 Alpha virt. eigenvalues --    0.01405   0.07416   0.13523   0.15774   0.17688
 Alpha virt. eigenvalues --    0.18882   0.21047   0.22098   0.34045   0.41106
 Alpha virt. eigenvalues --    0.45842   0.67878   0.69336   0.70198   0.74440

 Mulliken charges:
               1
     1  C   -0.240023
     2  C    0.049915
     3  O   -0.477946
     4  C    0.106480
     5  C   -0.258171
     6  H    0.186596
     7  H    0.222510
     8  H    0.218848
     9  H    0.191790
 Sum of Mulliken charges =   0.00000

 Dipole moment (field-independent basis, Debye):
    X=             -0.1190    Y=              0.7261    Z=             -0.1066  Tot=              0.7435
 Quadrupole moment (field-independent basis, Debye-Ang):
   XX=            -23.5874   YY=            -27.9309   ZZ=            -31.8609
   XY=              0.6712   XZ=              0.1863   YZ=              0.0734

 Normal termination of Gaussian 09 at Tue Dec 15 16:28:08 2015.
