 Gaussian 09, Revision D.01,
 Gaussian 09:  ES64L-G09RevD.01 24-Apr-2013

 ------------------------------------------------------------
 #P AM1(Input,print) CIS(Singlets,NStates=15) pop(full) force
 ------------------------------------------------------------

 -----------------
 AM1-Reparam Input
 -----------------
 Symbolic Z-matrix:
 Charge =  0 Multiplicity = 1

                         Standard orientation:
 ---------------------------------------------------------------------
 Center     Atomic      Atomic             Coordinates (Angstroms)
 Number     Number       Type             X           Y           Z
 ---------------------------------------------------------------------
      1          6           0        0.675878    0.981242   -0.020475
      2          6           0        1.064960   -0.289038    0.002296
      3          8           0        0.104754   -1.110560   -0.010340
      4          6           0       -1.089262   -0.452070    0.017828
      5          6           0       -0.756986    0.920529   -0.005822
      6          1           0       -1.513018    1.690538    0.009793
      7          1           0       -1.987048   -0.944526   -0.002989
      8          1           0        2.122285   -0.706192    0.045864
      9          1           0        1.172203    1.880684    0.067091
 ---------------------------------------------------------------------

 SCF Done:  E(RAM1) =   2.83120632423     A.U. after   13 cycles

 Excitation energies and oscillator strengths:

 Excited State   1:      Singlet-A      5.3391 eV  232.22 nm  f=0.3439  <S**2>=0.000
      13 -> 14         0.69478
 This state for optimization and/or second-order correction.
 Total Energy, E(CIS) =   3.02741294112
 Copying the excited state density for this state as the 1-particle RhoCI density.

 Excited State   2:      Singlet-A      6.1696 eV  200.96 nm  f=0.0035  <S**2>=0.000
      11 -> 15         0.12042
      13 -> 15         0.66582
      13 -> 17         0.16669

 Excited State   3:      Singlet-A      6.6595 eV  186.18 nm  f=0.0014  <S**2>=0.000
       9 -> 14        -0.15642
      12 -> 14         0.68069

 Excited State   4:      Singlet-A      6.9842 eV  177.52 nm  f=0.0077  <S**2>=0.000
      13 -> 16         0.64212
      13 -> 18         0.24424

 Excited State   5:      Singlet-A      7.6988 eV  161.04 nm  f=0.0099  <S**2>=0.000
      10 -> 14         0.61477
      13 -> 17        -0.19480
      13 -> 18         0.14137
      13 -> 19         0.11445
      13 -> 21        -0.14747

 Excited State   6:      Singlet-A      7.7639 eV  159.69 nm  f=0.0036  <S**2>=0.000
      10 -> 14         0.30610
      13 -> 15        -0.11062
      13 -> 16         0.15375
      13 -> 17         0.32014
      13 -> 18        -0.31825
      13 -> 19        -0.24148
      13 -> 20        -0.20594
      13 -> 21         0.22240

 Excited State   7:      Singlet-A      8.2138 eV  150.95 nm  f=0.0087  <S**2>=0.000
      11 -> 16         0.11986
      13 -> 15        -0.11142
      13 -> 17         0.51660
      13 -> 19         0.36967
      13 -> 20         0.19353

 Excited State   8:      Singlet-A      8.4341 eV  147.00 nm  f=0.1081  <S**2>=0.000
      11 -> 14         0.67446
      12 -> 15         0.13835

 Excited State   9:      Singlet-A      8.8975 eV  139.35 nm  f=0.0000  <S**2>=0.000
      11 -> 16         0.17518
      13 -> 16        -0.13749
      13 -> 17         0.18780
      13 -> 18         0.45289
      13 -> 19        -0.42740

 Excited State  10:      Singlet-A      8.9950 eV  137.84 nm  f=0.0846  <S**2>=0.000
       8 -> 15         0.11177
      10 -> 15         0.12140
      11 -> 14        -0.14642
      12 -> 15         0.63156
      12 -> 17         0.12143

 Excited State  11:      Singlet-A      9.2457 eV  134.10 nm  f=0.0003  <S**2>=0.000
       9 -> 14         0.18144
      13 -> 18         0.24029
      13 -> 19         0.31646
      13 -> 20        -0.32760
      13 -> 21         0.42718

 Excited State  12:      Singlet-A      9.4132 eV  131.71 nm  f=0.0019  <S**2>=0.000
       9 -> 14         0.48605
       9 -> 15         0.15720
      10 -> 15         0.13325
      10 -> 16         0.14972
      10 -> 17         0.13203
      11 -> 15        -0.18490
      12 -> 14         0.11135
      12 -> 16         0.11402
      12 -> 18         0.10859
      12 -> 19         0.15224
      13 -> 21        -0.16553

 Excited State  13:      Singlet-A      9.4618 eV  131.04 nm  f=0.0001  <S**2>=0.000
       9 -> 14         0.42907
       9 -> 15        -0.18559
      10 -> 15        -0.15059
      10 -> 16        -0.17411
      10 -> 17        -0.14407
      11 -> 15         0.25404
      12 -> 16        -0.12282
      12 -> 18        -0.12168
      12 -> 19        -0.16556

 Excited State  14:      Singlet-A      9.5863 eV  129.34 nm  f=0.0071  <S**2>=0.000
       7 -> 15        -0.12505
       9 -> 15         0.10288
      10 -> 15         0.13307
      10 -> 16         0.14256
      10 -> 17         0.11046
      11 -> 15         0.55044
      12 -> 19         0.13660
      13 -> 15        -0.12284
      13 -> 21         0.13386

 Excited State  15:      Singlet-A      9.5949 eV  129.22 nm  f=0.0783  <S**2>=0.000
      11 -> 16        -0.14220
      13 -> 20         0.53798
      13 -> 21         0.39929

 The electronic state is 1-A.
 Alpha  occ. eigenvalues --   -1.74835  -1.12459  -0.93433  -0.80032  -0.75179
 Alpha  occ. eigenvalues --   -0.67117  -0.65419  -0.55314  -0.48856  -0.44626
 Alpha  occ. eigenvalues --   -0.43528  -0.40710  -0.29965
 Alpha virt. eigenvalues --    0.10192   0.14916   0.20531   0.24246   0.26139
 Alpha virt. eigenvalues --    0.27559   0.28618   0.29629   0.40681   0.48859
 Alpha virt. eigenvalues --    0.53931

 Mulliken charges:
               1
     1  C   -0.165385
     2  C   -1.979800
     3  O    3.220729
     4  C   -1.987106
     5  C   -0.099925
     6  H    0.182338
     7  H    0.307044
     8  H    0.335063
     9  H    0.187041
 Sum of Mulliken charges =   0.00000

 Dipole moment (field-independent basis, Debye):
    X=              1.8181    Y=             -9.1641    Z=             -0.1416  Tot=              9.3437
 N-N= 1.046364811628D+02 E-N=-1.701509688736D+02  KE=-1.483014303615D+01
 Orbital energies and kinetic energies (alpha):
                                 1                 2
   1         O                -1.748350         -1.261428
   2         O                -1.124592         -0.986248
   3         O                -0.934327         -0.840792
   4         O                -0.800320         -0.597892
   5         O                -0.751788         -0.684962
   6         O                -0.671165         -0.578209
   7         O                -0.654193         -0.524045

 Normal termination of Gaussian 09 at Tue Dec 15 17:06:07 2015.
