 Gaussian 09, Revision D.01,
 Gaussian 09:  ES64L-G09RevD.01 24-Apr-2013

 ------------------------------------------------------------
 #P AM1(Input,print) CIS(Singlets,NStates=15) pop(full) force
 ------------------------------------------------------------

 -----------------
 AM1-Reparam Input
 -----------------
 Symbolic Z-matrix:
 Charge =  0 Multiplicity = 1

                         Standard orientation:
 ---------------------------------------------------------------------
 Center     Atomic      Atomic             Coordinates (Angstroms)
 Number     Number       Type             X           Y           Z
 ---------------------------------------------------------------------
      1          6           0        0.699464    0.957538   -0.011056
      2          6           0        1.134713   -0.301575   -0.003416
      3          8           0        0.025016   -1.146156   -0.012566
      4          6           0       -1.088091   -0.362235    0.026599
      5          6           0       -0.773046    0.941971    0.004832
      6          1           0       -1.398015    1.705741   -0.031000
      7          1           0       -2.025956   -0.964620   -0.042853
      8          1           0        2.075277   -0.823505    0.056105
      9          1           0        1.310319    1.837434    0.016522
 ---------------------------------------------------------------------

 SCF Done:  E(RAM1) =   2.07251475298     A.U. after   13 cycles

 Excitation energies and oscillator strengths:

 Excited State   1:      Singlet-A      5.1270 eV  241.83 nm  f=0.3572  <S**2>=0.000
      13 -> 14         0.69611
 This state for optimization and/or second-order correction.
 Total Energy, E(CIS) =   2.26092674353
 Copying the excited state density for this state as the 1-particle RhoCI density.

 Excited State   2:      Singlet-A      6.4174 eV  193.20 nm  f=0.0029  <S**2>=0.000
      13 -> 15         0.63152
      13 -> 17         0.22393
      13 -> 18         0.17475

 Excited State   3:      Singlet-A      6.6149 eV  187.43 nm  f=0.0009  <S**2>=0.000
      12 -> 14         0.69027

 Excited State   4:      Singlet-A      6.7829 eV  182.79 nm  f=0.0067  <S**2>=0.000
      12 -> 14         0.11279
      13 -> 15         0.10727
      13 -> 16         0.61727
      13 -> 18        -0.26903

 Excited State   5:      Singlet-A      7.5977 eV  163.19 nm  f=0.0022  <S**2>=0.000
      13 -> 15        -0.17956
      13 -> 16         0.17613
      13 -> 17         0.28169
      13 -> 18         0.35951
      13 -> 19         0.44136
      13 -> 20         0.10093

 Excited State   6:      Singlet-A      7.8256 eV  158.43 nm  f=0.0073  <S**2>=0.000
      10 -> 14         0.62249
      11 -> 14         0.31227

 Excited State   7:      Singlet-A      8.3043 eV  149.30 nm  f=0.0270  <S**2>=0.000
      13 -> 15        -0.16517
      13 -> 16        -0.12003
      13 -> 17         0.58447
      13 -> 18        -0.13133
      13 -> 19        -0.27302

 Excited State   8:      Singlet-A      8.7297 eV  142.03 nm  f=0.0044  <S**2>=0.000
      13 -> 16        -0.18131
      13 -> 18        -0.46166
      13 -> 19         0.46351

 Excited State   9:      Singlet-A      8.7539 eV  141.63 nm  f=0.1065  <S**2>=0.000
      10 -> 14        -0.30230
      11 -> 14         0.60868

 Excited State  10:      Singlet-A      9.4262 eV  131.53 nm  f=0.0716  <S**2>=0.000
      10 -> 16        -0.12530
      10 -> 17        -0.13396
      10 -> 18         0.10147
      12 -> 15         0.37984
      12 -> 16        -0.22632
      12 -> 17         0.20895
      12 -> 18         0.31246
      12 -> 19         0.22513

 Excited State  11:      Singlet-A      9.6325 eV  128.71 nm  f=0.0177  <S**2>=0.000
      13 -> 18        -0.12430
      13 -> 20         0.67293
      13 -> 21        -0.13989

 Excited State  12:      Singlet-A     10.0250 eV  123.67 nm  f=0.0476  <S**2>=0.000
      13 -> 20         0.13845
      13 -> 21         0.66815

 Excited State  13:      Singlet-A     10.0444 eV  123.44 nm  f=0.0342  <S**2>=0.000
      10 -> 15         0.17890
      12 -> 15         0.38787
      12 -> 16         0.42015
      12 -> 17         0.14260
      12 -> 18        -0.18607
      12 -> 19        -0.10809
      13 -> 21        -0.13123

 Excited State  14:      Singlet-A     10.1242 eV  122.46 nm  f=0.2236  <S**2>=0.000
       8 -> 15        -0.10393
      10 -> 15        -0.18713
      10 -> 16        -0.20423
      10 -> 17        -0.14453
      11 -> 16        -0.10007
      12 -> 15        -0.26013
      12 -> 16         0.37952
      12 -> 17         0.14893
      12 -> 19         0.30260

 Excited State  15:      Singlet-A     10.3522 eV  119.77 nm  f=0.0019  <S**2>=0.000
       7 -> 15         0.13498
      10 -> 15        -0.17970
      11 -> 15         0.59036
      11 -> 16         0.14784
      11 -> 17         0.13801
      13 -> 15         0.12517

 The electronic state is 1-A.
 Alpha  occ. eigenvalues --   -1.93978  -1.19616  -0.96262  -0.82935  -0.78698
 Alpha  occ. eigenvalues --   -0.68855  -0.64757  -0.55326  -0.53916  -0.44677
 Alpha  occ. eigenvalues --   -0.44624  -0.40830  -0.28443
 Alpha virt. eigenvalues --    0.10549   0.17992   0.19883   0.25619   0.27201
 Alpha virt. eigenvalues --    0.28631   0.30932   0.32691   0.34288   0.43174
 Alpha virt. eigenvalues --    0.47694

 Mulliken charges:
               1
     1  C   -0.211228
     2  C   -1.972601
     3  O    3.184214
     4  C   -1.987728
     5  C   -0.239491
     6  H    0.250856
     7  H    0.363295
     8  H    0.356388
     9  H    0.256295
 Sum of Mulliken charges =   0.00000

 Dipole moment (field-independent basis, Debye):
    X=              0.0941    Y=            -10.8353    Z=             -0.3553  Tot=             10.8416
 N-N= 1.042809745253D+02 E-N=-1.694674791776D+02  KE=-1.549111630626D+01
 Orbital energies and kinetic energies (alpha):
                                 1                 2
   1         O                -1.939779         -1.375497
   2         O                -1.196164         -1.063884
   3         O                -0.962625         -0.877352
   4         O                -0.829350         -0.608453
   5         O                -0.786979         -0.672746
   6         O                -0.688547         -0.574085
   7         O                -0.647571         -0.518351

 Normal termination of Gaussian 09 at Tue Dec 15 17:07:26 2015.
