 Gaussian 09, Revision D.01,
 Gaussian 09:  ES64L-G09RevD.01 24-Apr-2013

 ------------------------------------------------------------
 #P AM1(Input,print) CIS(Singlets,NStates=15) pop(full) force
 ------------------------------------------------------------

 -----------------
 AM1-Reparam Input
 -----------------
 Symbolic Z-matrix:
 Charge =  0 Multiplicity = 1

                         Standard orientation:
 ---------------------------------------------------------------------
 Center     Atomic      Atomic             Coordinates (Angstroms)
 Number     Number       Type             X           Y           Z
 ---------------------------------------------------------------------
      1          6           0       -0.019172    1.188053   -0.031530
      2          6           0        1.098895    0.359700    0.031743
      3          8           0        0.727362   -0.947149    0.002160
      4          6           0       -0.659023   -0.891027   -0.032035
      5          6           0       -1.176731    0.335006    0.033046
      6          1           0       -2.218232    0.574251    0.032953
      7          1           0       -1.151457   -1.871327   -0.002203
      8          1           0        2.139430    0.634543   -0.023351
      9          1           0       -0.052447    2.289335   -0.032020
 ---------------------------------------------------------------------

 SCF Done:  E(RAM1) =   2.60376222172     A.U. after   13 cycles

 Excitation energies and oscillator strengths:

 Excited State   1:      Singlet-A      5.0415 eV  245.93 nm  f=0.3499  <S**2>=0.000
      13 -> 14         0.69841
 This state for optimization and/or second-order correction.
 Total Energy, E(CIS) =   2.78903531905
 Copying the excited state density for this state as the 1-particle RhoCI density.

 Excited State   2:      Singlet-A      6.0929 eV  203.49 nm  f=0.0002  <S**2>=0.000
      13 -> 15         0.66619
      13 -> 17        -0.13368
      13 -> 19         0.12954

 Excited State   3:      Singlet-A      6.4402 eV  192.52 nm  f=0.0031  <S**2>=0.000
      12 -> 14         0.41006
      13 -> 16         0.54351

 Excited State   4:      Singlet-A      6.4999 eV  190.75 nm  f=0.0022  <S**2>=0.000
      12 -> 14         0.56327
      13 -> 16        -0.39891

 Excited State   5:      Singlet-A      7.4950 eV  165.42 nm  f=0.0080  <S**2>=0.000
      10 -> 14         0.66078
      11 -> 14        -0.22389

 Excited State   6:      Singlet-A      7.8086 eV  158.78 nm  f=0.0002  <S**2>=0.000
      13 -> 15         0.11714
      13 -> 17         0.67019
      13 -> 21        -0.12198

 Excited State   7:      Singlet-A      8.4243 eV  147.18 nm  f=0.1276  <S**2>=0.000
      10 -> 14         0.21898
      11 -> 14         0.65845

 Excited State   8:      Singlet-A      9.1223 eV  135.91 nm  f=0.0303  <S**2>=0.000
       7 -> 16        -0.10114
      11 -> 15         0.25146
      11 -> 16        -0.12410
      12 -> 15         0.26348
      13 -> 18         0.55575

 Excited State   9:      Singlet-A      9.1867 eV  134.96 nm  f=0.0589  <S**2>=0.000
       8 -> 15         0.11943
       9 -> 16         0.11377
      10 -> 16         0.16936
      10 -> 18        -0.14199
      11 -> 15        -0.14562
      12 -> 15         0.49027
      12 -> 17        -0.25336
      13 -> 18        -0.24388

 Excited State  10:      Singlet-A      9.3602 eV  132.46 nm  f=0.0007  <S**2>=0.000
      11 -> 16        -0.26759
      12 -> 16        -0.11698
      13 -> 19         0.61065

 Excited State  11:      Singlet-A      9.7255 eV  127.48 nm  f=0.1936  <S**2>=0.000
      10 -> 16         0.30605
      10 -> 18        -0.13695
      11 -> 16        -0.12992
      12 -> 15        -0.18312
      12 -> 16         0.45885
      12 -> 17        -0.21557
      12 -> 18        -0.11846
      12 -> 19        -0.13351

 Excited State  12:      Singlet-A      9.8384 eV  126.02 nm  f=0.0929  <S**2>=0.000
       9 -> 15         0.11772
      10 -> 15        -0.32077
      10 -> 16        -0.14980
      10 -> 18         0.11782
      11 -> 15         0.12815
      12 -> 15         0.25370
      12 -> 16         0.36912
      12 -> 17         0.26819
      13 -> 19         0.11442

 Excited State  13:      Singlet-A     10.0832 eV  122.96 nm  f=0.0101  <S**2>=0.000
      11 -> 15         0.55713
      11 -> 16        -0.12435
      13 -> 16        -0.12713
      13 -> 18        -0.30423

 Excited State  14:      Singlet-A     10.1503 eV  122.15 nm  f=0.0033  <S**2>=0.000
       7 -> 15        -0.10788
      10 -> 15         0.19071
      10 -> 16         0.14519
      11 -> 15         0.13025
      11 -> 16         0.53511
      13 -> 15        -0.13712
      13 -> 19         0.26164

 Excited State  15:      Singlet-A     10.2375 eV  121.11 nm  f=0.0229  <S**2>=0.000
       8 -> 15         0.19568
       8 -> 16         0.12424
       9 -> 15         0.15374
      10 -> 15         0.45316
      10 -> 19         0.17447
      11 -> 16        -0.13688
      12 -> 16         0.18038
      12 -> 17         0.25725

 The electronic state is 1-A.
 Alpha  occ. eigenvalues --   -1.83535  -1.11689  -0.86233  -0.78509  -0.74176
 Alpha  occ. eigenvalues --   -0.66507  -0.62216  -0.54287  -0.53771  -0.44413
 Alpha  occ. eigenvalues --   -0.43885  -0.41414  -0.29003
 Alpha virt. eigenvalues --    0.09578   0.16970   0.18094   0.26033   0.28547
 Alpha virt. eigenvalues --    0.30166   0.36292   0.41028   0.47938   0.56071
 Alpha virt. eigenvalues --    0.59255

 Mulliken charges:
               1
     1  C   -0.196055
     2  C   -2.022562
     3  O    3.429090
     4  C   -1.981179
     5  C   -0.146508
     6  H    0.176755
     7  H    0.271958
     8  H    0.282856
     9  H    0.185645
 Sum of Mulliken charges =   0.00000

 Dipole moment (field-independent basis, Debye):
    X=              6.9051    Y=             -9.6668    Z=             -0.0058  Tot=             11.8797
 N-N= 1.035884920004D+02 E-N=-1.690656041152D+02  KE=-1.431109809363D+01
 Orbital energies and kinetic energies (alpha):
                                 1                 2
   1         O                -1.835353         -1.230253
   2         O                -1.116893         -0.973507
   3         O                -0.862327         -0.800646
   4         O                -0.785094         -0.516467
   5         O                -0.741764         -0.615284
   6         O                -0.665067         -0.541758
   7         O                -0.622157         -0.493675

 Normal termination of Gaussian 09 at Tue Dec 15 17:07:37 2015.
