 Gaussian 09, Revision D.01,
 Gaussian 09:  ES64L-G09RevD.01 24-Apr-2013

 ------------------------------------------------------------
 #P AM1(Input,print) CIS(Singlets,NStates=15) pop(full) force
 ------------------------------------------------------------

 -----------------
 AM1-Reparam Input
 -----------------
 Symbolic Z-matrix:
 Charge =  0 Multiplicity = 1

                         Standard orientation:
 ---------------------------------------------------------------------
 Center     Atomic      Atomic             Coordinates (Angstroms)
 Number     Number       Type             X           Y           Z
 ---------------------------------------------------------------------
      1          6           0       -0.873396    0.885094    0.037995
      2          6           0       -1.056651   -0.514862   -0.031016
      3          8           0        0.187870   -1.157394    0.029963
      4          6           0        1.139993   -0.180627   -0.018536
      5          6           0        0.583327    1.030721   -0.014062
      6          1           0        1.102784    1.990162    0.006108
      7          1           0        2.125937   -0.480355   -0.009790
      8          1           0       -1.858154   -1.182478   -0.058149
      9          1           0       -1.633164    1.609865   -0.024166
 ---------------------------------------------------------------------

 SCF Done:  E(RAM1) =   2.11258504562     A.U. after   13 cycles

 Excitation energies and oscillator strengths:

 Excited State   1:      Singlet-A      5.3824 eV  230.35 nm  f=0.3618  <S**2>=0.000
      13 -> 14         0.69601
 This state for optimization and/or second-order correction.
 Total Energy, E(CIS) =   2.31038323487
 Copying the excited state density for this state as the 1-particle RhoCI density.

 Excited State   2:      Singlet-A      6.5876 eV  188.21 nm  f=0.0024  <S**2>=0.000
      11 -> 15         0.10529
      13 -> 15         0.66967
      13 -> 17        -0.11322

 Excited State   3:      Singlet-A      6.7809 eV  182.84 nm  f=0.0014  <S**2>=0.000
      11 -> 16        -0.11192
      13 -> 16         0.65228
      13 -> 17        -0.14685
      13 -> 19         0.15256

 Excited State   4:      Singlet-A      7.1329 eV  173.82 nm  f=0.0015  <S**2>=0.000
      12 -> 14         0.69923

 Excited State   5:      Singlet-A      8.0630 eV  153.77 nm  f=0.0015  <S**2>=0.000
      10 -> 14         0.17686
      11 -> 16         0.10435
      13 -> 16        -0.15057
      13 -> 17        -0.38138
      13 -> 18         0.39885
      13 -> 19         0.12157
      13 -> 22        -0.32221

 Excited State   6:      Singlet-A      8.1845 eV  151.49 nm  f=0.0060  <S**2>=0.000
      10 -> 14         0.65852
      13 -> 18        -0.19756
      13 -> 22         0.11466

 Excited State   7:      Singlet-A      8.5171 eV  145.57 nm  f=0.0062  <S**2>=0.000
      10 -> 14         0.16445
      13 -> 15         0.11965
      13 -> 17         0.54530
      13 -> 18         0.31682
      13 -> 19         0.11940
      13 -> 22        -0.14585

 Excited State   8:      Singlet-A      8.8535 eV  140.04 nm  f=0.0839  <S**2>=0.000
      11 -> 14         0.66694
      13 -> 20         0.15323

 Excited State   9:      Singlet-A      9.1058 eV  136.16 nm  f=0.0044  <S**2>=0.000
      13 -> 18        -0.27116
      13 -> 19         0.61525
      13 -> 20        -0.11954

 Excited State  10:      Singlet-A      9.5483 eV  129.85 nm  f=0.0001  <S**2>=0.000
      13 -> 18         0.32641
      13 -> 19         0.15720
      13 -> 22         0.58630

 Excited State  11:      Singlet-A      9.8023 eV  126.48 nm  f=0.0780  <S**2>=0.000
      10 -> 17         0.11309
      12 -> 15        -0.19719
      12 -> 16         0.22211
      12 -> 17        -0.10569
      12 -> 18         0.16036
      13 -> 20        -0.28795
      13 -> 21         0.44867

 Excited State  12:      Singlet-A      9.8869 eV  125.40 nm  f=0.0605  <S**2>=0.000
      10 -> 17         0.14202
      12 -> 15        -0.27468
      12 -> 16         0.29375
      12 -> 17        -0.15081
      12 -> 18         0.19639
      13 -> 20         0.31770
      13 -> 21        -0.26740

 Excited State  13:      Singlet-A     10.0696 eV  123.13 nm  f=0.1232  <S**2>=0.000
      11 -> 14        -0.17585
      12 -> 15         0.33800
      12 -> 17        -0.11341
      13 -> 20         0.42584
      13 -> 21         0.35725

 Excited State  14:      Singlet-A     10.1553 eV  122.09 nm  f=0.0645  <S**2>=0.000
       9 -> 15        -0.10453
      10 -> 15        -0.23613
      10 -> 17         0.10833
      10 -> 18         0.11167
      12 -> 15         0.44238
      12 -> 16         0.13542
      12 -> 17        -0.16286
      13 -> 20        -0.26570
      13 -> 21        -0.23672

 Excited State  15:      Singlet-A     10.3795 eV  119.45 nm  f=0.0195  <S**2>=0.000
      11 -> 15         0.51660
      11 -> 16         0.34787
      13 -> 16         0.11669

 The electronic state is 1-A.
 Alpha  occ. eigenvalues --   -1.92944  -1.17428  -0.93361  -0.80655  -0.78713
 Alpha  occ. eigenvalues --   -0.69595  -0.64968  -0.55367  -0.54200  -0.45213
 Alpha  occ. eigenvalues --   -0.44272  -0.41761  -0.28799
 Alpha virt. eigenvalues --    0.11191   0.18450   0.19527   0.26020   0.28000
 Alpha virt. eigenvalues --    0.29637   0.30511   0.31151   0.31806   0.38953
 Alpha virt. eigenvalues --    0.43018

 Mulliken charges:
               1
     1  C   -0.138711
     2  C   -1.879840
     3  O    3.212416
     4  C   -1.873386
     5  C   -0.149064
     6  H    0.157736
     7  H    0.266895
     8  H    0.245700
     9  H    0.158253
 Sum of Mulliken charges =   0.00000

 Dipole moment (field-independent basis, Debye):
    X=              2.2359    Y=            -10.7705    Z=              0.6781  Tot=             11.0210
 N-N= 1.036044600948D+02 E-N=-1.683426982348D+02  KE=-1.529553741949D+01
 Orbital energies and kinetic energies (alpha):
                                 1                 2
   1         O                -1.929437         -1.339264
   2         O                -1.174283         -1.038546
   3         O                -0.933608         -0.879784
   4         O                -0.806545         -0.577863
   5         O                -0.787133         -0.692249
   6         O                -0.695949         -0.589957
   7         O                -0.649679         -0.518152

 Normal termination of Gaussian 09 at Tue Dec 15 17:08:47 2015.
