 Gaussian 09, Revision D.01,
 Gaussian 09:  ES64L-G09RevD.01 24-Apr-2013

 ------------------------------------------------------------
 #P AM1(Input,print) CIS(Singlets,NStates=15) pop(full) force
 ------------------------------------------------------------

 -----------------
 AM1-Reparam Input
 -----------------
 Symbolic Z-matrix:
 Charge =  0 Multiplicity = 1

                         Standard orientation:
 ---------------------------------------------------------------------
 Center     Atomic      Atomic             Coordinates (Angstroms)
 Number     Number       Type             X           Y           Z
 ---------------------------------------------------------------------
      1          6           0        0.962296    0.749562    0.007155
      2          6           0        0.974707   -0.643081   -0.023719
      3          8           0       -0.345927   -1.140192    0.028641
      4          6           0       -1.173187   -0.023624   -0.018379
      5          6           0       -0.399275    1.114596   -0.003523
      6          1           0       -0.804527    2.105082    0.016803
      7          1           0       -2.203463   -0.163177   -0.018833
      8          1           0        1.747143   -1.331401   -0.043330
      9          1           0        1.841019    1.326315    0.047029
 ---------------------------------------------------------------------

 SCF Done:  E(RAM1) =   1.78230990994     A.U. after   14 cycles

 Excitation energies and oscillator strengths:

 Excited State   1:      Singlet-A      5.5825 eV  222.10 nm  f=0.3333  <S**2>=0.000
      13 -> 14         0.68944
 This state for optimization and/or second-order correction.
 Total Energy, E(CIS) =   1.98746139906
 Copying the excited state density for this state as the 1-particle RhoCI density.

 Excited State   2:      Singlet-A      6.9191 eV  179.19 nm  f=0.0093  <S**2>=0.000
      13 -> 15         0.67177
      13 -> 16         0.11641
      13 -> 17        -0.13585

 Excited State   3:      Singlet-A      7.2116 eV  171.92 nm  f=0.0002  <S**2>=0.000
      11 -> 15        -0.10737
      13 -> 15        -0.11233
      13 -> 16         0.65479
      13 -> 18        -0.12079
      13 -> 19         0.15420

 Excited State   4:      Singlet-A      7.7434 eV  160.12 nm  f=0.0005  <S**2>=0.000
      12 -> 14         0.69864

 Excited State   5:      Singlet-A      8.2878 eV  149.60 nm  f=0.0057  <S**2>=0.000
      10 -> 14         0.63084
      11 -> 14        -0.29767

 Excited State   6:      Singlet-A      8.4818 eV  146.18 nm  f=0.0000  <S**2>=0.000
      13 -> 16         0.10708
      13 -> 17         0.24278
      13 -> 18         0.58918
      13 -> 22        -0.23243

 Excited State   7:      Singlet-A      9.0399 eV  137.15 nm  f=0.1115  <S**2>=0.000
      10 -> 14         0.29495
      11 -> 14         0.62231

 Excited State   8:      Singlet-A      9.3123 eV  133.14 nm  f=0.0097  <S**2>=0.000
      11 -> 16        -0.18345
      13 -> 15         0.10034
      13 -> 17         0.61106
      13 -> 18        -0.24211

 Excited State   9:      Singlet-A      9.8182 eV  126.28 nm  f=0.0004  <S**2>=0.000
      11 -> 15         0.20770
      13 -> 19         0.64027

 Excited State  10:      Singlet-A      9.9032 eV  125.20 nm  f=0.0807  <S**2>=0.000
       8 -> 15         0.11469
       9 -> 16        -0.15299
      10 -> 15         0.34745
      10 -> 17        -0.16629
      10 -> 18         0.16176
      11 -> 15        -0.13760
      12 -> 15        -0.19040
      12 -> 16        -0.22814
      12 -> 17         0.21025
      12 -> 18         0.26707
      13 -> 14        -0.12332

 Excited State  11:      Singlet-A     10.4458 eV  118.69 nm  f=0.0811  <S**2>=0.000
      10 -> 16         0.13304
      12 -> 15         0.53536
      12 -> 16        -0.34277
      12 -> 18         0.12634
      12 -> 19        -0.11319

 Excited State  12:      Singlet-A     10.5207 eV  117.85 nm  f=0.0106  <S**2>=0.000
      10 -> 15         0.12994
      11 -> 15         0.57692
      11 -> 16         0.11011
      12 -> 15        -0.11236
      13 -> 16         0.16657
      13 -> 19        -0.20748

 Excited State  13:      Singlet-A     10.5579 eV  117.43 nm  f=0.0045  <S**2>=0.000
      13 -> 18         0.23143
      13 -> 20        -0.17365
      13 -> 21        -0.21587
      13 -> 22         0.58284

 Excited State  14:      Singlet-A     10.7073 eV  115.79 nm  f=0.0996  <S**2>=0.000
      10 -> 15         0.17187
      11 -> 16        -0.35154
      12 -> 16         0.21445
      13 -> 20         0.48330
      13 -> 22         0.15939

 Excited State  15:      Singlet-A     10.7854 eV  114.96 nm  f=0.1562  <S**2>=0.000
      10 -> 15        -0.29100
      10 -> 16        -0.34621
      12 -> 15        -0.11750
      12 -> 16        -0.32953
      13 -> 20         0.34658

 The electronic state is 1-A.
 Alpha  occ. eigenvalues --   -1.97120  -1.26342  -0.99671  -0.88517  -0.85601
 Alpha  occ. eigenvalues --   -0.77000  -0.72753  -0.63356  -0.62016  -0.52057
 Alpha  occ. eigenvalues --   -0.51209  -0.50265  -0.37100
 Alpha virt. eigenvalues --    0.04748   0.12301   0.13284   0.20327   0.21178
 Alpha virt. eigenvalues --    0.23352   0.25984   0.27141   0.27207   0.35511
 Alpha virt. eigenvalues --    0.40195

 Mulliken charges:
               1
     1  C   -0.091733
     2  C   -1.899743
     3  O    3.180091
     4  C   -1.895703
     5  C   -0.129769
     6  H    0.150818
     7  H    0.274381
     8  H    0.267478
     9  H    0.144181
 Sum of Mulliken charges =   0.00000

 Dipole moment (field-independent basis, Debye):
    X=             -3.2297    Y=            -10.4484    Z=              0.6773  Tot=             10.9571
 N-N= 1.049440140035D+02 E-N=-1.694351444145D+02  KE=-1.562811221466D+01
 Orbital energies and kinetic energies (alpha):
                                 1                 2
   1         O                -1.971196         -1.334639
   2         O                -1.263419         -1.053306
   3         O                -0.996715         -0.894754
   4         O                -0.885166         -0.582236
   5         O                -0.856015         -0.703641
   6         O                -0.770001         -0.617032
   7         O                -0.727532         -0.536506

 Normal termination of Gaussian 09 at Tue Dec 15 17:09:08 2015.
