 Gaussian 09, Revision D.01,
 Gaussian 09:  ES64L-G09RevD.01 24-Apr-2013

 ------------------------------------------------------------
 #P AM1(Input,print) CIS(Singlets,NStates=15) pop(full) force
 ------------------------------------------------------------

 -----------------
 AM1-Reparam Input
 -----------------
 Symbolic Z-matrix:
 Charge =  0 Multiplicity = 1

                         Standard orientation:
 ---------------------------------------------------------------------
 Center     Atomic      Atomic             Coordinates (Angstroms)
 Number     Number       Type             X           Y           Z
 ---------------------------------------------------------------------
      1          6           0        0.840675    0.877418   -0.029393
      2          6           0        1.038816   -0.456998    0.034124
      3          8           0       -0.116515   -1.147392   -0.019207
      4          6           0       -1.156456   -0.208652   -0.009037
      5          6           0       -0.596202    1.016042    0.020733
      6          1           0       -1.148709    1.900270    0.001793
      7          1           0       -2.129475   -0.596731    0.043148
      8          1           0        1.885026   -1.071493    0.022402
      9          1           0        1.564279    1.580225   -0.012250
 ---------------------------------------------------------------------

 SCF Done:  E(RAM1) =   2.07612472359     A.U. after   13 cycles

 Excitation energies and oscillator strengths:

 Excited State   1:      Singlet-A      5.2730 eV  235.13 nm  f=0.3468  <S**2>=0.000
      13 -> 14         0.69482
 This state for optimization and/or second-order correction.
 Total Energy, E(CIS) =   2.26990353046
 Copying the excited state density for this state as the 1-particle RhoCI density.

 Excited State   2:      Singlet-A      6.6162 eV  187.40 nm  f=0.0073  <S**2>=0.000
      13 -> 15         0.64681
      13 -> 17         0.23368
      13 -> 18        -0.11658

 Excited State   3:      Singlet-A      6.7709 eV  183.11 nm  f=0.0015  <S**2>=0.000
      12 -> 14         0.69292

 Excited State   4:      Singlet-A      7.0294 eV  176.38 nm  f=0.0063  <S**2>=0.000
      13 -> 16         0.62716
      13 -> 18         0.27869

 Excited State   5:      Singlet-A      7.7775 eV  159.41 nm  f=0.0082  <S**2>=0.000
      10 -> 14         0.49319
      11 -> 14        -0.41640
      13 -> 19         0.20997

 Excited State   6:      Singlet-A      7.8739 eV  157.46 nm  f=0.0002  <S**2>=0.000
      10 -> 14        -0.21264
      11 -> 14         0.17374
      13 -> 15        -0.12259
      13 -> 16         0.17832
      13 -> 17         0.20988
      13 -> 18        -0.26117
      13 -> 19         0.49040
      13 -> 20         0.10309

 Excited State   7:      Singlet-A      8.6225 eV  143.79 nm  f=0.0219  <S**2>=0.000
      13 -> 15        -0.18050
      13 -> 17         0.59533
      13 -> 19        -0.28039

 Excited State   8:      Singlet-A      8.7581 eV  141.57 nm  f=0.1159  <S**2>=0.000
      10 -> 14         0.44319
      11 -> 14         0.52762

 Excited State   9:      Singlet-A      9.0519 eV  136.97 nm  f=0.0040  <S**2>=0.000
      11 -> 16         0.10807
      13 -> 16        -0.19147
      13 -> 17         0.11603
      13 -> 18         0.53778
      13 -> 19         0.34868

 Excited State  10:      Singlet-A      9.5556 eV  129.75 nm  f=0.0130  <S**2>=0.000
       9 -> 15        -0.11959
      10 -> 15         0.11417
      10 -> 16         0.16178
      10 -> 17         0.12092
      10 -> 18         0.10878
      11 -> 16        -0.12686
      11 -> 17        -0.10419
      12 -> 15         0.35871
      12 -> 16        -0.14095
      12 -> 17         0.21617
      12 -> 18        -0.22357
      12 -> 19         0.27054

 Excited State  11:      Singlet-A      9.8778 eV  125.52 nm  f=0.0028  <S**2>=0.000
      13 -> 18         0.12925
      13 -> 20         0.63504
      13 -> 21        -0.25684

 Excited State  12:      Singlet-A     10.1188 eV  122.53 nm  f=0.0251  <S**2>=0.000
      10 -> 15        -0.10322
      10 -> 16         0.10042
      11 -> 15         0.16183
      12 -> 15         0.33782
      12 -> 16         0.38743
      12 -> 17         0.12438
      12 -> 18         0.16899
      13 -> 20         0.12575
      13 -> 21         0.29116

 Excited State  13:      Singlet-A     10.1401 eV  122.27 nm  f=0.0664  <S**2>=0.000
      11 -> 15        -0.10407
      12 -> 15        -0.10582
      12 -> 16        -0.24201
      12 -> 18        -0.11548
      13 -> 20         0.21911
      13 -> 21         0.57109

 Excited State  14:      Singlet-A     10.1984 eV  121.57 nm  f=0.2629  <S**2>=0.000
      10 -> 15         0.18478
      10 -> 16         0.12635
      10 -> 17         0.10406
      11 -> 15        -0.28047
      11 -> 16        -0.14309
      11 -> 17        -0.10951
      12 -> 15        -0.29166
      12 -> 16         0.37551
      12 -> 18         0.11219
      12 -> 19         0.21400

 Excited State  15:      Singlet-A     10.3969 eV  119.25 nm  f=0.0097  <S**2>=0.000
       7 -> 15        -0.10980
      10 -> 15         0.50984
      10 -> 17         0.14820
      11 -> 15         0.31590
      11 -> 16         0.15658
      13 -> 15        -0.10764

 The electronic state is 1-A.
 Alpha  occ. eigenvalues --   -1.94324  -1.20495  -0.97088  -0.83225  -0.79385
 Alpha  occ. eigenvalues --   -0.69629  -0.65124  -0.55718  -0.54077  -0.44735
 Alpha  occ. eigenvalues --   -0.44522  -0.41509  -0.29307
 Alpha virt. eigenvalues --    0.10574   0.18716   0.20684   0.25615   0.27443
 Alpha virt. eigenvalues --    0.28581   0.31269   0.32030   0.34495   0.43405
 Alpha virt. eigenvalues --    0.47804

 Mulliken charges:
               1
     1  C   -0.237020
     2  C   -1.999346
     3  O    3.186362
     4  C   -1.987468
     5  C   -0.188432
     6  H    0.253805
     7  H    0.357810
     8  H    0.360086
     9  H    0.254203
 Sum of Mulliken charges =   0.00000

 Dipole moment (field-independent basis, Debye):
    X=             -0.8491    Y=            -10.5475    Z=             -0.3296  Tot=             10.5868
 N-N= 1.045976560117D+02 E-N=-1.699203881670D+02  KE=-1.553989249833D+01
 Orbital energies and kinetic energies (alpha):
                                 1                 2
   1         O                -1.943240         -1.380943
   2         O                -1.204947         -1.071387
   3         O                -0.970882         -0.885512
   4         O                -0.832254         -0.610800
   5         O                -0.793848         -0.679145
   6         O                -0.696295         -0.573427
   7         O                -0.651244         -0.519653

 Normal termination of Gaussian 09 at Tue Dec 15 17:07:26 2015.
