 Gaussian 09, Revision D.01,
 Gaussian 09:  ES64L-G09RevD.01 24-Apr-2013

 ------------------------------------------------------------
 #P AM1(Input,print) CIS(Singlets,NStates=15) pop(full) force
 ------------------------------------------------------------

 -----------------
 AM1-Reparam Input
 -----------------
 Symbolic Z-matrix:
 Charge =  0 Multiplicity = 1

                         Standard orientation:
 ---------------------------------------------------------------------
 Center     Atomic      Atomic             Coordinates (Angstroms)
 Number     Number       Type             X           Y           Z
 ---------------------------------------------------------------------
      1          6           0       -0.885270    0.787392    0.015701
      2          6           0       -1.065905   -0.472591   -0.015346
      3          8           0        0.213108   -1.146504    0.022311
      4          6           0        1.169657   -0.156108   -0.021829
      5          6           0        0.536669    1.068398   -0.009674
      6          1           0        1.077165    1.969415    0.057703
      7          1           0        2.133243   -0.528447   -0.004625
      8          1           0       -1.874166   -1.175156   -0.029939
      9          1           0       -1.572016    1.543671   -0.014736
 ---------------------------------------------------------------------

 SCF Done:  E(RAM1) =  0.300323064975E-01 A.U. after   14 cycles

 Excitation energies and oscillator strengths:

 Excited State   1:      Singlet-A      4.5186 eV  274.39 nm  f=0.0899  <S**2>=0.000
      12 -> 15         0.18221
      13 -> 14         0.67173
 This state for optimization and/or second-order correction.
 Total Energy, E(CIS) =  0.196086913656
 Copying the excited state density for this state as the 1-particle RhoCI density.

 Excited State   2:      Singlet-A      5.1394 eV  241.24 nm  f=0.0001  <S**2>=0.000
      13 -> 16         0.68291

 Excited State   3:      Singlet-A      5.2760 eV  235.00 nm  f=0.0077  <S**2>=0.000
      12 -> 14        -0.41381
      13 -> 15         0.56475

 Excited State   4:      Singlet-A      5.8431 eV  212.19 nm  f=0.0009  <S**2>=0.000
      12 -> 18         0.14249
      13 -> 18         0.56132
      13 -> 22        -0.30641
      13 -> 23         0.14976

 Excited State   5:      Singlet-A      5.9369 eV  208.84 nm  f=0.0015  <S**2>=0.000
       7 -> 16        -0.17497
      12 -> 16         0.65198
      12 -> 22         0.10233
      13 -> 16        -0.10231

 Excited State   6:      Singlet-A      6.2460 eV  198.50 nm  f=0.2801  <S**2>=0.000
      11 -> 16        -0.12779
      12 -> 14         0.50890
      13 -> 15         0.37012
      13 -> 17         0.17518

 Excited State   7:      Singlet-A      6.3749 eV  194.49 nm  f=0.0355  <S**2>=0.000
      12 -> 14        -0.14705
      12 -> 19         0.11317
      13 -> 15        -0.12762
      13 -> 17         0.58847
      13 -> 19         0.19052
      13 -> 20         0.10803
      13 -> 23         0.13335

 Excited State   8:      Singlet-A      6.5743 eV  188.59 nm  f=0.0010  <S**2>=0.000
      12 -> 17         0.10620
      12 -> 19        -0.22121
      12 -> 22         0.14584
      12 -> 23         0.17663
      12 -> 24         0.12566
      13 -> 19         0.49797
      13 -> 22        -0.18828
      13 -> 23        -0.18778

 Excited State   9:      Singlet-A      6.6398 eV  186.73 nm  f=0.1266  <S**2>=0.000
      12 -> 15         0.66237
      13 -> 14        -0.16313

 Excited State  10:      Singlet-A      6.9818 eV  177.58 nm  f=0.0078  <S**2>=0.000
      10 -> 14         0.35263
      10 -> 15         0.18791
      11 -> 14         0.53245

 Excited State  11:      Singlet-A      7.1776 eV  172.74 nm  f=0.0005  <S**2>=0.000
       7 -> 24        -0.10022
      12 -> 17         0.53471
      12 -> 18        -0.19659
      12 -> 19         0.25175
      12 -> 20         0.12602
      13 -> 17        -0.15225
      13 -> 18         0.10426

 Excited State  12:      Singlet-A      7.3537 eV  168.60 nm  f=0.0023  <S**2>=0.000
      11 -> 14         0.11130
      12 -> 17         0.20470
      12 -> 19        -0.30759
      12 -> 20         0.10568
      12 -> 23         0.15353
      13 -> 19        -0.29887
      13 -> 20         0.33755
      13 -> 24        -0.22392

 Excited State  13:      Singlet-A      7.5788 eV  163.59 nm  f=0.0001  <S**2>=0.000
       9 -> 14        -0.13393
      10 -> 14         0.50884
      10 -> 15         0.13502
      11 -> 14        -0.38347
      13 -> 17         0.10934

 Excited State  14:      Singlet-A      7.7180 eV  160.64 nm  f=0.0064  <S**2>=0.000
      11 -> 15         0.10039
      13 -> 18         0.29883
      13 -> 21         0.21447
      13 -> 22         0.48822
      13 -> 23        -0.20443

 Excited State  15:      Singlet-A      7.8951 eV  157.04 nm  f=0.0011  <S**2>=0.000
       8 -> 14         0.11757
       9 -> 14         0.33304
       9 -> 15        -0.23112
      10 -> 14         0.12523
      10 -> 15        -0.30365
      11 -> 15         0.27865
      12 -> 18        -0.10761
      13 -> 19        -0.11783
      13 -> 20         0.16413
      13 -> 22        -0.14355
      13 -> 24         0.12411

 The electronic state is 1-A.
 Alpha  occ. eigenvalues --   -1.53998  -1.23916  -1.11112  -0.82530  -0.81506
 Alpha  occ. eigenvalues --   -0.68345  -0.58475  -0.56043  -0.52436  -0.50547
 Alpha  occ. eigenvalues --   -0.49478  -0.40427  -0.35203
 Alpha virt. eigenvalues --    0.02827   0.06530   0.09712   0.13526   0.14775
 Alpha virt. eigenvalues --    0.15675   0.17990   0.18955   0.19250   0.20826
 Alpha virt. eigenvalues --    0.21582

 Mulliken charges:
               1
     1  C   -0.163259
     2  C   -0.072065
     3  O   -0.145463
     4  C   -0.068515
     5  C   -0.223475
     6  H    0.156102
     7  H    0.182623
     8  H    0.184237
     9  H    0.149815
 Sum of Mulliken charges =   0.00000

 Dipole moment (field-independent basis, Debye):
    X=             -0.0935    Y=              0.4939    Z=              0.0167  Tot=              0.5030
 N-N= 1.034030595059D+02 E-N=-1.709091837793D+02  KE=-1.655653520961D+01
 Orbital energies and kinetic energies (alpha):
                                 1                 2
   1         O                -1.539983         -1.306566
   2         O                -1.239163         -1.045084
   3         O                -1.111119         -0.971351
   4         O                -0.825299         -0.727024
   5         O                -0.815060         -0.713791
   6         O                -0.683448         -0.603593
   7         O                -0.584753         -0.479076

 Normal termination of Gaussian 09 at Fri Dec 11 13:18:13 2015.
