 Gaussian 09, Revision D.01,
 Gaussian 09:  ES64L-G09RevD.01 24-Apr-2013

 ------------------------------------------------------------
 #P AM1(Input,print) CIS(Singlets,NStates=15) pop(full) force
 ------------------------------------------------------------

 -----------------
 AM1-Reparam Input
 -----------------
 Symbolic Z-matrix:
 Charge =  0 Multiplicity = 1

                         Standard orientation:
 ---------------------------------------------------------------------
 Center     Atomic      Atomic             Coordinates (Angstroms)
 Number     Number       Type             X           Y           Z
 ---------------------------------------------------------------------
      1          6           0        1.041420    0.649805   -0.038434
      2          6           0        0.885524   -0.662698    0.043344
      3          8           0       -0.430291   -1.099748   -0.015550
      4          6           0       -1.099306    0.047668   -0.016891
      5          6           0       -0.381449    1.131555    0.027832
      6          1           0       -0.679998    2.150430    0.006740
      7          1           0       -2.171500   -0.081625    0.031763
      8          1           0        1.677080   -1.468754   -0.000150
      9          1           0        1.939605    1.199960   -0.009059
 ---------------------------------------------------------------------

 SCF Done:  E(RAM1) =   2.65583570516     A.U. after   13 cycles

 Excitation energies and oscillator strengths:

 Excited State   1:      Singlet-A      4.7063 eV  263.44 nm  f=0.3508  <S**2>=0.000
      13 -> 14         0.69872
 This state for optimization and/or second-order correction.
 Total Energy, E(CIS) =   2.82879019228
 Copying the excited state density for this state as the 1-particle RhoCI density.

 Excited State   2:      Singlet-A      5.4339 eV  228.17 nm  f=0.0002  <S**2>=0.000
      13 -> 15         0.67181
      13 -> 17         0.14967
      13 -> 19        -0.10343

 Excited State   3:      Singlet-A      5.9865 eV  207.11 nm  f=0.0020  <S**2>=0.000
      13 -> 16         0.67814
      13 -> 18        -0.10761

 Excited State   4:      Singlet-A      6.1672 eV  201.04 nm  f=0.0008  <S**2>=0.000
      12 -> 14         0.70101

 Excited State   5:      Singlet-A      7.3196 eV  169.39 nm  f=0.0000  <S**2>=0.000
      13 -> 15        -0.13278
      13 -> 17         0.67208
      13 -> 21        -0.11249

 Excited State   6:      Singlet-A      7.6046 eV  163.04 nm  f=0.0067  <S**2>=0.000
      10 -> 14         0.69645

 Excited State   7:      Singlet-A      8.4446 eV  146.82 nm  f=0.1263  <S**2>=0.000
      11 -> 14         0.68802

 Excited State   8:      Singlet-A      8.7739 eV  141.31 nm  f=0.1312  <S**2>=0.000
      11 -> 15         0.14929
      12 -> 15         0.41762
      12 -> 17         0.13004
      13 -> 18         0.47551
      13 -> 19         0.12092

 Excited State   9:      Singlet-A      8.8092 eV  140.74 nm  f=0.1410  <S**2>=0.000
       9 -> 16         0.10785
      11 -> 15        -0.13646
      12 -> 15         0.44113
      12 -> 16        -0.11480
      12 -> 17         0.17156
      13 -> 18        -0.42095
      13 -> 19        -0.15098

 Excited State  10:      Singlet-A      9.0004 eV  137.75 nm  f=0.0019  <S**2>=0.000
      11 -> 16         0.17066
      13 -> 18        -0.16896
      13 -> 19         0.64731

 Excited State  11:      Singlet-A      9.4782 eV  130.81 nm  f=0.0152  <S**2>=0.000
      10 -> 15         0.23008
      10 -> 18        -0.11666
      12 -> 15         0.23075
      12 -> 16         0.53209
      12 -> 17        -0.17787

 Excited State  12:      Singlet-A      9.7664 eV  126.95 nm  f=0.1164  <S**2>=0.000
       9 -> 16        -0.12121
      10 -> 16        -0.28917
      10 -> 18         0.18640
      12 -> 15        -0.11961
      12 -> 16         0.30899
      12 -> 17         0.43390

 Excited State  13:      Singlet-A      9.8026 eV  126.48 nm  f=0.0061  <S**2>=0.000
       7 -> 15        -0.10675
      11 -> 15         0.63591
      13 -> 16        -0.10263
      13 -> 18        -0.20565

 Excited State  14:      Singlet-A     10.0601 eV  123.24 nm  f=0.0054  <S**2>=0.000
       7 -> 15        -0.11524
      10 -> 16         0.11259
      11 -> 16         0.62646
      13 -> 19        -0.14378

 Excited State  15:      Singlet-A     10.1516 eV  122.13 nm  f=0.0134  <S**2>=0.000
       8 -> 16        -0.21470
       9 -> 15        -0.27546
      10 -> 15         0.45279
      10 -> 16        -0.18731
      10 -> 19        -0.20986
      12 -> 18        -0.17091

 The electronic state is 1-A.
 Alpha  occ. eigenvalues --   -1.85008  -1.12359  -0.87997  -0.79636  -0.73482
 Alpha  occ. eigenvalues --   -0.67370  -0.63270  -0.53448  -0.52987  -0.44786
 Alpha  occ. eigenvalues --   -0.44382  -0.40297  -0.27212
 Alpha virt. eigenvalues --    0.09462   0.15834   0.17546   0.26235   0.29256
 Alpha virt. eigenvalues --    0.30450   0.37673   0.41656   0.48410   0.56822
 Alpha virt. eigenvalues --    0.59440

 Mulliken charges:
               1
     1  C   -0.155121
     2  C   -1.972873
     3  O    3.417724
     4  C   -1.971792
     5  C   -0.226477
     6  H    0.180476
     7  H    0.276690
     8  H    0.280881
     9  H    0.170493
 Sum of Mulliken charges =   0.00000

 Dipole moment (field-independent basis, Debye):
    X=             -4.4841    Y=            -11.5657    Z=             -0.4125  Tot=             12.4114
 N-N= 1.041760807059D+02 E-N=-1.700382466188D+02  KE=-1.435758504449D+01
 Orbital energies and kinetic energies (alpha):
                                 1                 2
   1         O                -1.850081         -1.250689
   2         O                -1.123595         -0.976849
   3         O                -0.879967         -0.813682
   4         O                -0.796359         -0.521596
   5         O                -0.734818         -0.608554
   6         O                -0.673700         -0.524407
   7         O                -0.632702         -0.497454

 Normal termination of Gaussian 09 at Tue Dec 15 17:07:41 2015.
