 Gaussian 09, Revision D.01,
 Gaussian 09:  ES64L-G09RevD.01 24-Apr-2013

 ------------------------------------------------------------
 #P AM1(Input,print) CIS(Singlets,NStates=15) pop(full) force
 ------------------------------------------------------------

 -----------------
 AM1-Reparam Input
 -----------------
 Symbolic Z-matrix:
 Charge =  0 Multiplicity = 1

                         Standard orientation:
 ---------------------------------------------------------------------
 Center     Atomic      Atomic             Coordinates (Angstroms)
 Number     Number       Type             X           Y           Z
 ---------------------------------------------------------------------
      1          6           0        1.010083    0.697276   -0.032860
      2          6           0        0.930391   -0.687172    0.030939
      3          8           0       -0.399434   -1.105088   -0.013396
      4          6           0       -1.135891   -0.028866    0.008723
      5          6           0       -0.380748    1.193153    0.008364
      6          1           0       -0.733018    2.149220   -0.013539
      7          1           0       -2.233786   -0.150229    0.002140
      8          1           0        1.729140   -1.456914   -0.030691
      9          1           0        1.890128    1.252281    0.058256
 ---------------------------------------------------------------------

 SCF Done:  E(RAM1) =   1.65833362480     A.U. after   13 cycles

 Excitation energies and oscillator strengths:

 Excited State   1:      Singlet-A      5.3283 eV  232.69 nm  f=0.3594  <S**2>=0.000
      13 -> 14         0.69552
 This state for optimization and/or second-order correction.
 Total Energy, E(CIS) =   1.85414500963
 Copying the excited state density for this state as the 1-particle RhoCI density.

 Excited State   2:      Singlet-A      6.1995 eV  199.99 nm  f=0.0048  <S**2>=0.000
      13 -> 15         0.64370
      13 -> 17         0.24565

 Excited State   3:      Singlet-A      6.7149 eV  184.64 nm  f=0.0018  <S**2>=0.000
      11 -> 16        -0.11368
      13 -> 16         0.62053
      13 -> 18        -0.11319
      13 -> 19        -0.25251

 Excited State   4:      Singlet-A      7.0342 eV  176.26 nm  f=0.0008  <S**2>=0.000
      11 -> 14         0.15108
      12 -> 14         0.66061
      13 -> 19         0.10309

 Excited State   5:      Singlet-A      7.4501 eV  166.42 nm  f=0.0007  <S**2>=0.000
      12 -> 14        -0.15450
      13 -> 15        -0.10631
      13 -> 16         0.15844
      13 -> 17         0.10548
      13 -> 18        -0.20238
      13 -> 19         0.50401
      13 -> 20        -0.25024
      13 -> 21         0.22305

 Excited State   6:      Singlet-A      7.7575 eV  159.83 nm  f=0.0270  <S**2>=0.000
      13 -> 15        -0.20608
      13 -> 17         0.63416
      13 -> 21        -0.10968

 Excited State   7:      Singlet-A      8.1558 eV  152.02 nm  f=0.0036  <S**2>=0.000
      10 -> 14         0.65369
      11 -> 14         0.12546
      13 -> 18        -0.16286

 Excited State   8:      Singlet-A      8.3600 eV  148.31 nm  f=0.0415  <S**2>=0.000
      11 -> 14         0.40737
      13 -> 16         0.13399
      13 -> 18         0.48830
      13 -> 19         0.18635

 Excited State   9:      Singlet-A      8.4009 eV  147.58 nm  f=0.0764  <S**2>=0.000
      10 -> 14        -0.22449
      11 -> 14         0.52140
      12 -> 14        -0.13217
      13 -> 18        -0.33390
      13 -> 19        -0.12372

 Excited State  10:      Singlet-A      8.8337 eV  140.35 nm  f=0.0008  <S**2>=0.000
      13 -> 18         0.23234
      13 -> 19        -0.28290
      13 -> 20        -0.32930
      13 -> 21         0.49914

 Excited State  11:      Singlet-A      9.1071 eV  136.14 nm  f=0.0738  <S**2>=0.000
      13 -> 20         0.54185
      13 -> 21         0.40415

 Excited State  12:      Singlet-A      9.3020 eV  133.29 nm  f=0.0002  <S**2>=0.000
       7 -> 15        -0.13515
      11 -> 15         0.61617
      11 -> 17         0.13277
      12 -> 15        -0.15821
      13 -> 15        -0.14252

 Excited State  13:      Singlet-A      9.5133 eV  130.33 nm  f=0.0923  <S**2>=0.000
       8 -> 15         0.14728
       9 -> 15         0.15644
      10 -> 15        -0.19197
      10 -> 16        -0.15413
      10 -> 17        -0.21186
      11 -> 15         0.11474
      12 -> 15         0.34242
      12 -> 16        -0.23232
      12 -> 17         0.11737
      12 -> 19         0.18255
      12 -> 20        -0.12024
      12 -> 21         0.13963

 Excited State  14:      Singlet-A      9.9405 eV  124.73 nm  f=0.0562  <S**2>=0.000
       8 -> 16        -0.14032
      10 -> 15         0.11558
      10 -> 17         0.10985
      11 -> 15         0.11778
      12 -> 15         0.43714
      12 -> 16         0.34893
      12 -> 20         0.20211

 Excited State  15:      Singlet-A      9.9980 eV  124.01 nm  f=0.0094  <S**2>=0.000
      11 -> 16         0.57374
      11 -> 18        -0.11893
      12 -> 15         0.15973
      12 -> 16        -0.16208
      13 -> 16         0.15262

 The electronic state is 1-A.
 Alpha  occ. eigenvalues --   -1.90447  -1.19342  -0.97383  -0.82449  -0.79290
 Alpha  occ. eigenvalues --   -0.68676  -0.62136  -0.54139  -0.51219  -0.45045
 Alpha  occ. eigenvalues --   -0.41756  -0.41419  -0.28186
 Alpha virt. eigenvalues --    0.11568   0.16864   0.19290   0.24423   0.27083
 Alpha virt. eigenvalues --    0.27678   0.28912   0.29808   0.37898   0.46724
 Alpha virt. eigenvalues --    0.51439

 Mulliken charges:
               1
     1  C   -0.061800
     2  C   -1.940925
     3  O    3.177851
     4  C   -1.979190
     5  C   -0.168814
     6  H    0.183909
     7  H    0.315687
     8  H    0.300416
     9  H    0.172866
 Sum of Mulliken charges =   0.00000

 Dipole moment (field-independent basis, Debye):
    X=             -3.5651    Y=             -9.4724    Z=             -0.5529  Tot=             10.1362
 N-N= 1.032170663392D+02 E-N=-1.682123630463D+02  KE=-1.567534661180D+01
 Orbital energies and kinetic energies (alpha):
                                 1                 2
   1         O                -1.904474         -1.373110
   2         O                -1.193421         -1.090438
   3         O                -0.973831         -0.894091
   4         O                -0.824489         -0.643973
   5         O                -0.792900         -0.691236
   6         O                -0.686765         -0.588497
   7         O                -0.621360         -0.497889

 Normal termination of Gaussian 09 at Tue Dec 15 17:06:55 2015.
