 Gaussian 09, Revision D.01,
 Gaussian 09:  ES64L-G09RevD.01 24-Apr-2013

 ------------------------------------------------------------
 #P AM1(Input,print) CIS(Singlets,NStates=15) pop(full) force
 ------------------------------------------------------------

 -----------------
 AM1-Reparam Input
 -----------------
 Symbolic Z-matrix:
 Charge =  0 Multiplicity = 1

                         Standard orientation:
 ---------------------------------------------------------------------
 Center     Atomic      Atomic             Coordinates (Angstroms)
 Number     Number       Type             X           Y           Z
 ---------------------------------------------------------------------
      1          6           0       -1.151780    0.428735   -0.051436
      2          6           0       -0.731541   -0.889562    0.041920
      3          8           0        0.676392   -0.968070   -0.012975
      4          6           0        1.099382    0.333947   -0.022468
      5          6           0        0.067705    1.137959    0.042047
      6          1           0        0.142793    2.267538    0.026043
      7          1           0        2.179964    0.367783    0.010261
      8          1           0       -1.272615   -1.756239    0.021526
      9          1           0       -2.163874    0.799003   -0.014409
 ---------------------------------------------------------------------

 SCF Done:  E(RAM1) =   1.42084359005     A.U. after   13 cycles

 Excitation energies and oscillator strengths:

 Excited State   1:      Singlet-A      5.9624 eV  207.94 nm  f=0.2933  <S**2>=0.000
      13 -> 14         0.69069
 This state for optimization and/or second-order correction.
 Total Energy, E(CIS) =   1.63995838803
 Copying the excited state density for this state as the 1-particle RhoCI density.

 Excited State   2:      Singlet-A      6.1396 eV  201.94 nm  f=0.0005  <S**2>=0.000
      13 -> 15         0.67213

 Excited State   3:      Singlet-A      6.6547 eV  186.31 nm  f=0.0011  <S**2>=0.000
      13 -> 16         0.64062
      13 -> 17        -0.18292
      13 -> 20         0.10508
      13 -> 21         0.10152

 Excited State   4:      Singlet-A      7.2875 eV  170.13 nm  f=0.0045  <S**2>=0.000
      11 -> 14        -0.44279
      12 -> 14         0.52751

 Excited State   5:      Singlet-A      7.5716 eV  163.75 nm  f=0.0075  <S**2>=0.000
      13 -> 16         0.16613
      13 -> 17         0.62865
      13 -> 18        -0.14694
      13 -> 22        -0.11883

 Excited State   6:      Singlet-A      8.0689 eV  153.66 nm  f=0.0017  <S**2>=0.000
      12 -> 14         0.11222
      13 -> 18        -0.22045
      13 -> 19         0.45470
      13 -> 22         0.43976

 Excited State   7:      Singlet-A      8.1542 eV  152.05 nm  f=0.0027  <S**2>=0.000
      11 -> 14        -0.34655
      12 -> 14        -0.24405
      13 -> 17         0.14555
      13 -> 18         0.47582
      13 -> 19         0.18525
      13 -> 22         0.13924

 Excited State   8:      Singlet-A      8.5118 eV  145.66 nm  f=0.0078  <S**2>=0.000
      10 -> 14         0.60297
      13 -> 19        -0.21586
      13 -> 21         0.12786
      13 -> 22         0.18056

 Excited State   9:      Singlet-A      8.6454 eV  143.41 nm  f=0.0006  <S**2>=0.000
      10 -> 14         0.31002
      12 -> 15        -0.11061
      12 -> 16        -0.11375
      13 -> 19         0.39857
      13 -> 20        -0.18120
      13 -> 21        -0.23720
      13 -> 22        -0.30913

 Excited State  10:      Singlet-A      8.8164 eV  140.63 nm  f=0.0038  <S**2>=0.000
      13 -> 19         0.16500
      13 -> 21         0.58181
      13 -> 22        -0.27781

 Excited State  11:      Singlet-A      8.9758 eV  138.13 nm  f=0.0688  <S**2>=0.000
      11 -> 14        -0.15114
      11 -> 15        -0.25983
      12 -> 14        -0.12376
      12 -> 15        -0.37722
      13 -> 18        -0.13275
      13 -> 20         0.41282
      13 -> 23         0.10593

 Excited State  12:      Singlet-A      9.0192 eV  137.47 nm  f=0.1165  <S**2>=0.000
      10 -> 14         0.12396
      11 -> 14         0.32649
      12 -> 14         0.28954
      12 -> 15        -0.24856
      12 -> 16         0.11599
      13 -> 18         0.36272
      13 -> 20         0.10327
      13 -> 21         0.11366

 Excited State  13:      Singlet-A      9.1526 eV  135.46 nm  f=0.0269  <S**2>=0.000
      11 -> 15         0.18134
      11 -> 16         0.11060
      12 -> 15         0.32600
      12 -> 16         0.18780
      13 -> 15        -0.12156
      13 -> 20         0.41551
      13 -> 21        -0.20218
      13 -> 22        -0.20621

 Excited State  14:      Singlet-A      9.4604 eV  131.06 nm  f=0.2034  <S**2>=0.000
       8 -> 15         0.13297
       9 -> 15         0.10258
      11 -> 14        -0.15717
      11 -> 15         0.51301
      12 -> 14        -0.14614
      12 -> 15        -0.26663
      13 -> 18        -0.10673

 Excited State  15:      Singlet-A      9.6830 eV  128.04 nm  f=0.0154  <S**2>=0.000
      11 -> 16         0.27943
      12 -> 16         0.49186
      13 -> 16         0.16405
      13 -> 20        -0.27201
      13 -> 23         0.12728

 The electronic state is 1-A.
 Alpha  occ. eigenvalues --   -1.88251  -1.19273  -0.95703  -0.78379  -0.77597
 Alpha  occ. eigenvalues --   -0.67349  -0.61415  -0.49315  -0.47944  -0.40508
 Alpha  occ. eigenvalues --   -0.36925  -0.36001  -0.24217
 Alpha virt. eigenvalues --    0.18182   0.20843   0.24410   0.28566   0.28745
 Alpha virt. eigenvalues --    0.30910   0.33781   0.34392   0.36166   0.39721
 Alpha virt. eigenvalues --    0.44301

 Mulliken charges:
               1
     1  C   -0.054129
     2  C   -1.555313
     3  O    2.762476
     4  C   -1.493410
     5  C   -0.065993
     6  H    0.053689
     7  H    0.133941
     8  H    0.155669
     9  H    0.063070
 Sum of Mulliken charges =   0.00000

 Dipole moment (field-independent basis, Debye):
    X=              5.8898    Y=             -8.1043    Z=             -0.2467  Tot=             10.0215
 N-N= 1.034377975122D+02 E-N=-1.697336748132D+02  KE=-1.584268601650D+01
 Orbital energies and kinetic energies (alpha):
                                 1                 2
   1         O                -1.882509         -1.364853
   2         O                -1.192734         -1.079411
   3         O                -0.957033         -0.885487
   4         O                -0.783791         -0.671047
   5         O                -0.775968         -0.664810
   6         O                -0.673487         -0.622723
   7         O                -0.614151         -0.544292

 Normal termination of Gaussian 09 at Tue Dec 15 17:07:55 2015.
