 Gaussian 09, Revision D.01,
 Gaussian 09:  ES64L-G09RevD.01 24-Apr-2013

 ------------------------------------------------------------
 #P AM1(Input,print) CIS(Singlets,NStates=15) pop(full) force
 ------------------------------------------------------------

 -----------------
 AM1-Reparam Input
 -----------------
 Symbolic Z-matrix:
 Charge =  0 Multiplicity = 1

                         Standard orientation:
 ---------------------------------------------------------------------
 Center     Atomic      Atomic             Coordinates (Angstroms)
 Number     Number       Type             X           Y           Z
 ---------------------------------------------------------------------
      1          6           0        1.010083    0.697276   -0.032860
      2          6           0        0.930391   -0.687172    0.030939
      3          8           0       -0.399434   -1.105088   -0.013396
      4          6           0       -1.135891   -0.028866    0.008723
      5          6           0       -0.380748    1.193153    0.008364
      6          1           0       -0.733018    2.149220   -0.013539
      7          1           0       -2.233786   -0.150229    0.002140
      8          1           0        1.729140   -1.456914   -0.030691
      9          1           0        1.890128    1.252281    0.058256
 ---------------------------------------------------------------------

 SCF Done:  E(RAM1) =   1.36940875996     A.U. after   13 cycles

 Excitation energies and oscillator strengths:

 Excited State   1:      Singlet-A      5.9031 eV  210.03 nm  f=0.3302  <S**2>=0.000
      13 -> 14         0.69279
 This state for optimization and/or second-order correction.
 Total Energy, E(CIS) =   1.58634233462
 Copying the excited state density for this state as the 1-particle RhoCI density.

 Excited State   2:      Singlet-A      6.2185 eV  199.38 nm  f=0.0011  <S**2>=0.000
      12 -> 15        -0.10298
      13 -> 15         0.65723
      13 -> 17        -0.19919

 Excited State   3:      Singlet-A      6.7576 eV  183.47 nm  f=0.0002  <S**2>=0.000
      12 -> 15         0.10568
      12 -> 16         0.13673
      13 -> 16         0.64709
      13 -> 19        -0.10566
      13 -> 21        -0.13769

 Excited State   4:      Singlet-A      7.4037 eV  167.46 nm  f=0.0007  <S**2>=0.000
      11 -> 14         0.69003

 Excited State   5:      Singlet-A      7.8063 eV  158.83 nm  f=0.0142  <S**2>=0.000
      12 -> 15        -0.13468
      13 -> 15         0.17724
      13 -> 17         0.63490
      13 -> 21        -0.10649
      13 -> 22         0.10492

 Excited State   6:      Singlet-A      8.0538 eV  153.94 nm  f=0.0023  <S**2>=0.000
      12 -> 15        -0.16380
      12 -> 16        -0.13714
      13 -> 16        -0.10690
      13 -> 17        -0.14298
      13 -> 19        -0.24768
      13 -> 20        -0.10240
      13 -> 21        -0.28201
      13 -> 22         0.49789

 Excited State   7:      Singlet-A      8.2503 eV  150.28 nm  f=0.0698  <S**2>=0.000
      10 -> 14        -0.21877
      12 -> 14         0.63118
      13 -> 18         0.19351

 Excited State   8:      Singlet-A      8.3592 eV  148.32 nm  f=0.0102  <S**2>=0.000
      10 -> 14         0.64668
      12 -> 14         0.20306

 Excited State   9:      Singlet-A      8.6990 eV  142.53 nm  f=0.0028  <S**2>=0.000
      12 -> 15         0.51816
      13 -> 17         0.10561
      13 -> 20         0.32884
      13 -> 22         0.23499

 Excited State  10:      Singlet-A      8.7842 eV  141.14 nm  f=0.0004  <S**2>=0.000
      12 -> 15        -0.24582
      13 -> 15        -0.10842
      13 -> 16         0.14575
      13 -> 19         0.37906
      13 -> 20         0.38582
      13 -> 22         0.27195

 Excited State  11:      Singlet-A      8.8729 eV  139.73 nm  f=0.0036  <S**2>=0.000
      12 -> 15         0.23839
      13 -> 18         0.11218
      13 -> 19         0.48216
      13 -> 20        -0.27824
      13 -> 21        -0.29520

 Excited State  12:      Singlet-A      9.3218 eV  133.00 nm  f=0.0698  <S**2>=0.000
      12 -> 16         0.30081
      13 -> 18         0.22615
      13 -> 20        -0.30720
      13 -> 21         0.39696
      13 -> 22         0.28133

 Excited State  13:      Singlet-A      9.5264 eV  130.15 nm  f=0.1371  <S**2>=0.000
       9 -> 15         0.10307
      11 -> 15         0.13297
      12 -> 14        -0.17953
      12 -> 16        -0.31088
      13 -> 18         0.52011
      13 -> 19        -0.12962

 Excited State  14:      Singlet-A      9.6352 eV  128.68 nm  f=0.0441  <S**2>=0.000
      11 -> 15         0.10893
      12 -> 16         0.46527
      13 -> 16        -0.14915
      13 -> 18         0.18322
      13 -> 20         0.15663
      13 -> 21        -0.33933

 Excited State  15:      Singlet-A      9.8366 eV  126.04 nm  f=0.1619  <S**2>=0.000
       8 -> 15         0.21701
       8 -> 16         0.11438
       9 -> 15         0.19136
      10 -> 15        -0.21885
      10 -> 16        -0.15785
      10 -> 17         0.16378
      11 -> 15         0.31956
      11 -> 16        -0.31638
      11 -> 19         0.10169
      13 -> 18        -0.17119

 The electronic state is 1-A.
 Alpha  occ. eigenvalues --   -1.88754  -1.16038  -0.93818  -0.79165  -0.76190
 Alpha  occ. eigenvalues --   -0.67401  -0.60739  -0.50107  -0.47464  -0.41647
 Alpha  occ. eigenvalues --   -0.38820  -0.36656  -0.25209
 Alpha virt. eigenvalues --    0.16320   0.20091   0.22733   0.28675   0.31293
 Alpha virt. eigenvalues --    0.31498   0.32498   0.33822   0.34569   0.41412
 Alpha virt. eigenvalues --    0.46873

 Mulliken charges:
               1
     1  C   -0.004991
     2  C   -1.560508
     3  O    2.789952
     4  C   -1.594140
     5  C   -0.096592
     6  H    0.069325
     7  H    0.176422
     8  H    0.158516
     9  H    0.062018
 Sum of Mulliken charges =   0.00000

 Dipole moment (field-independent basis, Debye):
    X=             -3.3254    Y=             -8.7775    Z=             -0.4759  Tot=              9.3984
 N-N= 1.028857229779D+02 E-N=-1.687941938015D+02  KE=-1.579826342829D+01
 Orbital energies and kinetic energies (alpha):
                                 1                 2
   1         O                -1.887544         -1.377676
   2         O                -1.160383         -1.063092
   3         O                -0.938183         -0.856985
   4         O                -0.791650         -0.640503
   5         O                -0.761899         -0.687776
   6         O                -0.674011         -0.626208
   7         O                -0.607392         -0.526573

 Normal termination of Gaussian 09 at Tue Dec 15 17:07:56 2015.
