 Gaussian 09, Revision D.01,
 Gaussian 09:  ES64L-G09RevD.01 24-Apr-2013

 ------------------------------------------------------------
 #P AM1(Input,print) CIS(Singlets,NStates=15) pop(full) force
 ------------------------------------------------------------

 -----------------
 AM1-Reparam Input
 -----------------
 Symbolic Z-matrix:
 Charge =  0 Multiplicity = 1

                         Standard orientation:
 ---------------------------------------------------------------------
 Center     Atomic      Atomic             Coordinates (Angstroms)
 Number     Number       Type             X           Y           Z
 ---------------------------------------------------------------------
      1          6           0        0.757171    0.896867   -0.007864
      2          6           0        1.115852   -0.438017   -0.018797
      3          8           0       -0.113448   -1.144788    0.022470
      4          6           0       -1.135647   -0.256853   -0.027972
      5          6           0       -0.613125    0.984238    0.020463
      6          1           0       -1.228986    1.966866   -0.028794
      7          1           0       -2.111270   -0.674049    0.012461
      8          1           0        1.989501   -0.939612   -0.011258
      9          1           0        1.512834    1.687690    0.052856
 ---------------------------------------------------------------------

 SCF Done:  E(RAM1) =   2.04099521756     A.U. after   13 cycles

 Excitation energies and oscillator strengths:

 Excited State   1:      Singlet-A      5.5614 eV  222.94 nm  f=0.3166  <S**2>=0.000
      13 -> 14         0.69053
 This state for optimization and/or second-order correction.
 Total Energy, E(CIS) =   2.24537151103
 Copying the excited state density for this state as the 1-particle RhoCI density.

 Excited State   2:      Singlet-A      6.9429 eV  178.58 nm  f=0.0150  <S**2>=0.000
      12 -> 14        -0.10041
      13 -> 15         0.63401
      13 -> 16         0.18145
      13 -> 17         0.18088

 Excited State   3:      Singlet-A      7.0650 eV  175.49 nm  f=0.0002  <S**2>=0.000
      11 -> 14        -0.14370
      12 -> 14         0.67343

 Excited State   4:      Singlet-A      7.3297 eV  169.15 nm  f=0.0057  <S**2>=0.000
      11 -> 14        -0.18357
      13 -> 15        -0.14381
      13 -> 16         0.59492
      13 -> 18        -0.17080
      13 -> 20        -0.13350

 Excited State   5:      Singlet-A      7.4632 eV  166.13 nm  f=0.0031  <S**2>=0.000
      11 -> 14         0.65861
      12 -> 14         0.11880
      13 -> 16         0.19669

 Excited State   6:      Singlet-A      8.2132 eV  150.96 nm  f=0.0006  <S**2>=0.000
      13 -> 16         0.13875
      13 -> 18         0.43083
      13 -> 19         0.30996
      13 -> 20         0.33914
      13 -> 21        -0.23809

 Excited State   7:      Singlet-A      8.8221 eV  140.54 nm  f=0.1116  <S**2>=0.000
      10 -> 14         0.69021

 Excited State   8:      Singlet-A      8.8446 eV  140.18 nm  f=0.0081  <S**2>=0.000
      10 -> 15        -0.11852
      10 -> 16         0.11274
      13 -> 15        -0.17674
      13 -> 17         0.63529
      13 -> 19        -0.11234

 Excited State   9:      Singlet-A      9.4796 eV  130.79 nm  f=0.0754  <S**2>=0.000
      11 -> 15         0.28647
      11 -> 16         0.17784
      11 -> 17         0.17705
      12 -> 16         0.19122
      12 -> 18        -0.22134
      12 -> 19        -0.10073
      13 -> 18        -0.26797
      13 -> 19         0.24235
      13 -> 20         0.14769

 Excited State  10:      Singlet-A      9.5110 eV  130.36 nm  f=0.0429  <S**2>=0.000
      10 -> 16         0.11032
      11 -> 15        -0.20939
      11 -> 16        -0.15834
      11 -> 17        -0.10513
      12 -> 16        -0.13121
      12 -> 18         0.14790
      13 -> 18        -0.28183
      13 -> 19         0.45517

 Excited State  11:      Singlet-A      9.6022 eV  129.12 nm  f=0.0164  <S**2>=0.000
      10 -> 16        -0.12304
      13 -> 18        -0.33524
      13 -> 19        -0.28092
      13 -> 20         0.39853
      13 -> 21        -0.31263

 Excited State  12:      Singlet-A      9.9327 eV  124.82 nm  f=0.0544  <S**2>=0.000
      11 -> 16        -0.15350
      12 -> 15         0.60243
      12 -> 17         0.19947
      12 -> 18         0.18695

 Excited State  13:      Singlet-A     10.1060 eV  122.68 nm  f=0.0747  <S**2>=0.000
      10 -> 16        -0.12304
      13 -> 20         0.37105
      13 -> 21         0.56924

 Excited State  14:      Singlet-A     10.2680 eV  120.75 nm  f=0.1251  <S**2>=0.000
      11 -> 16         0.50456
      11 -> 19         0.15456
      11 -> 20        -0.13103
      12 -> 16        -0.32244
      12 -> 18         0.17101

 Excited State  15:      Singlet-A     10.3930 eV  119.30 nm  f=0.0036  <S**2>=0.000
      10 -> 15         0.58804
      10 -> 16         0.19614
      13 -> 15        -0.12206
      13 -> 16         0.12249

 The electronic state is 1-A.
 Alpha  occ. eigenvalues --   -1.93551  -1.20559  -0.96202  -0.81414  -0.79678
 Alpha  occ. eigenvalues --   -0.68515  -0.64885  -0.56268  -0.54282  -0.44100
 Alpha  occ. eigenvalues --   -0.42649  -0.41872  -0.30495
 Alpha virt. eigenvalues --    0.11257   0.18964   0.21491   0.25539   0.27197
 Alpha virt. eigenvalues --    0.28345   0.29703   0.30276   0.34294   0.42905
 Alpha virt. eigenvalues --    0.47917

 Mulliken charges:
               1
     1  C   -0.187386
     2  C   -2.022437
     3  O    3.203408
     4  C   -2.012693
     5  C   -0.239576
     6  H    0.271021
     7  H    0.368061
     8  H    0.357759
     9  H    0.261844
 Sum of Mulliken charges =   0.00000

 Dipole moment (field-independent basis, Debye):
    X=             -1.5189    Y=             -9.6963    Z=              0.7365  Tot=              9.8421
 N-N= 1.042508985655D+02 E-N=-1.694427435023D+02  KE=-1.548762660913D+01
 Orbital energies and kinetic energies (alpha):
                                 1                 2
   1         O                -1.935506         -1.373986
   2         O                -1.205587         -1.063700
   3         O                -0.962024         -0.875187
   4         O                -0.814142         -0.601776
   5         O                -0.796783         -0.686282
   6         O                -0.685151         -0.570059
   7         O                -0.648846         -0.523857

 Normal termination of Gaussian 09 at Tue Dec 15 17:07:23 2015.
