 Gaussian 09, Revision D.01,
 Gaussian 09:  ES64L-G09RevD.01 24-Apr-2013

 ------------------------------------------------------------
 #P AM1(Input,print) CIS(Singlets,NStates=15) pop(full) force
 ------------------------------------------------------------

 -----------------
 AM1-Reparam Input
 -----------------
 Symbolic Z-matrix:
 Charge =  0 Multiplicity = 1

                         Standard orientation:
 ---------------------------------------------------------------------
 Center     Atomic      Atomic             Coordinates (Angstroms)
 Number     Number       Type             X           Y           Z
 ---------------------------------------------------------------------
      1          6           0        0.961004    0.714901    0.003316
      2          6           0        0.937369   -0.618462   -0.000946
      3          8           0       -0.343133   -1.143220   -0.015483
      4          6           0       -1.091747   -0.002208    0.030209
      5          6           0       -0.447050    1.116828   -0.006390
      6          1           0       -0.799831    2.085926   -0.007749
      7          1           0       -2.187945   -0.289368   -0.041894
      8          1           0        1.755621   -1.305255    0.050051
      9          1           0        1.819766    1.388099   -0.033679
 ---------------------------------------------------------------------

 SCF Done:  E(RAM1) =   2.60273084676     A.U. after   14 cycles

 Excitation energies and oscillator strengths:

 Excited State   1:      Singlet-A      5.1411 eV  241.16 nm  f=0.3483  <S**2>=0.000
      13 -> 14         0.69733
 This state for optimization and/or second-order correction.
 Total Energy, E(CIS) =   2.79166300645
 Copying the excited state density for this state as the 1-particle RhoCI density.

 Excited State   2:      Singlet-A      5.4351 eV  228.12 nm  f=0.0003  <S**2>=0.000
      13 -> 15         0.68506

 Excited State   3:      Singlet-A      6.1856 eV  200.44 nm  f=0.0012  <S**2>=0.000
      13 -> 16         0.66929
      13 -> 18        -0.14572

 Excited State   4:      Singlet-A      6.6592 eV  186.18 nm  f=0.0000  <S**2>=0.000
      12 -> 14         0.70043

 Excited State   5:      Singlet-A      7.5464 eV  164.30 nm  f=0.0016  <S**2>=0.000
      13 -> 17        -0.38068
      13 -> 18         0.50955
      13 -> 20        -0.11414
      13 -> 21         0.23532

 Excited State   6:      Singlet-A      7.9314 eV  156.32 nm  f=0.0129  <S**2>=0.000
      10 -> 14         0.37733
      11 -> 14        -0.12630
      13 -> 16         0.11998
      13 -> 17         0.45566
      13 -> 18         0.31342

 Excited State   7:      Singlet-A      8.1282 eV  152.54 nm  f=0.0003  <S**2>=0.000
      10 -> 14         0.54744
      11 -> 14        -0.18308
      13 -> 17        -0.33563
      13 -> 18        -0.18785

 Excited State   8:      Singlet-A      8.5956 eV  144.24 nm  f=0.1165  <S**2>=0.000
       8 -> 15         0.18532
      10 -> 14         0.11374
      11 -> 14         0.30328
      12 -> 15         0.55071
      12 -> 18         0.10784
      13 -> 19        -0.10106

 Excited State   9:      Singlet-A      8.6031 eV  144.12 nm  f=0.0033  <S**2>=0.000
      13 -> 19         0.67764

 Excited State  10:      Singlet-A      8.9097 eV  139.16 nm  f=0.1399  <S**2>=0.000
       8 -> 16        -0.10829
      10 -> 14         0.17637
      11 -> 14         0.54320
      12 -> 15        -0.25785
      12 -> 16         0.22308
      12 -> 17         0.10607

 Excited State  11:      Singlet-A      9.3399 eV  132.75 nm  f=0.0157  <S**2>=0.000
      11 -> 15        -0.24102
      13 -> 18        -0.25373
      13 -> 20        -0.36377
      13 -> 21         0.46690

 Excited State  12:      Singlet-A      9.4806 eV  130.78 nm  f=0.0373  <S**2>=0.000
      10 -> 17         0.13163
      11 -> 14         0.14263
      11 -> 15         0.43897
      12 -> 15        -0.17573
      12 -> 16        -0.33198
      12 -> 18         0.19807
      13 -> 20        -0.10361
      13 -> 21         0.11215

 Excited State  13:      Singlet-A      9.4972 eV  130.55 nm  f=0.0221  <S**2>=0.000
       7 -> 15        -0.10593
      10 -> 15         0.27310
      10 -> 17        -0.12044
      11 -> 14        -0.10733
      11 -> 15         0.41848
      12 -> 15         0.15985
      12 -> 16         0.27735
      12 -> 18        -0.16814
      13 -> 21         0.18511

 Excited State  14:      Singlet-A      9.7039 eV  127.77 nm  f=0.0906  <S**2>=0.000
      11 -> 16        -0.12349
      13 -> 20         0.54965
      13 -> 21         0.38941

 Excited State  15:      Singlet-A      9.8584 eV  125.77 nm  f=0.0582  <S**2>=0.000
       8 -> 15         0.11893
       9 -> 15         0.24412
      10 -> 15        -0.34418
      10 -> 16        -0.12278
      10 -> 17         0.13975
      11 -> 14        -0.10091
      11 -> 16         0.11543
      12 -> 16         0.38198
      12 -> 18         0.13264

 The electronic state is 1-A.
 Alpha  occ. eigenvalues --   -1.73267  -1.16547  -0.94790  -0.80568  -0.75688
 Alpha  occ. eigenvalues --   -0.67347  -0.64164  -0.52141  -0.49679  -0.43413
 Alpha  occ. eigenvalues --   -0.43014  -0.38785  -0.26314
 Alpha virt. eigenvalues --    0.12814   0.15651   0.19176   0.27647   0.28761
 Alpha virt. eigenvalues --    0.30683   0.33036   0.34442   0.38499   0.48750
 Alpha virt. eigenvalues --    0.51466

 Mulliken charges:
               1
     1  C   -0.070713
     2  C   -1.901206
     3  O    3.203283
     4  C   -1.852332
     5  C   -0.079043
     6  H    0.108251
     7  H    0.229118
     8  H    0.255797
     9  H    0.106845
 Sum of Mulliken charges =   0.00000

 Dipole moment (field-independent basis, Debye):
    X=             -3.5839    Y=            -11.1955    Z=             -0.4515  Tot=             11.7638
 N-N= 1.038998977117D+02 E-N=-1.690313463533D+02  KE=-1.504863285743D+01
 Orbital energies and kinetic energies (alpha):
                                 1                 2
   1         O                -1.732668         -1.226616
   2         O                -1.165472         -1.031141
   3         O                -0.947900         -0.881462
   4         O                -0.805682         -0.605197
   5         O                -0.756885         -0.676479
   6         O                -0.673466         -0.566097
   7         O                -0.641640         -0.527427

 Normal termination of Gaussian 09 at Tue Dec 15 17:06:18 2015.
