 Gaussian 09, Revision D.01,
 Gaussian 09:  ES64L-G09RevD.01 24-Apr-2013

 ------------------------------------------------------------
 #P AM1(Input,print) CIS(Singlets,NStates=15) pop(full) force
 ------------------------------------------------------------

 -----------------
 AM1-Reparam Input
 -----------------
 Symbolic Z-matrix:
 Charge =  0 Multiplicity = 1

                         Standard orientation:
 ---------------------------------------------------------------------
 Center     Atomic      Atomic             Coordinates (Angstroms)
 Number     Number       Type             X           Y           Z
 ---------------------------------------------------------------------
      1          6           0       -0.244090    1.138976    0.015891
      2          6           0       -1.154905    0.138667   -0.008544
      3          8           0       -0.490985   -1.047759    0.008506
      4          6           0        0.834666   -0.734532   -0.013608
      5          6           0        1.090518    0.567164   -0.001785
      6          1           0        1.981054    1.088215   -0.020108
      7          1           0        1.450457   -1.651998    0.033422
      8          1           0       -2.169599    0.093377   -0.031228
      9          1           0       -0.491172    2.190821   -0.001858
 ---------------------------------------------------------------------

 SCF Done:  E(RAM1) =   2.56391350478     A.U. after   14 cycles

 Excitation energies and oscillator strengths:

 Excited State   1:      Singlet-A      5.2311 eV  237.01 nm  f=0.3504  <S**2>=0.000
      13 -> 14         0.69647
 This state for optimization and/or second-order correction.
 Total Energy, E(CIS) =   2.75615309530
 Copying the excited state density for this state as the 1-particle RhoCI density.

 Excited State   2:      Singlet-A      6.0187 eV  206.00 nm  f=0.0005  <S**2>=0.000
      11 -> 15         0.11400
      13 -> 15         0.67438
      13 -> 17         0.12133

 Excited State   3:      Singlet-A      6.5579 eV  189.06 nm  f=0.0026  <S**2>=0.000
      13 -> 16         0.65555
      13 -> 17         0.12713
      13 -> 18         0.15758

 Excited State   4:      Singlet-A      6.6845 eV  185.48 nm  f=0.0001  <S**2>=0.000
       9 -> 14         0.10045
      12 -> 14         0.69256

 Excited State   5:      Singlet-A      7.6533 eV  162.00 nm  f=0.0042  <S**2>=0.000
      13 -> 15        -0.11531
      13 -> 17         0.44879
      13 -> 18        -0.44817
      13 -> 21         0.24381

 Excited State   6:      Singlet-A      8.0139 eV  154.71 nm  f=0.0060  <S**2>=0.000
      10 -> 14         0.65916
      11 -> 14        -0.15003
      13 -> 18        -0.14351

 Excited State   7:      Singlet-A      8.3140 eV  149.13 nm  f=0.0064  <S**2>=0.000
      10 -> 14         0.17347
      11 -> 16         0.11123
      13 -> 16        -0.14870
      13 -> 17         0.49079
      13 -> 18         0.37638
      13 -> 19         0.12174
      13 -> 21        -0.13563

 Excited State   8:      Singlet-A      8.7967 eV  140.94 nm  f=0.0408  <S**2>=0.000
      10 -> 14        -0.10405
      11 -> 14        -0.42903
      12 -> 15        -0.16288
      13 -> 19         0.48794

 Excited State   9:      Singlet-A      8.8033 eV  140.84 nm  f=0.0488  <S**2>=0.000
      11 -> 14         0.44612
      12 -> 15         0.18580
      13 -> 19         0.46803

 Excited State  10:      Singlet-A      9.1336 eV  135.74 nm  f=0.1087  <S**2>=0.000
       8 -> 15        -0.13478
      11 -> 14        -0.23868
      12 -> 15         0.52732
      12 -> 16        -0.18364
      12 -> 17         0.13705
      12 -> 18        -0.17871

 Excited State  11:      Singlet-A      9.4734 eV  130.88 nm  f=0.0039  <S**2>=0.000
      13 -> 18         0.30110
      13 -> 20        -0.34628
      13 -> 21         0.51901

 Excited State  12:      Singlet-A      9.7398 eV  127.30 nm  f=0.1180  <S**2>=0.000
       9 -> 16         0.10512
      10 -> 15         0.18500
      10 -> 16         0.21226
      10 -> 17         0.21948
      11 -> 14        -0.10339
      11 -> 15        -0.13321
      12 -> 15         0.23778
      12 -> 17        -0.27216
      12 -> 18         0.30537
      12 -> 19         0.14289
      12 -> 21        -0.10979

 Excited State  13:      Singlet-A      9.7474 eV  127.20 nm  f=0.0691  <S**2>=0.000
       9 -> 16        -0.10391
      10 -> 16        -0.16509
      12 -> 15         0.12723
      12 -> 16         0.60594
      12 -> 17         0.16502

 Excited State  14:      Singlet-A      9.8270 eV  126.17 nm  f=0.1005  <S**2>=0.000
      11 -> 15         0.12946
      13 -> 20         0.57060
      13 -> 21         0.36619

 Excited State  15:      Singlet-A      9.9058 eV  125.16 nm  f=0.0055  <S**2>=0.000
       7 -> 15        -0.13997
      10 -> 15         0.15777
      11 -> 15         0.61602
      13 -> 15        -0.13959
      13 -> 20        -0.13201

 The electronic state is 1-A.
 Alpha  occ. eigenvalues --   -1.74493  -1.16115  -0.96291  -0.81556  -0.76614
 Alpha  occ. eigenvalues --   -0.67727  -0.64751  -0.54809  -0.50153  -0.44616
 Alpha  occ. eigenvalues --   -0.44076  -0.40065  -0.28162
 Alpha virt. eigenvalues --    0.11451   0.16399   0.19288   0.26075   0.27815
 Alpha virt. eigenvalues --    0.29435   0.31602   0.32653   0.39216   0.48639
 Alpha virt. eigenvalues --    0.52855

 Mulliken charges:
               1
     1  C   -0.093973
     2  C   -1.911267
     3  O    3.220349
     4  C   -1.893891
     5  C   -0.050386
     6  H    0.115243
     7  H    0.243183
     8  H    0.251436
     9  H    0.119305
 Sum of Mulliken charges =   0.00000

 Dipole moment (field-independent basis, Debye):
    X=             -4.2368    Y=            -10.0194    Z=              0.2809  Tot=             10.8820
 N-N= 1.040430553121D+02 E-N=-1.690947176129D+02  KE=-1.507499810423D+01
 Orbital energies and kinetic energies (alpha):
                                 1                 2
   1         O                -1.744932         -1.241559
   2         O                -1.161152         -1.017186
   3         O                -0.962909         -0.871347
   4         O                -0.815562         -0.624399
   5         O                -0.766143         -0.687802
   6         O                -0.677266         -0.571922
   7         O                -0.647513         -0.524027

 Normal termination of Gaussian 09 at Tue Dec 15 17:06:20 2015.
