 Gaussian 09, Revision D.01,
 Gaussian 09:  ES64L-G09RevD.01 24-Apr-2013

 ------------------------------------------------------------
 #P AM1(Input,print) CIS(Singlets,NStates=15) pop(full) force
 ------------------------------------------------------------

 -----------------
 AM1-Reparam Input
 -----------------
 Symbolic Z-matrix:
 Charge =  0 Multiplicity = 1

                         Standard orientation:
 ---------------------------------------------------------------------
 Center     Atomic      Atomic             Coordinates (Angstroms)
 Number     Number       Type             X           Y           Z
 ---------------------------------------------------------------------
      1          6           0        0.070270    1.220215    0.033094
      2          6           0        1.095662    0.248151    0.007007
      3          8           0        0.629743   -0.973439   -0.014514
      4          6           0       -0.702132   -0.852046    0.007143
      5          6           0       -1.140103    0.409482   -0.025611
      6          1           0       -2.147956    0.807186   -0.000010
      7          1           0       -1.313116   -1.781554    0.064889
      8          1           0        2.230622    0.359411   -0.013713
      9          1           0        0.250327    2.247660   -0.064854
 ---------------------------------------------------------------------

 SCF Done:  E(RAM1) =   2.10491331855     A.U. after   13 cycles

 Excitation energies and oscillator strengths:

 Excited State   1:      Singlet-A      5.5137 eV  224.87 nm  f=0.3606  <S**2>=0.000
      13 -> 14         0.69536
 This state for optimization and/or second-order correction.
 Total Energy, E(CIS) =   2.30753699366
 Copying the excited state density for this state as the 1-particle RhoCI density.

 Excited State   2:      Singlet-A      6.3740 eV  194.52 nm  f=0.0025  <S**2>=0.000
      11 -> 15        -0.11407
      13 -> 15         0.66530
      13 -> 17        -0.16635

 Excited State   3:      Singlet-A      6.5161 eV  190.27 nm  f=0.0022  <S**2>=0.000
      11 -> 16         0.11511
      13 -> 16         0.67231
      13 -> 19         0.11107

 Excited State   4:      Singlet-A      7.2261 eV  171.58 nm  f=0.0008  <S**2>=0.000
      12 -> 14         0.69795

 Excited State   5:      Singlet-A      8.1307 eV  152.49 nm  f=0.0062  <S**2>=0.000
      10 -> 14         0.45679
      13 -> 15        -0.10885
      13 -> 17        -0.38440
      13 -> 18         0.23265
      13 -> 19        -0.11707
      13 -> 21        -0.19916

 Excited State   6:      Singlet-A      8.2117 eV  150.99 nm  f=0.0028  <S**2>=0.000
      10 -> 14         0.48834
      13 -> 17         0.16764
      13 -> 18        -0.34810
      13 -> 19         0.17159
      13 -> 21         0.23870

 Excited State   7:      Singlet-A      8.4599 eV  146.55 nm  f=0.0105  <S**2>=0.000
      10 -> 14         0.18154
      13 -> 17         0.51963
      13 -> 18         0.35781
      13 -> 21        -0.16101

 Excited State   8:      Singlet-A      8.8743 eV  139.71 nm  f=0.0949  <S**2>=0.000
      10 -> 14        -0.11028
      11 -> 14         0.66382
      12 -> 16        -0.10807

 Excited State   9:      Singlet-A      9.1034 eV  136.20 nm  f=0.0015  <S**2>=0.000
      13 -> 18         0.25784
      13 -> 19         0.62693

 Excited State  10:      Singlet-A      9.6186 eV  128.90 nm  f=0.0730  <S**2>=0.000
       8 -> 15        -0.12819
      10 -> 17         0.12081
      12 -> 15        -0.24491
      12 -> 16         0.32985
      12 -> 18        -0.13219
      13 -> 18        -0.21990
      13 -> 20         0.23559
      13 -> 21        -0.32767

 Excited State  11:      Singlet-A      9.6397 eV  128.62 nm  f=0.0585  <S**2>=0.000
       8 -> 15        -0.10421
      12 -> 15        -0.21277
      12 -> 16         0.29596
      12 -> 18        -0.10381
      13 -> 18         0.24584
      13 -> 20        -0.10791
      13 -> 21         0.44184

 Excited State  12:      Singlet-A      9.7641 eV  126.98 nm  f=0.0222  <S**2>=0.000
       7 -> 15         0.10761
      11 -> 15         0.61408
      12 -> 16         0.14967
      13 -> 15         0.13401
      13 -> 20        -0.17644

 Excited State  13:      Singlet-A      9.9526 eV  124.57 nm  f=0.0876  <S**2>=0.000
      11 -> 16         0.21962
      12 -> 15         0.20496
      13 -> 19         0.10233
      13 -> 20         0.55504
      13 -> 21         0.23623

 Excited State  14:      Singlet-A     10.0145 eV  123.80 nm  f=0.0526  <S**2>=0.000
      10 -> 15        -0.12059
      11 -> 14         0.11055
      11 -> 15        -0.18623
      12 -> 15         0.45668
      12 -> 16         0.35644
      13 -> 20        -0.17642

 Excited State  15:      Singlet-A     10.1783 eV  121.81 nm  f=0.0796  <S**2>=0.000
       9 -> 15        -0.15609
      10 -> 15         0.44973
      10 -> 16         0.11730
      10 -> 17        -0.23870
      11 -> 16         0.21977
      12 -> 15        -0.15738
      12 -> 16         0.20034
      12 -> 18         0.16591

 The electronic state is 1-A.
 Alpha  occ. eigenvalues --   -1.94835  -1.18505  -0.92098  -0.81220  -0.76955
 Alpha  occ. eigenvalues --   -0.69138  -0.66401  -0.54028  -0.53267  -0.45269
 Alpha  occ. eigenvalues --   -0.44207  -0.42052  -0.29313
 Alpha virt. eigenvalues --    0.11400   0.16404   0.17251   0.25812   0.27938
 Alpha virt. eigenvalues --    0.29299   0.31045   0.32351   0.34686   0.42978
 Alpha virt. eigenvalues --    0.47104

 Mulliken charges:
               1
     1  C   -0.169559
     2  C   -1.910029
     3  O    3.196810
     4  C   -1.884979
     5  C   -0.098459
     6  H    0.152089
     7  H    0.279986
     8  H    0.277243
     9  H    0.156899
 Sum of Mulliken charges =   0.00000

 Dipole moment (field-independent basis, Debye):
    X=              5.5058    Y=             -9.0036    Z=             -0.2952  Tot=             10.5577
 N-N= 1.042009146229D+02 E-N=-1.695293569340D+02  KE=-1.531689670175D+01
 Orbital energies and kinetic energies (alpha):
                                 1                 2
   1         O                -1.948345         -1.391077
   2         O                -1.185046         -1.050784
   3         O                -0.920979         -0.873575
   4         O                -0.812197         -0.562067
   5         O                -0.769547         -0.673017
   6         O                -0.691379         -0.590436
   7         O                -0.664011         -0.526975

 Normal termination of Gaussian 09 at Tue Dec 15 17:08:48 2015.
