 Gaussian 09, Revision D.01,
 Gaussian 09:  ES64L-G09RevD.01 24-Apr-2013

 ------------------------------------------------------------
 #P AM1(Input,print) CIS(Singlets,NStates=15) pop(full) force
 ------------------------------------------------------------

 -----------------
 AM1-Reparam Input
 -----------------
 Symbolic Z-matrix:
 Charge =  0 Multiplicity = 1

                         Standard orientation:
 ---------------------------------------------------------------------
 Center     Atomic      Atomic             Coordinates (Angstroms)
 Number     Number       Type             X           Y           Z
 ---------------------------------------------------------------------
      1          6           0       -0.948388    0.813173   -0.020257
      2          6           0       -0.985423   -0.618480   -0.014085
      3          8           0        0.261296   -1.072863    0.015507
      4          6           0        1.185691   -0.120481   -0.012115
      5          6           0        0.485941    1.046557    0.028516
      6          1           0        0.912059    2.022266   -0.028832
      7          1           0        2.133718   -0.338212   -0.046274
      8          1           0       -1.858493   -1.254421    0.018396
      9          1           0       -1.704583    1.428654    0.040298
 ---------------------------------------------------------------------

 SCF Done:  E(RAM1) =   1.37475944903     A.U. after   13 cycles

 Excitation energies and oscillator strengths:

 Excited State   1:      Singlet-A      5.9409 eV  208.70 nm  f=0.3320  <S**2>=0.000
      13 -> 14         0.69179
 This state for optimization and/or second-order correction.
 Total Energy, E(CIS) =   1.59308434500
 Copying the excited state density for this state as the 1-particle RhoCI density.

 Excited State   2:      Singlet-A      6.5203 eV  190.15 nm  f=0.0071  <S**2>=0.000
      13 -> 15         0.64176
      13 -> 17        -0.23941

 Excited State   3:      Singlet-A      7.0866 eV  174.95 nm  f=0.0009  <S**2>=0.000
       9 -> 14         0.10044
      11 -> 14         0.62908
      12 -> 14         0.19475
      13 -> 16        -0.17973

 Excited State   4:      Singlet-A      7.1938 eV  172.35 nm  f=0.0008  <S**2>=0.000
      11 -> 14         0.19974
      12 -> 15         0.13309
      13 -> 16         0.59298
      13 -> 18         0.11375
      13 -> 19        -0.13378
      13 -> 22        -0.18080

 Excited State   5:      Singlet-A      7.7454 eV  160.07 nm  f=0.0027  <S**2>=0.000
      12 -> 15        -0.15914
      13 -> 15         0.16879
      13 -> 17         0.49151
      13 -> 18         0.13437
      13 -> 19         0.14489
      13 -> 21         0.29836
      13 -> 22        -0.21552

 Excited State   6:      Singlet-A      8.2956 eV  149.46 nm  f=0.0071  <S**2>=0.000
      10 -> 14         0.12566
      12 -> 16        -0.12930
      13 -> 15        -0.12737
      13 -> 16        -0.10014
      13 -> 17        -0.40444
      13 -> 18         0.18652
      13 -> 19         0.10115
      13 -> 20        -0.13629
      13 -> 21         0.40670
      13 -> 22        -0.18331

 Excited State   7:      Singlet-A      8.3554 eV  148.39 nm  f=0.1035  <S**2>=0.000
      11 -> 14        -0.20638
      12 -> 14         0.64415
      13 -> 20         0.14324

 Excited State   8:      Singlet-A      8.4709 eV  146.36 nm  f=0.0014  <S**2>=0.000
       9 -> 14         0.10424
      10 -> 14         0.67366
      13 -> 17         0.13017

 Excited State   9:      Singlet-A      8.8149 eV  140.65 nm  f=0.0074  <S**2>=0.000
      12 -> 15         0.33047
      13 -> 18         0.23871
      13 -> 19         0.49029
      13 -> 22         0.25031

 Excited State  10:      Singlet-A      9.0408 eV  137.14 nm  f=0.0022  <S**2>=0.000
      13 -> 16        -0.10532
      13 -> 18         0.58895
      13 -> 19        -0.30899
      13 -> 21        -0.13772
      13 -> 22         0.10009

 Excited State  11:      Singlet-A      9.2997 eV  133.32 nm  f=0.0027  <S**2>=0.000
      11 -> 15        -0.10866
      12 -> 15         0.51731
      12 -> 17        -0.13607
      13 -> 15         0.12352
      13 -> 16        -0.23120
      13 -> 19        -0.22842
      13 -> 21         0.14666
      13 -> 22        -0.13804

 Excited State  12:      Singlet-A      9.4753 eV  130.85 nm  f=0.0642  <S**2>=0.000
      12 -> 16         0.23849
      13 -> 19        -0.18538
      13 -> 20        -0.25664
      13 -> 21         0.30534
      13 -> 22         0.45759

 Excited State  13:      Singlet-A      9.7078 eV  127.72 nm  f=0.0133  <S**2>=0.000
       8 -> 15         0.10418
      11 -> 15         0.47634
      11 -> 17        -0.21640
      13 -> 20         0.26298
      13 -> 21         0.16712
      13 -> 22         0.14766

 Excited State  14:      Singlet-A     10.0138 eV  123.81 nm  f=0.2026  <S**2>=0.000
      10 -> 15         0.10414
      10 -> 16         0.14792
      10 -> 17        -0.14039
      11 -> 17         0.30198
      11 -> 18         0.18581
      11 -> 19         0.13116
      12 -> 14        -0.12369
      12 -> 16         0.17042
      13 -> 20         0.39590
      13 -> 21         0.10120

 Excited State  15:      Singlet-A     10.0344 eV  123.56 nm  f=0.0078  <S**2>=0.000
       9 -> 15        -0.10213
      10 -> 15         0.11051
      11 -> 15         0.27179
      11 -> 16         0.33541
      11 -> 18         0.21632
      11 -> 22        -0.12315
      12 -> 16         0.23978
      13 -> 20        -0.27223
      13 -> 21        -0.16153
      13 -> 22        -0.12875

 The electronic state is 1-A.
 Alpha  occ. eigenvalues --   -1.91012  -1.17847  -0.98153  -0.80123  -0.77687
 Alpha  occ. eigenvalues --   -0.68806  -0.62715  -0.53207  -0.47973  -0.43215
 Alpha  occ. eigenvalues --   -0.38745  -0.38074  -0.26724
 Alpha virt. eigenvalues --    0.15132   0.21217   0.23670   0.27367   0.30551
 Alpha virt. eigenvalues --    0.31387   0.32186   0.32540   0.33143   0.41354
 Alpha virt. eigenvalues --    0.48671

 Mulliken charges:
               1
     1  C   -0.062333
     2  C   -1.644937
     3  O    2.840264
     4  C   -1.594945
     5  C   -0.064937
     6  H    0.074124
     7  H    0.180336
     8  H    0.194342
     9  H    0.078086
 Sum of Mulliken charges =   0.00000

 Dipole moment (field-independent basis, Debye):
    X=              1.8668    Y=             -8.1089    Z=              0.3400  Tot=              8.3280
 N-N= 1.040125510389D+02 E-N=-1.704582162424D+02  KE=-1.593171884617D+01
 Orbital energies and kinetic energies (alpha):
                                 1                 2
   1         O                -1.910124         -1.413624
   2         O                -1.178469         -1.057603
   3         O                -0.981528         -0.880733
   4         O                -0.801230         -0.640815
   5         O                -0.776874         -0.716768
   6         O                -0.688059         -0.624129
   7         O                -0.627151         -0.537240

 Normal termination of Gaussian 09 at Tue Dec 15 17:08:00 2015.
