 Gaussian 09, Revision D.01,
 Gaussian 09:  ES64L-G09RevD.01 24-Apr-2013

 ------------------------------------------------------------
 #P AM1(Input,print) CIS(Singlets,NStates=15) pop(full) force
 ------------------------------------------------------------

 -----------------
 AM1-Reparam Input
 -----------------
 Symbolic Z-matrix:
 Charge =  0 Multiplicity = 1

                         Standard orientation:
 ---------------------------------------------------------------------
 Center     Atomic      Atomic             Coordinates (Angstroms)
 Number     Number       Type             X           Y           Z
 ---------------------------------------------------------------------
      1          6           0       -0.357273    1.107183    0.008426
      2          6           0       -1.134583   -0.015534   -0.019840
      3          8           0       -0.369875   -1.079863    0.012951
      4          6           0        0.918742   -0.623146   -0.030174
      5          6           0        0.961139    0.656778    0.000726
      6          1           0        1.851394    1.255369    0.024804
      7          1           0        1.690044   -1.408432    0.072972
      8          1           0       -2.200424   -0.150930    0.036690
      9          1           0       -0.710163    2.191213    0.007102
 ---------------------------------------------------------------------

 SCF Done:  E(RAM1) =   2.08298581350     A.U. after   13 cycles

 Excitation energies and oscillator strengths:

 Excited State   1:      Singlet-A      5.4648 eV  226.88 nm  f=0.3307  <S**2>=0.000
      13 -> 14         0.69385
 This state for optimization and/or second-order correction.
 Total Energy, E(CIS) =   2.28381232122
 Copying the excited state density for this state as the 1-particle RhoCI density.

 Excited State   2:      Singlet-A      6.7416 eV  183.91 nm  f=0.0104  <S**2>=0.000
      13 -> 15         0.62184
      13 -> 16        -0.18871
      13 -> 17         0.23032

 Excited State   3:      Singlet-A      6.8380 eV  181.32 nm  f=0.0011  <S**2>=0.000
      12 -> 14        -0.34598
      13 -> 15         0.20484
      13 -> 16         0.51699
      13 -> 18        -0.20756

 Excited State   4:      Singlet-A      6.8818 eV  180.16 nm  f=0.0001  <S**2>=0.000
      12 -> 14         0.60430
      13 -> 16         0.32732
      13 -> 18        -0.10899

 Excited State   5:      Singlet-A      7.6723 eV  161.60 nm  f=0.0067  <S**2>=0.000
      11 -> 14         0.69966

 Excited State   6:      Singlet-A      8.0370 eV  154.27 nm  f=0.0009  <S**2>=0.000
      13 -> 16         0.17405
      13 -> 18         0.42869
      13 -> 19        -0.32043
      13 -> 20         0.28747
      13 -> 21        -0.28037

 Excited State   7:      Singlet-A      8.5728 eV  144.63 nm  f=0.0174  <S**2>=0.000
      10 -> 16        -0.13847
      13 -> 15        -0.20144
      13 -> 17         0.64475

 Excited State   8:      Singlet-A      8.9433 eV  138.63 nm  f=0.0808  <S**2>=0.000
      10 -> 14         0.63554
      13 -> 18         0.10971
      13 -> 19         0.14672

 Excited State   9:      Singlet-A      8.9672 eV  138.26 nm  f=0.0085  <S**2>=0.000
      10 -> 14        -0.18393
      13 -> 16         0.16641
      13 -> 18         0.37760
      13 -> 19         0.51451

 Excited State  10:      Singlet-A      9.4582 eV  131.09 nm  f=0.0144  <S**2>=0.000
       8 -> 15        -0.10609
      10 -> 14        -0.15545
      11 -> 15         0.22386
      11 -> 17         0.22077
      12 -> 16         0.32775
      12 -> 18        -0.28849
      12 -> 19         0.16105
      12 -> 20        -0.12037
      13 -> 18         0.11806
      13 -> 19        -0.12876
      13 -> 20        -0.19251
      13 -> 21         0.10426

 Excited State  11:      Singlet-A      9.4867 eV  130.69 nm  f=0.0204  <S**2>=0.000
      12 -> 16         0.14654
      12 -> 18        -0.12732
      13 -> 18        -0.26362
      13 -> 19         0.27359
      13 -> 20         0.46070
      13 -> 21        -0.23194

 Excited State  12:      Singlet-A      9.8381 eV  126.02 nm  f=0.0845  <S**2>=0.000
      11 -> 15         0.25067
      11 -> 16        -0.20463
      11 -> 17         0.12625
      11 -> 18         0.11386
      12 -> 15         0.46353
      12 -> 16        -0.25328
      12 -> 17         0.23162

 Excited State  13:      Singlet-A      9.9502 eV  124.61 nm  f=0.0889  <S**2>=0.000
      11 -> 15        -0.12897
      12 -> 15         0.15507
      12 -> 16         0.18257
      13 -> 20         0.32844
      13 -> 21         0.51309

 Excited State  14:      Singlet-A      9.9619 eV  124.46 nm  f=0.1917  <S**2>=0.000
      11 -> 15        -0.27082
      11 -> 16        -0.15969
      11 -> 17        -0.12759
      12 -> 15         0.29655
      12 -> 16         0.36797
      12 -> 19        -0.14204
      13 -> 20        -0.17285
      13 -> 21        -0.25781

 Excited State  15:      Singlet-A     10.3223 eV  120.11 nm  f=0.0033  <S**2>=0.000
      10 -> 15         0.60752
      10 -> 16        -0.14691
      10 -> 17         0.13160
      13 -> 16        -0.12533
      13 -> 21         0.10457

 The electronic state is 1-A.
 Alpha  occ. eigenvalues --   -1.95694  -1.22356  -0.96551  -0.82543  -0.78870
 Alpha  occ. eigenvalues --   -0.68847  -0.66350  -0.54702  -0.53519  -0.44460
 Alpha  occ. eigenvalues --   -0.42940  -0.40761  -0.29355
 Alpha virt. eigenvalues --    0.11919   0.18999   0.19329   0.25711   0.27442
 Alpha virt. eigenvalues --    0.28974   0.30224   0.31595   0.37228   0.46133
 Alpha virt. eigenvalues --    0.50402

 Mulliken charges:
               1
     1  C   -0.260955
     2  C   -2.025754
     3  O    3.179839
     4  C   -1.984599
     5  C   -0.171703
     6  H    0.253172
     7  H    0.368772
     8  H    0.378818
     9  H    0.262410
 Sum of Mulliken charges =   0.00000

 Dipole moment (field-independent basis, Debye):
    X=             -3.0120    Y=             -9.5572    Z=              0.8715  Tot=             10.0584
 N-N= 1.052664564714D+02 E-N=-1.712640285348D+02  KE=-1.556392977142D+01
 Orbital energies and kinetic energies (alpha):
                                 1                 2
   1         O                -1.956943         -1.421510
   2         O                -1.223563         -1.082937
   3         O                -0.965515         -0.878785
   4         O                -0.825434         -0.594979
   5         O                -0.788700         -0.679338
   6         O                -0.688466         -0.562330
   7         O                -0.663501         -0.536886

 Normal termination of Gaussian 09 at Tue Dec 15 17:07:29 2015.
