 Gaussian 09, Revision D.01,
 Gaussian 09:  ES64L-G09RevD.01 24-Apr-2013

 ------------------------------------------------------------
 #P AM1(Input,print) CIS(Singlets,NStates=15) pop(full) force
 ------------------------------------------------------------

 -----------------
 AM1-Reparam Input
 -----------------
 Symbolic Z-matrix:
 Charge =  0 Multiplicity = 1

                         Standard orientation:
 ---------------------------------------------------------------------
 Center     Atomic      Atomic             Coordinates (Angstroms)
 Number     Number       Type             X           Y           Z
 ---------------------------------------------------------------------
      1          6           0        1.007904    0.735301   -0.010651
      2          6           0        0.916886   -0.666669   -0.015906
      3          8           0       -0.356045   -1.062698    0.009082
      4          6           0       -1.117933   -0.040962   -0.017816
      5          6           0       -0.431617    1.100602    0.019935
      6          1           0       -0.735326    2.120375   -0.047185
      7          1           0       -2.221389   -0.217233    0.035419
      8          1           0        1.722424   -1.466074    0.028507
      9          1           0        1.831221    1.294886    0.057225
 ---------------------------------------------------------------------

 SCF Done:  E(RAM1) =   1.73650091126     A.U. after   13 cycles

 Excitation energies and oscillator strengths:

 Excited State   1:      Singlet-A      5.3061 eV  233.66 nm  f=0.3897  <S**2>=0.000
      13 -> 14         0.69677
 This state for optimization and/or second-order correction.
 Total Energy, E(CIS) =   1.93149717840
 Copying the excited state density for this state as the 1-particle RhoCI density.

 Excited State   2:      Singlet-A      6.6956 eV  185.17 nm  f=0.0004  <S**2>=0.000
      12 -> 14         0.70182

 Excited State   3:      Singlet-A      6.8563 eV  180.83 nm  f=0.0017  <S**2>=0.000
      13 -> 15         0.67412
      13 -> 18         0.16257

 Excited State   4:      Singlet-A      7.1472 eV  173.47 nm  f=0.0033  <S**2>=0.000
      13 -> 16         0.65677
      13 -> 17        -0.20824

 Excited State   5:      Singlet-A      8.1641 eV  151.86 nm  f=0.0068  <S**2>=0.000
      10 -> 14         0.15035
      11 -> 14         0.68355

 Excited State   6:      Singlet-A      8.5483 eV  145.04 nm  f=0.0000  <S**2>=0.000
      13 -> 16         0.15794
      13 -> 17         0.50796
      13 -> 18         0.35879
      13 -> 19         0.11050
      13 -> 21        -0.21754

 Excited State   7:      Singlet-A      9.1514 eV  135.48 nm  f=0.1136  <S**2>=0.000
      10 -> 14         0.66461
      11 -> 14        -0.14770
      12 -> 15        -0.11220

 Excited State   8:      Singlet-A      9.2248 eV  134.40 nm  f=0.0177  <S**2>=0.000
      13 -> 15        -0.11059
      13 -> 17        -0.38406
      13 -> 18         0.55530

 Excited State   9:      Singlet-A      9.6698 eV  128.22 nm  f=0.1588  <S**2>=0.000
      12 -> 15         0.50981
      12 -> 16        -0.28435
      12 -> 17         0.21107
      12 -> 18         0.18721

 Excited State  10:      Singlet-A      9.7462 eV  127.21 nm  f=0.0077  <S**2>=0.000
      13 -> 17        -0.11584
      13 -> 19         0.66473

 Excited State  11:      Singlet-A     10.0707 eV  123.11 nm  f=0.0066  <S**2>=0.000
       9 -> 15        -0.11703
      11 -> 15        -0.17320
      11 -> 18        -0.14465
      12 -> 15         0.42118
      12 -> 16         0.37494
      12 -> 17        -0.25138

 Excited State  12:      Singlet-A     10.5432 eV  117.60 nm  f=0.0372  <S**2>=0.000
       9 -> 14        -0.11454
      12 -> 16        -0.13503
      13 -> 17         0.12478
      13 -> 18         0.13969
      13 -> 19         0.14253
      13 -> 20         0.41601
      13 -> 21         0.45619

 Excited State  13:      Singlet-A     10.6536 eV  116.38 nm  f=0.1373  <S**2>=0.000
       8 -> 16        -0.13713
      11 -> 15         0.12575
      11 -> 16         0.19779
      11 -> 17        -0.11459
      12 -> 16         0.41497
      12 -> 17         0.25871
      12 -> 18         0.11939
      12 -> 19         0.22128
      13 -> 21         0.16865

 Excited State  14:      Singlet-A     10.7820 eV  114.99 nm  f=0.0076  <S**2>=0.000
       9 -> 14         0.65780
      13 -> 20         0.20699

 Excited State  15:      Singlet-A     10.8251 eV  114.53 nm  f=0.0499  <S**2>=0.000
       8 -> 14        -0.10938
       9 -> 14        -0.18434
      10 -> 15        -0.22419
      13 -> 20         0.45252
      13 -> 21        -0.40421

 The electronic state is 1-A.
 Alpha  occ. eigenvalues --   -1.93184  -1.16920  -0.92625  -0.83470  -0.76959
 Alpha  occ. eigenvalues --   -0.70511  -0.68943  -0.57061  -0.54715  -0.47600
 Alpha  occ. eigenvalues --   -0.47195  -0.42214  -0.30919
 Alpha virt. eigenvalues --    0.09004   0.16333   0.18061   0.26556   0.27621
 Alpha virt. eigenvalues --    0.29777   0.32456   0.34126   0.37853   0.45946
 Alpha virt. eigenvalues --    0.50607

 Mulliken charges:
               1
     1  C   -0.145541
     2  C   -2.042922
     3  O    3.289843
     4  C   -2.026579
     5  C   -0.192681
     6  H    0.212718
     7  H    0.356707
     8  H    0.344392
     9  H    0.204063
 Sum of Mulliken charges =   0.00000

 Dipole moment (field-independent basis, Debye):
    X=             -3.5256    Y=             -9.3476    Z=              0.5493  Tot=             10.0054
 N-N= 1.043078421671D+02 E-N=-1.699853895370D+02  KE=-1.551097428927D+01
 Orbital energies and kinetic energies (alpha):
                                 1                 2
   1         O                -1.931842         -1.419897
   2         O                -1.169205         -1.042735
   3         O                -0.926252         -0.872205
   4         O                -0.834701         -0.577213
   5         O                -0.769593         -0.690474
   6         O                -0.705107         -0.585698
   7         O                -0.689426         -0.542375

 Normal termination of Gaussian 09 at Tue Dec 15 17:09:41 2015.
