 Gaussian 09, Revision D.01,
 Gaussian 09:  ES64L-G09RevD.01 24-Apr-2013

 ------------------------------------------------------------
 #P AM1(Input,print) CIS(Singlets,NStates=15) pop(full) force
 ------------------------------------------------------------

 -----------------
 AM1-Reparam Input
 -----------------
 Symbolic Z-matrix:
 Charge =  0 Multiplicity = 1

                         Standard orientation:
 ---------------------------------------------------------------------
 Center     Atomic      Atomic             Coordinates (Angstroms)
 Number     Number       Type             X           Y           Z
 ---------------------------------------------------------------------
      1          6           0       -0.885000    0.851222   -0.017525
      2          6           0       -1.028314   -0.529937    0.024752
      3          8           0        0.176282   -1.125813   -0.025403
      4          6           0        1.140646   -0.185201    0.009596
      5          6           0        0.603293    1.036301    0.004514
      6          1           0        1.084755    1.957468   -0.002401
      7          1           0        2.141008   -0.531214    0.041122
      8          1           0       -1.941124   -1.084861    0.040854
      9          1           0       -1.678640    1.630808   -0.004370
 ---------------------------------------------------------------------

 SCF Done:  E(RAM1) =   2.59571750698     A.U. after   13 cycles

 Excitation energies and oscillator strengths:

 Excited State   1:      Singlet-A      4.8352 eV  256.42 nm  f=0.3738  <S**2>=0.000
      13 -> 14         0.69962
 This state for optimization and/or second-order correction.
 Total Energy, E(CIS) =   2.77340852905
 Copying the excited state density for this state as the 1-particle RhoCI density.

 Excited State   2:      Singlet-A      6.0456 eV  205.08 nm  f=0.0002  <S**2>=0.000
      13 -> 15         0.64810
      13 -> 16        -0.13294
      13 -> 17        -0.18233
      13 -> 19         0.12834

 Excited State   3:      Singlet-A      6.2879 eV  197.18 nm  f=0.0007  <S**2>=0.000
      12 -> 14         0.69733

 Excited State   4:      Singlet-A      6.4504 eV  192.21 nm  f=0.0049  <S**2>=0.000
      13 -> 15         0.14130
      13 -> 16         0.66789
      13 -> 18        -0.11721

 Excited State   5:      Singlet-A      7.4950 eV  165.42 nm  f=0.0047  <S**2>=0.000
      10 -> 14         0.70004

 Excited State   6:      Singlet-A      7.6002 eV  163.13 nm  f=0.0000  <S**2>=0.000
      13 -> 15         0.16662
      13 -> 17         0.66431
      13 -> 21        -0.11532

 Excited State   7:      Singlet-A      8.3049 eV  149.29 nm  f=0.1400  <S**2>=0.000
      11 -> 14         0.69875

 Excited State   8:      Singlet-A      9.2387 eV  134.20 nm  f=0.0065  <S**2>=0.000
       7 -> 16        -0.11307
      11 -> 15         0.26775
      11 -> 16        -0.12285
      13 -> 18         0.61323

 Excited State   9:      Singlet-A      9.2781 eV  133.63 nm  f=0.1138  <S**2>=0.000
      10 -> 16        -0.15363
      10 -> 18         0.13739
      12 -> 15         0.52266
      12 -> 16        -0.10926
      12 -> 17        -0.33013
      13 -> 18         0.10531

 Excited State  10:      Singlet-A      9.4172 eV  131.66 nm  f=0.0014  <S**2>=0.000
       7 -> 15         0.10735
      11 -> 16        -0.23258
      13 -> 19         0.63750

 Excited State  11:      Singlet-A      9.8311 eV  126.11 nm  f=0.1411  <S**2>=0.000
       9 -> 15         0.10813
      10 -> 15         0.22124
      10 -> 16         0.23813
      10 -> 18        -0.12278
      12 -> 15         0.35557
      12 -> 16         0.37293
      12 -> 17         0.22809
      12 -> 19         0.11646

 Excited State  12:      Singlet-A     10.0239 eV  123.69 nm  f=0.1260  <S**2>=0.000
      10 -> 15         0.22261
      10 -> 16        -0.33545
      10 -> 18         0.14011
      12 -> 15        -0.16914
      12 -> 16         0.44414
      12 -> 17        -0.22593

 Excited State  13:      Singlet-A     10.1347 eV  122.34 nm  f=0.0006  <S**2>=0.000
       9 -> 14         0.65621
      11 -> 16         0.20158

 Excited State  14:      Singlet-A     10.2601 eV  120.84 nm  f=0.0044  <S**2>=0.000
       7 -> 16        -0.12118
      11 -> 15         0.51945
      11 -> 16        -0.26957
      13 -> 16        -0.12618
      13 -> 18        -0.28619
      13 -> 20         0.11085

 Excited State  15:      Singlet-A     10.3552 eV  119.73 nm  f=0.0007  <S**2>=0.000
       7 -> 15        -0.12741
       9 -> 14        -0.19669
      11 -> 15         0.29780
      11 -> 16         0.49757
      13 -> 15        -0.13599
      13 -> 19         0.24962

 The electronic state is 1-A.
 Alpha  occ. eigenvalues --   -1.85061  -1.10747  -0.88484  -0.80006  -0.74214
 Alpha  occ. eigenvalues --   -0.67218  -0.63416  -0.56879  -0.54550  -0.46338
 Alpha  occ. eigenvalues --   -0.45598  -0.42830  -0.29830
 Alpha virt. eigenvalues --    0.07243   0.16421   0.17264   0.24343   0.27758
 Alpha virt. eigenvalues --    0.29058   0.34850   0.38602   0.49381   0.56569
 Alpha virt. eigenvalues --    0.61395

 Mulliken charges:
               1
     1  C   -0.183565
     2  C   -2.032671
     3  O    3.433749
     4  C   -1.988270
     5  C   -0.177407
     6  H    0.187453
     7  H    0.277251
     8  H    0.293285
     9  H    0.190176
 Sum of Mulliken charges =   0.00000

 Dipole moment (field-independent basis, Debye):
    X=              1.6399    Y=            -10.6318    Z=             -0.5210  Tot=             10.7702
 N-N= 1.038268189637D+02 E-N=-1.692330998901D+02  KE=-1.432568827968D+01
 Orbital energies and kinetic energies (alpha):
                                 1                 2
   1         O                -1.850609         -1.257659
   2         O                -1.107473         -0.945142
   3         O                -0.884845         -0.788741
   4         O                -0.800064         -0.536107
   5         O                -0.742138         -0.636286
   6         O                -0.672176         -0.529374
   7         O                -0.634161         -0.488823

 Normal termination of Gaussian 09 at Tue Dec 15 17:07:45 2015.
