 Gaussian 09, Revision D.01,
 Gaussian 09:  ES64L-G09RevD.01 24-Apr-2013

 -------------------------------------------------------
 #P B3LYP/3-21G CIS(Singlets,NStates=15) pop(full) force
 -------------------------------------------------------

 --------
 FuranDFT
 --------
 Symbolic Z-matrix:
 Charge =  0 Multiplicity = 1

                         Standard orientation:
 ---------------------------------------------------------------------
 Center     Atomic      Atomic             Coordinates (Angstroms)
 Number     Number       Type             X           Y           Z
 ---------------------------------------------------------------------
      1          6           0        0.906798    0.776835   -0.013504
      2          6           0        1.034385   -0.574751    0.020855
      3          8           0       -0.305036   -1.109669   -0.002194
      4          6           0       -1.147473   -0.105361   -0.002074
      5          6           0       -0.458687    1.060529   -0.015200
      6          1           0       -0.909003    2.133576    0.071905
      7          1           0       -2.221451   -0.316488    0.014679
      8          1           0        1.834847   -1.276483   -0.028184
      9          1           0        1.725766    1.393239    0.018693
 ---------------------------------------------------------------------

 SCF Done:  E(RB3LYP) =  -228.736636679     A.U. after   14 cycles

 Excitation energies and oscillator strengths:

 Excited State   1:      Singlet-A      7.0068 eV  176.95 nm  f=0.1572  <S**2>=0.000
      17 -> 19         0.24973
      18 -> 19         0.59642
      18 -> 20         0.22310
 This state for optimization and/or second-order correction.
 Total Energy, E(CIS) =  -228.479141680
 Copying the excited state density for this state as the 1-particle RhoCI density.

 Excited State   2:      Singlet-A      7.4997 eV  165.32 nm  f=0.0691  <S**2>=0.000
      17 -> 19         0.45433
      18 -> 19        -0.32620
      18 -> 20         0.41038

 Excited State   3:      Singlet-A      8.3120 eV  149.16 nm  f=0.0045  <S**2>=0.000
      18 -> 21         0.63079
      18 -> 22        -0.29310

 Excited State   4:      Singlet-A      8.4748 eV  146.30 nm  f=0.0036  <S**2>=0.000
      16 -> 19         0.70234

 Excited State   5:      Singlet-A      8.6096 eV  144.01 nm  f=0.0008  <S**2>=0.000
      18 -> 21         0.29603
      18 -> 22         0.62948

 Excited State   6:      Singlet-A      9.5837 eV  129.37 nm  f=0.1638  <S**2>=0.000
      15 -> 19        -0.11144
      17 -> 19        -0.22317
      17 -> 20         0.23600
      17 -> 21         0.39555
      17 -> 22        -0.13716
      18 -> 20         0.28677
      18 -> 23        -0.28044
      18 -> 24        -0.12902

 Excited State   7:      Singlet-A      9.7130 eV  127.65 nm  f=0.0987  <S**2>=0.000
      15 -> 19         0.49798
      17 -> 19         0.18621
      17 -> 21         0.13667
      18 -> 20        -0.21302
      18 -> 23        -0.33971

 Excited State   8:      Singlet-A      9.7660 eV  126.95 nm  f=0.0492  <S**2>=0.000
      17 -> 19         0.10719
      17 -> 20         0.33732
      17 -> 21         0.23744
      17 -> 22        -0.24943
      18 -> 23         0.45912

 Excited State   9:      Singlet-A      9.8636 eV  125.70 nm  f=0.2703  <S**2>=0.000
      15 -> 19         0.43284
      17 -> 19        -0.27919
      17 -> 21        -0.24065
      18 -> 20         0.31929
      18 -> 23         0.15050

 Excited State  10:      Singlet-A      9.9524 eV  124.58 nm  f=0.1080  <S**2>=0.000
      15 -> 19        -0.14388
      17 -> 20         0.49488
      17 -> 21        -0.39093
      18 -> 23        -0.19901

 Excited State  11:      Singlet-A     10.0064 eV  123.91 nm  f=0.0153  <S**2>=0.000
      17 -> 20         0.17823
      17 -> 21         0.21054
      17 -> 22         0.63299

 Excited State  12:      Singlet-A     10.2019 eV  121.53 nm  f=0.0168  <S**2>=0.000
      18 -> 24         0.66008

 Excited State  13:      Singlet-A     10.4285 eV  118.89 nm  f=0.0026  <S**2>=0.000
      14 -> 19         0.51750
      16 -> 20         0.44783
      18 -> 24        -0.11536

 Excited State  14:      Singlet-A     10.6936 eV  115.94 nm  f=0.0045  <S**2>=0.000
      14 -> 19        -0.43771
      16 -> 20         0.49818
      18 -> 25         0.20594

 Excited State  15:      Singlet-A     10.7387 eV  115.46 nm  f=0.0016  <S**2>=0.000
      14 -> 19         0.12417
      16 -> 20        -0.15311
      18 -> 24        -0.10589
      18 -> 25         0.65624

 The electronic state is 1-A.
 Alpha  occ. eigenvalues --  -19.10851 -10.17671 -10.17467 -10.12417 -10.12165
 Alpha  occ. eigenvalues --   -1.12271  -0.81036  -0.74523  -0.60005  -0.57543
 Alpha  occ. eigenvalues --   -0.53583  -0.45305  -0.44534  -0.42425  -0.39404
 Alpha  occ. eigenvalues --   -0.35267  -0.28194  -0.22949
 Alpha virt. eigenvalues --    0.01799   0.08778   0.12447   0.13107   0.17301
 Alpha virt. eigenvalues --    0.18639   0.20931   0.24637   0.35607   0.42244
 Alpha virt. eigenvalues --    0.48877   0.68174   0.69827   0.72075   0.75320

 Mulliken charges:
               1
     1  C   -0.250068
     2  C    0.035514
     3  O   -0.486092
     4  C    0.142039
     5  C   -0.249349
     6  H    0.170401
     7  H    0.220711
     8  H    0.220040
     9  H    0.196804
 Sum of Mulliken charges =   0.00000

 Dipole moment (field-independent basis, Debye):
    X=              0.2818    Y=              0.6203    Z=              0.0654  Tot=              0.6844
 Quadrupole moment (field-independent basis, Debye-Ang):
   XX=            -23.3398   YY=            -28.2156   ZZ=            -31.7787
   XY=             -0.9195   XZ=             -0.1659   YZ=              0.2698

 Normal termination of Gaussian 09 at Fri Dec 11 13:18:55 2015.
