 Gaussian 09, Revision D.01,
 Gaussian 09:  ES64L-G09RevD.01 24-Apr-2013

 ------------------------------------------------------------
 #P AM1(Input,print) CIS(Singlets,NStates=15) pop(full) force
 ------------------------------------------------------------

 -----------------
 AM1-Reparam Input
 -----------------
 Symbolic Z-matrix:
 Charge =  0 Multiplicity = 1

                         Standard orientation:
 ---------------------------------------------------------------------
 Center     Atomic      Atomic             Coordinates (Angstroms)
 Number     Number       Type             X           Y           Z
 ---------------------------------------------------------------------
      1          6           0       -0.585602    1.057473   -0.018000
      2          6           0       -1.120263   -0.201910    0.019622
      3          8           0       -0.163898   -1.148734   -0.002021
      4          6           0        1.014724   -0.518693   -0.021482
      5          6           0        0.875538    0.862879    0.004002
      6          1           0        1.588808    1.641524    0.066881
      7          1           0        1.873576   -1.106909    0.044213
      8          1           0       -2.169753   -0.487836    0.012103
      9          1           0       -1.087835    1.944592   -0.011880
 ---------------------------------------------------------------------

 SCF Done:  E(RAM1) =   2.51382240406     A.U. after   13 cycles

 Excitation energies and oscillator strengths:

 Excited State   1:      Singlet-A      5.2553 eV  235.92 nm  f=0.3629  <S**2>=0.000
      13 -> 14         0.69693
 This state for optimization and/or second-order correction.
 Total Energy, E(CIS) =   2.70695141759
 Copying the excited state density for this state as the 1-particle RhoCI density.

 Excited State   2:      Singlet-A      6.4900 eV  191.04 nm  f=0.0044  <S**2>=0.000
      13 -> 15         0.65967
      13 -> 17         0.18444

 Excited State   3:      Singlet-A      6.5341 eV  189.75 nm  f=0.0018  <S**2>=0.000
      13 -> 16         0.64921
      13 -> 18        -0.20228

 Excited State   4:      Singlet-A      6.6940 eV  185.22 nm  f=0.0006  <S**2>=0.000
       9 -> 14         0.11673
      12 -> 14         0.69317

 Excited State   5:      Singlet-A      7.8312 eV  158.32 nm  f=0.0000  <S**2>=0.000
      13 -> 16         0.14571
      13 -> 18         0.57350
      13 -> 19         0.16049
      13 -> 20        -0.17861
      13 -> 21         0.25758

 Excited State   6:      Singlet-A      8.0095 eV  154.80 nm  f=0.0072  <S**2>=0.000
      10 -> 14         0.68202
      11 -> 14         0.11114
      13 -> 17        -0.11659

 Excited State   7:      Singlet-A      8.4526 eV  146.68 nm  f=0.0117  <S**2>=0.000
      10 -> 14         0.12400
      11 -> 16         0.12420
      13 -> 15        -0.13848
      13 -> 17         0.65088

 Excited State   8:      Singlet-A      8.6482 eV  143.36 nm  f=0.1168  <S**2>=0.000
      10 -> 14        -0.11856
      11 -> 14         0.68233

 Excited State   9:      Singlet-A      8.9500 eV  138.53 nm  f=0.0002  <S**2>=0.000
      13 -> 16        -0.11162
      13 -> 18        -0.13382
      13 -> 19         0.66193

 Excited State  10:      Singlet-A      9.4191 eV  131.63 nm  f=0.0887  <S**2>=0.000
       8 -> 15        -0.12837
      10 -> 15         0.14591
      10 -> 17         0.18907
      12 -> 15        -0.26780
      12 -> 16         0.42834
      12 -> 18        -0.31769

 Excited State  11:      Singlet-A      9.4578 eV  131.09 nm  f=0.0104  <S**2>=0.000
      13 -> 18        -0.30190
      13 -> 20        -0.41182
      13 -> 21         0.45982

 Excited State  12:      Singlet-A      9.7729 eV  126.87 nm  f=0.0046  <S**2>=0.000
       9 -> 14         0.65487
      12 -> 14        -0.11197
      12 -> 15        -0.10586
      13 -> 20        -0.14862

 Excited State  13:      Singlet-A      9.8284 eV  126.15 nm  f=0.0272  <S**2>=0.000
       9 -> 14         0.15787
      10 -> 15         0.16879
      12 -> 15         0.55613
      12 -> 16         0.22549
      12 -> 17         0.13389

 Excited State  14:      Singlet-A      9.8632 eV  125.70 nm  f=0.0856  <S**2>=0.000
      11 -> 16        -0.12347
      13 -> 20         0.48808
      13 -> 21         0.44867

 Excited State  15:      Singlet-A      9.9908 eV  124.10 nm  f=0.0473  <S**2>=0.000
       9 -> 16         0.10655
      10 -> 15         0.18098
      10 -> 17         0.12536
      11 -> 15         0.43240
      11 -> 16         0.29194
      12 -> 16        -0.24449
      12 -> 19        -0.12199
      13 -> 16         0.10792

 The electronic state is 1-A.
 Alpha  occ. eigenvalues --   -1.74198  -1.14766  -0.95358  -0.81477  -0.76210
 Alpha  occ. eigenvalues --   -0.68011  -0.64370  -0.55174  -0.49478  -0.45574
 Alpha  occ. eigenvalues --   -0.43997  -0.41104  -0.29028
 Alpha virt. eigenvalues --    0.10446   0.17777   0.18214   0.26070   0.26882
 Alpha virt. eigenvalues --    0.28998   0.30765   0.31621   0.40987   0.50129
 Alpha virt. eigenvalues --    0.54835

 Mulliken charges:
               1
     1  C   -0.048264
     2  C   -1.943158
     3  O    3.223086
     4  C   -1.939937
     5  C   -0.062098
     6  H    0.117850
     7  H    0.263379
     8  H    0.274574
     9  H    0.114568
 Sum of Mulliken charges =   0.00000

 Dipole moment (field-independent basis, Debye):
    X=             -1.6020    Y=            -10.0751    Z=              0.1283  Tot=             10.2025
 N-N= 1.037224163372D+02 E-N=-1.686007326458D+02  KE=-1.504153531615D+01
 Orbital energies and kinetic energies (alpha):
                                 1                 2
   1         O                -1.741985         -1.243752
   2         O                -1.147660         -1.012796
   3         O                -0.953585         -0.862106
   4         O                -0.814772         -0.621559
   5         O                -0.762100         -0.691190
   6         O                -0.680107         -0.577761
   7         O                -0.643701         -0.516338

 Normal termination of Gaussian 09 at Tue Dec 15 17:06:20 2015.
