 Gaussian 09, Revision D.01,
 Gaussian 09:  ES64L-G09RevD.01 24-Apr-2013

 ------------------------------------------------------------
 #P AM1(Input,print) CIS(Singlets,NStates=15) pop(full) force
 ------------------------------------------------------------

 -----------------
 AM1-Reparam Input
 -----------------
 Symbolic Z-matrix:
 Charge =  0 Multiplicity = 1

                         Standard orientation:
 ---------------------------------------------------------------------
 Center     Atomic      Atomic             Coordinates (Angstroms)
 Number     Number       Type             X           Y           Z
 ---------------------------------------------------------------------
      1          6           0        0.867254    0.750367   -0.006659
      2          6           0        1.031277   -0.573175    0.003733
      3          8           0       -0.267478   -1.103384   -0.017968
      4          6           0       -1.161435   -0.142458    0.039961
      5          6           0       -0.452088    1.109645   -0.021723
      6          1           0       -0.915346    2.034524    0.000670
      7          1           0       -2.163544   -0.350638   -0.026643
      8          1           0        1.785176   -1.221629    0.023659
      9          1           0        1.723492    1.498536    0.054184
 ---------------------------------------------------------------------

 SCF Done:  E(RAM1) =   2.59753118718     A.U. after   13 cycles

 Excitation energies and oscillator strengths:

 Excited State   1:      Singlet-A      5.3596 eV  231.33 nm  f=0.3405  <S**2>=0.000
      13 -> 14         0.69547
 This state for optimization and/or second-order correction.
 Total Energy, E(CIS) =   2.79449331747
 Copying the excited state density for this state as the 1-particle RhoCI density.

 Excited State   2:      Singlet-A      6.5011 eV  190.71 nm  f=0.0048  <S**2>=0.000
      11 -> 15        -0.10247
      12 -> 14        -0.15598
      13 -> 15         0.66107

 Excited State   3:      Singlet-A      6.6250 eV  187.14 nm  f=0.0048  <S**2>=0.000
      12 -> 14         0.66966
      13 -> 15         0.13562
      13 -> 16        -0.10148

 Excited State   4:      Singlet-A      7.0606 eV  175.60 nm  f=0.0034  <S**2>=0.000
      10 -> 14         0.10296
      11 -> 16         0.10851
      13 -> 16         0.66317

 Excited State   5:      Singlet-A      7.4781 eV  165.80 nm  f=0.0033  <S**2>=0.000
      10 -> 14         0.66094
      11 -> 14        -0.17508

 Excited State   6:      Singlet-A      8.1548 eV  152.04 nm  f=0.0006  <S**2>=0.000
      13 -> 16        -0.10079
      13 -> 17         0.65955
      13 -> 18        -0.11897
      13 -> 21         0.11856

 Excited State   7:      Singlet-A      8.4676 eV  146.42 nm  f=0.0826  <S**2>=0.000
      10 -> 14         0.18115
      11 -> 14         0.65680
      12 -> 17         0.10472

 Excited State   8:      Singlet-A      9.2884 eV  133.48 nm  f=0.1855  <S**2>=0.000
       9 -> 15         0.12659
      10 -> 15        -0.14638
      10 -> 16        -0.21871
      10 -> 17        -0.11462
      10 -> 18         0.14293
      11 -> 14         0.15507
      12 -> 15         0.44181
      12 -> 16         0.11109
      12 -> 17        -0.30168

 Excited State   9:      Singlet-A      9.5277 eV  130.13 nm  f=0.0034  <S**2>=0.000
       7 -> 15         0.15303
      11 -> 15         0.51532
      11 -> 16        -0.11153
      13 -> 18        -0.42202

 Excited State  10:      Singlet-A      9.7294 eV  127.43 nm  f=0.1114  <S**2>=0.000
      11 -> 15         0.12538
      11 -> 16         0.11478
      12 -> 15        -0.15885
      12 -> 16         0.58011
      12 -> 19         0.15069
      13 -> 19        -0.20055

 Excited State  11:      Singlet-A      9.9084 eV  125.13 nm  f=0.0363  <S**2>=0.000
       7 -> 16         0.11937
      11 -> 15        -0.16344
      11 -> 16        -0.32614
      12 -> 16         0.24378
      13 -> 17        -0.14206
      13 -> 18        -0.20629
      13 -> 19         0.43355

 Excited State  12:      Singlet-A      9.9284 eV  124.88 nm  f=0.1240  <S**2>=0.000
      10 -> 15         0.62712
      10 -> 18        -0.11522
      10 -> 19        -0.10123
      11 -> 15        -0.12649
      12 -> 15         0.19432

 Excited State  13:      Singlet-A     10.2146 eV  121.38 nm  f=0.0211  <S**2>=0.000
       8 -> 15         0.10064
       9 -> 15         0.17333
      10 -> 16         0.10182
      12 -> 15         0.28587
      12 -> 16         0.21942
      12 -> 17         0.49925
      12 -> 20        -0.11895

 Excited State  14:      Singlet-A     10.3824 eV  119.42 nm  f=0.0012  <S**2>=0.000
       9 -> 14         0.19822
      11 -> 15         0.33328
      13 -> 15         0.15564
      13 -> 18         0.41926
      13 -> 19         0.33289

 Excited State  15:      Singlet-A     10.5958 eV  117.01 nm  f=0.0005  <S**2>=0.000
       9 -> 14         0.65330
      11 -> 15        -0.10722
      13 -> 18        -0.15108

 The electronic state is 1-A.
 Alpha  occ. eigenvalues --   -1.85437  -1.13784  -0.89442  -0.79767  -0.76380
 Alpha  occ. eigenvalues --   -0.67627  -0.64084  -0.58275  -0.55521  -0.46091
 Alpha  occ. eigenvalues --   -0.45549  -0.43104  -0.32291
 Alpha virt. eigenvalues --    0.08174   0.15865   0.18360   0.23751   0.27567
 Alpha virt. eigenvalues --    0.29165   0.34709   0.39077   0.48662   0.55604
 Alpha virt. eigenvalues --    0.60762

 Mulliken charges:
               1
     1  C   -0.141365
     2  C   -1.974046
     3  O    3.444354
     4  C   -2.054806
     5  C   -0.218502
     6  H    0.194334
     7  H    0.279705
     8  H    0.254203
     9  H    0.216123
 Sum of Mulliken charges =   0.00000

 Dipole moment (field-independent basis, Debye):
    X=             -2.3872    Y=            -10.0028    Z=             -0.5859  Tot=             10.3004
 N-N= 1.043678335480D+02 E-N=-1.699808669800D+02  KE=-1.441269799798D+01
 Orbital energies and kinetic energies (alpha):
                                 1                 2
   1         O                -1.854372         -1.258515
   2         O                -1.137837         -0.965697
   3         O                -0.894423         -0.791977
   4         O                -0.797673         -0.539537
   5         O                -0.763805         -0.641115
   6         O                -0.676273         -0.558965
   7         O                -0.640835         -0.498294

 Normal termination of Gaussian 09 at Tue Dec 15 17:07:49 2015.
