 Gaussian 09, Revision D.01,
 Gaussian 09:  ES64L-G09RevD.01 24-Apr-2013

 ------------------------------------------------------------
 #P AM1(Input,print) CIS(Singlets,NStates=15) pop(full) force
 ------------------------------------------------------------

 -----------------
 AM1-Reparam Input
 -----------------
 Symbolic Z-matrix:
 Charge =  0 Multiplicity = 1

                         Standard orientation:
 ---------------------------------------------------------------------
 Center     Atomic      Atomic             Coordinates (Angstroms)
 Number     Number       Type             X           Y           Z
 ---------------------------------------------------------------------
      1          6           0        0.675878    0.981242   -0.020475
      2          6           0        1.064960   -0.289038    0.002296
      3          8           0        0.104754   -1.110560   -0.010340
      4          6           0       -1.089262   -0.452070    0.017828
      5          6           0       -0.756986    0.920529   -0.005822
      6          1           0       -1.513018    1.690538    0.009793
      7          1           0       -1.987048   -0.944526   -0.002989
      8          1           0        2.122285   -0.706192    0.045864
      9          1           0        1.172203    1.880684    0.067091
 ---------------------------------------------------------------------

 SCF Done:  E(RAM1) =   2.52980870671     A.U. after   13 cycles

 Excitation energies and oscillator strengths:

 Excited State   1:      Singlet-A      5.3929 eV  229.90 nm  f=0.3495  <S**2>=0.000
      13 -> 14         0.69466
 This state for optimization and/or second-order correction.
 Total Energy, E(CIS) =   2.72799498430
 Copying the excited state density for this state as the 1-particle RhoCI density.

 Excited State   2:      Singlet-A      6.0614 eV  204.55 nm  f=0.0034  <S**2>=0.000
      11 -> 15         0.11346
      13 -> 15         0.67484
      13 -> 17        -0.13943

 Excited State   3:      Singlet-A      6.7828 eV  182.79 nm  f=0.0016  <S**2>=0.000
       9 -> 14        -0.15219
      12 -> 14         0.68284

 Excited State   4:      Singlet-A      6.9785 eV  177.67 nm  f=0.0052  <S**2>=0.000
      13 -> 16         0.65684
      13 -> 18         0.18522

 Excited State   5:      Singlet-A      7.8043 eV  158.87 nm  f=0.0059  <S**2>=0.000
      10 -> 14         0.66996
      11 -> 14        -0.12745
      13 -> 17         0.10136

 Excited State   6:      Singlet-A      7.9164 eV  156.62 nm  f=0.0026  <S**2>=0.000
      10 -> 14        -0.12264
      13 -> 16        -0.11772
      13 -> 17         0.32818
      13 -> 18         0.50252
      13 -> 20         0.14244
      13 -> 21        -0.25109

 Excited State   7:      Singlet-A      8.4893 eV  146.05 nm  f=0.0082  <S**2>=0.000
      11 -> 16        -0.11697
      13 -> 15         0.10748
      13 -> 17         0.54055
      13 -> 18        -0.26714
      13 -> 19         0.28217
      13 -> 20        -0.10441

 Excited State   8:      Singlet-A      8.6290 eV  143.68 nm  f=0.0950  <S**2>=0.000
      10 -> 14         0.12640
      11 -> 14         0.65676
      12 -> 15         0.18553

 Excited State   9:      Singlet-A      9.0184 eV  137.48 nm  f=0.0876  <S**2>=0.000
       8 -> 15         0.10769
      10 -> 15         0.11597
      11 -> 14        -0.19485
      12 -> 15         0.62556
      12 -> 17        -0.11051

 Excited State  10:      Singlet-A      9.1558 eV  135.42 nm  f=0.0005  <S**2>=0.000
       9 -> 14         0.10063
      11 -> 16         0.19452
      13 -> 16        -0.10842
      13 -> 17        -0.19669
      13 -> 18         0.12960
      13 -> 19         0.60017

 Excited State  11:      Singlet-A      9.4597 eV  131.07 nm  f=0.0010  <S**2>=0.000
       9 -> 14        -0.31682
       9 -> 15        -0.23402
      10 -> 15        -0.16991
      10 -> 16        -0.18565
      10 -> 17         0.14772
      11 -> 15         0.32428
      12 -> 16        -0.12728
      12 -> 18        -0.20367

 Excited State  12:      Singlet-A      9.5118 eV  130.35 nm  f=0.0005  <S**2>=0.000
       9 -> 14         0.52742
       9 -> 15        -0.15550
      10 -> 15        -0.12370
      10 -> 16        -0.13120
      11 -> 15         0.10614
      12 -> 14         0.13246
      12 -> 18        -0.13100
      13 -> 18         0.11357
      13 -> 20        -0.10185
      13 -> 21         0.20596

 Excited State  13:      Singlet-A      9.6072 eV  129.05 nm  f=0.0025  <S**2>=0.000
       7 -> 15        -0.12086
       9 -> 14         0.16576
       9 -> 15         0.10748
      10 -> 15         0.16210
      10 -> 16         0.13168
      11 -> 15         0.51408
      12 -> 18         0.12973
      13 -> 15        -0.12075
      13 -> 18        -0.13829
      13 -> 21        -0.14764

 Excited State  14:      Singlet-A      9.7044 eV  127.76 nm  f=0.0022  <S**2>=0.000
       9 -> 14        -0.21729
      11 -> 15         0.19924
      13 -> 18         0.24846
      13 -> 20        -0.22079
      13 -> 21         0.50700

 Excited State  15:      Singlet-A      9.9098 eV  125.11 nm  f=0.1497  <S**2>=0.000
       9 -> 15         0.13671
      10 -> 16        -0.32295
      10 -> 19        -0.11556
      12 -> 16         0.52523
      12 -> 17        -0.15696
      12 -> 19         0.11755

 The electronic state is 1-A.
 Alpha  occ. eigenvalues --   -1.77224  -1.16454  -0.96647  -0.81868  -0.76287
 Alpha  occ. eigenvalues --   -0.68159  -0.66563  -0.56662  -0.49358  -0.45171
 Alpha  occ. eigenvalues --   -0.44516  -0.41537  -0.30424
 Alpha virt. eigenvalues --    0.10023   0.14034   0.19823   0.24935   0.26380
 Alpha virt. eigenvalues --    0.27799   0.29976   0.31085   0.42895   0.51308
 Alpha virt. eigenvalues --    0.57060

 Mulliken charges:
               1
     1  C   -0.097659
     2  C   -1.959642
     3  O    3.230569
     4  C   -1.958402
     5  C   -0.029098
     6  H    0.123438
     7  H    0.264273
     8  H    0.298236
     9  H    0.128284
 Sum of Mulliken charges =   0.00000

 Dipole moment (field-independent basis, Debye):
    X=              1.8562    Y=             -9.2956    Z=             -0.1695  Tot=              9.4806
 N-N= 1.044504132740D+02 E-N=-1.697295160246D+02  KE=-1.509433424437D+01
 Orbital energies and kinetic energies (alpha):
                                 1                 2
   1         O                -1.772240         -1.286130
   2         O                -1.164535         -1.012658
   3         O                -0.966469         -0.860699
   4         O                -0.818676         -0.615509
   5         O                -0.762866         -0.694548
   6         O                -0.681590         -0.581160
   7         O                -0.665627         -0.525191

 Normal termination of Gaussian 09 at Tue Dec 15 17:06:27 2015.
