 Gaussian 09, Revision D.01,
 Gaussian 09:  ES64L-G09RevD.01 24-Apr-2013

 ------------------------------------------------------------
 #P AM1(Input,print) CIS(Singlets,NStates=15) pop(full) force
 ------------------------------------------------------------

 -----------------
 AM1-Reparam Input
 -----------------
 Symbolic Z-matrix:
 Charge =  0 Multiplicity = 1

                         Standard orientation:
 ---------------------------------------------------------------------
 Center     Atomic      Atomic             Coordinates (Angstroms)
 Number     Number       Type             X           Y           Z
 ---------------------------------------------------------------------
      1          6           0       -0.539353    1.061019   -0.012649
      2          6           0       -1.170045   -0.182549    0.028961
      3          8           0       -0.201308   -1.090727   -0.017120
      4          6           0        1.014732   -0.522020   -0.001889
      5          6           0        0.911592    0.780923   -0.009582
      6          1           0        1.622497    1.557458    0.076031
      7          1           0        1.845513   -1.197540    0.044122
      8          1           0       -2.155868   -0.461706    0.015911
      9          1           0       -1.003236    2.003364   -0.028147
 ---------------------------------------------------------------------

 SCF Done:  E(RAM1) =  -4.88613595746     A.U. after   14 cycles

 Excitation energies and oscillator strengths:

 Excited State   1:      Singlet-A      6.5872 eV  188.22 nm  f=0.3145  <S**2>=0.000
      12 -> 14        -0.11536
      13 -> 14         0.67801
 This state for optimization and/or second-order correction.
 Total Energy, E(CIS) =  -4.64406024592
 Copying the excited state density for this state as the 1-particle RhoCI density.

 Excited State   2:      Singlet-A      6.9264 eV  179.00 nm  f=0.0125  <S**2>=0.000
      12 -> 14         0.68956
      13 -> 14         0.11282

 Excited State   3:      Singlet-A      7.3911 eV  167.75 nm  f=0.0142  <S**2>=0.000
      13 -> 15         0.62592
      13 -> 16         0.25038
      13 -> 17         0.16203

 Excited State   4:      Singlet-A      7.6931 eV  161.16 nm  f=0.0025  <S**2>=0.000
      13 -> 15        -0.25141
      13 -> 16         0.61422
      13 -> 21         0.18219

 Excited State   5:      Singlet-A      8.2357 eV  150.54 nm  f=0.0077  <S**2>=0.000
      11 -> 14         0.69842

 Excited State   6:      Singlet-A      9.3575 eV  132.50 nm  f=0.0234  <S**2>=0.000
      10 -> 15        -0.10021
      13 -> 15        -0.14399
      13 -> 17         0.57255
      13 -> 18         0.22375
      13 -> 19        -0.10025
      13 -> 21        -0.22167

 Excited State   7:      Singlet-A      9.4779 eV  130.81 nm  f=0.0481  <S**2>=0.000
      10 -> 14         0.36529
      12 -> 15         0.40719
      12 -> 21        -0.10345
      13 -> 19        -0.21546
      13 -> 20         0.26070
      13 -> 21         0.10812

 Excited State   8:      Singlet-A      9.6158 eV  128.94 nm  f=0.0013  <S**2>=0.000
      10 -> 14        -0.11974
      10 -> 16         0.11739
      13 -> 16        -0.15703
      13 -> 17         0.34206
      13 -> 18        -0.34816
      13 -> 19         0.14771
      13 -> 21         0.36708
      13 -> 22         0.17805

 Excited State   9:      Singlet-A      9.7041 eV  127.76 nm  f=0.0551  <S**2>=0.000
      10 -> 14        -0.23172
      12 -> 15         0.39631
      12 -> 16        -0.26503
      12 -> 21        -0.19364
      13 -> 18         0.12804
      13 -> 19         0.21183
      13 -> 20        -0.24867
      13 -> 21        -0.10972

 Excited State  10:      Singlet-A      9.8225 eV  126.22 nm  f=0.0078  <S**2>=0.000
      10 -> 14        -0.11880
      11 -> 15        -0.11268
      11 -> 16         0.11354
      12 -> 15         0.28569
      12 -> 16         0.52081
      12 -> 17         0.18981
      12 -> 19         0.12838
      12 -> 21         0.14034

 Excited State  11:      Singlet-A      9.9683 eV  124.38 nm  f=0.0283  <S**2>=0.000
      13 -> 18         0.19620
      13 -> 19         0.51603
      13 -> 20         0.39445

 Excited State  12:      Singlet-A     10.0917 eV  122.86 nm  f=0.0014  <S**2>=0.000
      13 -> 18         0.49774
      13 -> 19        -0.16002
      13 -> 20        -0.12425
      13 -> 21         0.41376
      13 -> 22         0.13071

 Excited State  13:      Singlet-A     10.4779 eV  118.33 nm  f=0.0273  <S**2>=0.000
      10 -> 14         0.17106
      11 -> 15         0.40911
      11 -> 16         0.32023
      11 -> 17         0.22345
      12 -> 16         0.13675
      13 -> 19         0.11128
      13 -> 20        -0.18895

 Excited State  14:      Singlet-A     10.5408 eV  117.62 nm  f=0.0490  <S**2>=0.000
       8 -> 16         0.11890
       9 -> 14         0.11695
      10 -> 14         0.32412
      11 -> 15        -0.20487
      11 -> 16        -0.12655
      11 -> 17        -0.12308
      12 -> 17        -0.26816
      12 -> 18        -0.11519
      12 -> 21         0.14278
      13 -> 19         0.19500
      13 -> 20        -0.32190

 Excited State  15:      Singlet-A     10.9185 eV  113.55 nm  f=0.0897  <S**2>=0.000
       8 -> 15         0.10197
       9 -> 14         0.40135
       9 -> 15         0.14715
      10 -> 14         0.11543
      11 -> 15        -0.16516
      11 -> 16         0.11425
      12 -> 17         0.18209
      12 -> 18         0.11820
      12 -> 21        -0.11939
      13 -> 21         0.10028
      13 -> 22        -0.32699

 The electronic state is 1-A.
 Alpha  occ. eigenvalues --   -3.96416  -1.23043  -0.92545  -0.91569  -0.90693
 Alpha  occ. eigenvalues --   -0.83823  -0.72309  -0.54923  -0.52872  -0.49165
 Alpha  occ. eigenvalues --   -0.45918  -0.41566  -0.33591
 Alpha virt. eigenvalues --    0.11959   0.17491   0.18999   0.24963   0.26567
 Alpha virt. eigenvalues --    0.27255   0.27732   0.30927   0.34085   0.38614
 Alpha virt. eigenvalues --    0.44470

 Mulliken charges:
               1
     1  C   -0.363704
     2  C   -1.611224
     3  O    2.816994
     4  C   -1.558337
     5  C   -0.277220
     6  H    0.217566
     7  H    0.268421
     8  H    0.282075
     9  H    0.225429
 Sum of Mulliken charges =   0.00000

 Dipole moment (field-independent basis, Debye):
    X=             -1.2989    Y=             -9.6426    Z=             -0.2366  Tot=              9.7326
 N-N= 1.051297614551D+02 E-N=-1.723018351606D+02  KE=-2.316130403718D+01
 Orbital energies and kinetic energies (alpha):
                                 1                 2
   1         O                -3.964158         -3.288179
   2         O                -1.230431         -1.192698
   3         O                -0.925452         -0.934281
   4         O                -0.915691         -0.900733
   5         O                -0.906931         -0.933033
   6         O                -0.838230         -0.810592
   7         O                -0.723092         -0.696361

 Normal termination of Gaussian 09 at Fri Dec 11 13:41:24 2015.
