 Gaussian 09, Revision D.01,
 Gaussian 09:  ES64L-G09RevD.01 24-Apr-2013

 ------------------------------------------------------------
 #P AM1(Input,print) CIS(Singlets,NStates=15) pop(full) force
 ------------------------------------------------------------

 -----------------
 AM1-Reparam Input
 -----------------
 Symbolic Z-matrix:
 Charge =  0 Multiplicity = 1

                         Standard orientation:
 ---------------------------------------------------------------------
 Center     Atomic      Atomic             Coordinates (Angstroms)
 Number     Number       Type             X           Y           Z
 ---------------------------------------------------------------------
      1          6           0        0.701226    0.967271    0.040553
      2          6           0        1.125392   -0.316932   -0.018002
      3          8           0        0.007052   -1.142557   -0.010788
      4          6           0       -1.064523   -0.340344    0.037152
      5          6           0       -0.742517    0.901630   -0.041313
      6          1           0       -1.448645    1.775495   -0.029997
      7          1           0       -2.014939   -0.928212    0.013211
      8          1           0        2.024224   -0.811181   -0.003780
      9          1           0        1.265480    1.834602   -0.003475
 ---------------------------------------------------------------------

 SCF Done:  E(RAM1) =   1.84903254004     A.U. after   14 cycles

 Excitation energies and oscillator strengths:

 Excited State   1:      Singlet-A      5.2965 eV  234.09 nm  f=0.3546  <S**2>=0.000
      13 -> 14         0.69323
 This state for optimization and/or second-order correction.
 Total Energy, E(CIS) =   2.04367573291
 Copying the excited state density for this state as the 1-particle RhoCI density.

 Excited State   2:      Singlet-A      6.1543 eV  201.46 nm  f=0.0015  <S**2>=0.000
      13 -> 15         0.68064
      13 -> 18         0.12103

 Excited State   3:      Singlet-A      6.8236 eV  181.70 nm  f=0.0044  <S**2>=0.000
      13 -> 16         0.67053
      13 -> 17        -0.12994
      13 -> 19         0.11804

 Excited State   4:      Singlet-A      7.3336 eV  169.06 nm  f=0.0004  <S**2>=0.000
      12 -> 14         0.69888

 Excited State   5:      Singlet-A      7.9127 eV  156.69 nm  f=0.0007  <S**2>=0.000
      13 -> 16         0.11235
      13 -> 17         0.20937
      13 -> 18         0.61815
      13 -> 21        -0.19681

 Excited State   6:      Singlet-A      8.2449 eV  150.38 nm  f=0.0097  <S**2>=0.000
      11 -> 14         0.68330
      13 -> 17         0.13610

 Excited State   7:      Singlet-A      8.6326 eV  143.62 nm  f=0.0080  <S**2>=0.000
      11 -> 14        -0.14657
      13 -> 15         0.10653
      13 -> 17         0.61986
      13 -> 18        -0.21896
      13 -> 19         0.12525

 Excited State   8:      Singlet-A      9.1501 eV  135.50 nm  f=0.0674  <S**2>=0.000
      10 -> 14         0.64866
      12 -> 15         0.17854

 Excited State   9:      Singlet-A      9.4738 eV  130.87 nm  f=0.0018  <S**2>=0.000
      10 -> 16         0.13267
      13 -> 16        -0.11044
      13 -> 19         0.66461

 Excited State  10:      Singlet-A      9.5000 eV  130.51 nm  f=0.0693  <S**2>=0.000
      10 -> 14        -0.16304
      11 -> 17         0.13926
      12 -> 15         0.50628
      12 -> 16        -0.20274
      12 -> 18         0.27598

 Excited State  11:      Singlet-A      9.8391 eV  126.01 nm  f=0.1007  <S**2>=0.000
       9 -> 15         0.12377
      11 -> 15         0.33589
      11 -> 16         0.10943
      11 -> 17        -0.17419
      11 -> 18         0.13038
      12 -> 15         0.37558
      12 -> 16         0.17843
      12 -> 17        -0.22481
      12 -> 18        -0.20531

 Excited State  12:      Singlet-A     10.2023 eV  121.53 nm  f=0.0346  <S**2>=0.000
      13 -> 18        -0.18004
      13 -> 20         0.48050
      13 -> 21        -0.46026

 Excited State  13:      Singlet-A     10.4125 eV  119.07 nm  f=0.0420  <S**2>=0.000
       7 -> 15        -0.10810
      10 -> 15         0.54245
      12 -> 16         0.13086
      13 -> 20         0.27646
      13 -> 21         0.25065

 Excited State  14:      Singlet-A     10.5005 eV  118.07 nm  f=0.0463  <S**2>=0.000
      10 -> 15        -0.33780
      10 -> 16        -0.13040
      13 -> 20         0.38873
      13 -> 21         0.41092

 Excited State  15:      Singlet-A     10.5149 eV  117.91 nm  f=0.1451  <S**2>=0.000
      10 -> 15        -0.14664
      11 -> 16        -0.37751
      11 -> 19        -0.10423
      12 -> 16         0.49665
      12 -> 18         0.17039
      12 -> 19         0.11234

 The electronic state is 1-A.
 Alpha  occ. eigenvalues --   -2.00623  -1.28134  -1.02041  -0.90364  -0.85394
 Alpha  occ. eigenvalues --   -0.76916  -0.75378  -0.63818  -0.61916  -0.52753
 Alpha  occ. eigenvalues --   -0.51903  -0.49014  -0.35823
 Alpha virt. eigenvalues --    0.04435   0.09346   0.13055   0.19695   0.20355
 Alpha virt. eigenvalues --    0.23328   0.25926   0.27533   0.28562   0.36756
 Alpha virt. eigenvalues --    0.41719

 Mulliken charges:
               1
     1  C   -0.112688
     2  C   -1.867266
     3  O    3.167493
     4  C   -1.860787
     5  C   -0.181178
     6  H    0.164734
     7  H    0.285895
     8  H    0.260110
     9  H    0.143687
 Sum of Mulliken charges =   0.00000

 Dipole moment (field-independent basis, Debye):
    X=             -0.7298    Y=            -10.9605    Z=             -0.2900  Tot=             10.9886
 N-N= 1.060570430005D+02 E-N=-1.712387749216D+02  KE=-1.569571274579D+01
 Orbital energies and kinetic energies (alpha):
                                 1                 2
   1         O                -2.006232         -1.385411
   2         O                -1.281337         -1.051109
   3         O                -1.020408         -0.888475
   4         O                -0.903635         -0.595928
   5         O                -0.853942         -0.702949
   6         O                -0.769160         -0.601136
   7         O                -0.753782         -0.550730

 Normal termination of Gaussian 09 at Tue Dec 15 17:08:54 2015.
