 Gaussian 09, Revision D.01,
 Gaussian 09:  ES64L-G09RevD.01 24-Apr-2013

 ------------------------------------------------------------
 #P AM1(Input,print) CIS(Singlets,NStates=15) pop(full) force
 ------------------------------------------------------------

 -----------------
 AM1-Reparam Input
 -----------------
 Symbolic Z-matrix:
 Charge =  0 Multiplicity = 1

                         Standard orientation:
 ---------------------------------------------------------------------
 Center     Atomic      Atomic             Coordinates (Angstroms)
 Number     Number       Type             X           Y           Z
 ---------------------------------------------------------------------
      1          6           0       -0.665865    0.957278    0.014724
      2          6           0       -1.132175   -0.269605   -0.006172
      3          8           0       -0.098945   -1.117611    0.002424
      4          6           0        1.108963   -0.423892   -0.004289
      5          6           0        0.776661    0.915995   -0.001533
      6          1           0        1.541009    1.678498   -0.014108
      7          1           0        2.043037   -1.016907    0.012523
      8          1           0       -2.092149   -0.719377   -0.010107
      9          1           0       -1.225847    1.920021   -0.024073
 ---------------------------------------------------------------------

 SCF Done:  E(RAM1) =   2.03497278211     A.U. after   13 cycles

 Excitation energies and oscillator strengths:

 Excited State   1:      Singlet-A      5.2565 eV  235.87 nm  f=0.3490  <S**2>=0.000
      13 -> 14         0.69510
 This state for optimization and/or second-order correction.
 Total Energy, E(CIS) =   2.22814385089
 Copying the excited state density for this state as the 1-particle RhoCI density.

 Excited State   2:      Singlet-A      6.7152 eV  184.63 nm  f=0.0080  <S**2>=0.000
      12 -> 14        -0.43620
      13 -> 15         0.50728
      13 -> 17         0.12706
      13 -> 18         0.15056

 Excited State   3:      Singlet-A      6.7419 eV  183.90 nm  f=0.0035  <S**2>=0.000
      12 -> 14         0.53556
      13 -> 15         0.40941
      13 -> 16         0.11795
      13 -> 17         0.13537

 Excited State   4:      Singlet-A      6.8911 eV  179.92 nm  f=0.0035  <S**2>=0.000
      12 -> 14        -0.11045
      13 -> 16         0.60163
      13 -> 17         0.15490
      13 -> 18        -0.27839

 Excited State   5:      Singlet-A      7.5921 eV  163.31 nm  f=0.0057  <S**2>=0.000
      11 -> 14         0.69549

 Excited State   6:      Singlet-A      7.7772 eV  159.42 nm  f=0.0006  <S**2>=0.000
      13 -> 16         0.21768
      13 -> 17        -0.10100
      13 -> 18         0.38531
      13 -> 19         0.46845
      13 -> 20         0.21644

 Excited State   7:      Singlet-A      8.5826 eV  144.46 nm  f=0.0181  <S**2>=0.000
      10 -> 16         0.11777
      13 -> 15        -0.18862
      13 -> 17         0.62063
      13 -> 18         0.18423

 Excited State   8:      Singlet-A      8.7594 eV  141.54 nm  f=0.1174  <S**2>=0.000
      10 -> 14         0.68857

 Excited State   9:      Singlet-A      8.9448 eV  138.61 nm  f=0.0007  <S**2>=0.000
      10 -> 16         0.11363
      13 -> 16        -0.19461
      13 -> 17         0.14761
      13 -> 18        -0.38173
      13 -> 19         0.50458

 Excited State  10:      Singlet-A      9.4800 eV  130.79 nm  f=0.0138  <S**2>=0.000
      12 -> 18        -0.10546
      13 -> 18        -0.22487
      13 -> 19        -0.10980
      13 -> 20         0.61426

 Excited State  11:      Singlet-A      9.5239 eV  130.18 nm  f=0.0182  <S**2>=0.000
      11 -> 15        -0.21943
      11 -> 16        -0.13910
      11 -> 17        -0.21694
      12 -> 16        -0.27719
      12 -> 17        -0.13403
      12 -> 18         0.32322
      12 -> 19         0.23903
      13 -> 20         0.20085

 Excited State  12:      Singlet-A      9.8538 eV  125.82 nm  f=0.1209  <S**2>=0.000
      11 -> 15         0.18731
      11 -> 18         0.10304
      12 -> 15         0.60522
      12 -> 17         0.17550
      12 -> 18         0.14069

 Excited State  13:      Singlet-A      9.8683 eV  125.64 nm  f=0.0646  <S**2>=0.000
      13 -> 21         0.68867

 Excited State  14:      Singlet-A     10.2495 eV  120.97 nm  f=0.1887  <S**2>=0.000
      11 -> 15         0.14737
      11 -> 16         0.45557
      11 -> 17         0.14858
      11 -> 18        -0.10585
      11 -> 19         0.10011
      12 -> 16        -0.41176
      12 -> 17        -0.13349

 Excited State  15:      Singlet-A     10.4523 eV  118.62 nm  f=0.0028  <S**2>=0.000
       9 -> 14        -0.17463
      10 -> 15         0.50641
      10 -> 16         0.29719
      10 -> 17         0.13855
      11 -> 19        -0.10555
      13 -> 16         0.10680

 The electronic state is 1-A.
 Alpha  occ. eigenvalues --   -1.94565  -1.19477  -0.96902  -0.82484  -0.78296
 Alpha  occ. eigenvalues --   -0.68524  -0.65517  -0.56511  -0.54135  -0.44877
 Alpha  occ. eigenvalues --   -0.43963  -0.41540  -0.29582
 Alpha virt. eigenvalues --    0.10206   0.18595   0.19955   0.25031   0.26772
 Alpha virt. eigenvalues --    0.27631   0.29612   0.30259   0.35462   0.43780
 Alpha virt. eigenvalues --    0.49294

 Mulliken charges:
               1
     1  C   -0.254125
     2  C   -1.993943
     3  O    3.200159
     4  C   -2.020642
     5  C   -0.204872
     6  H    0.262088
     7  H    0.369699
     8  H    0.371897
     9  H    0.269740
 Sum of Mulliken charges =   0.00000

 Dipole moment (field-independent basis, Debye):
    X=             -1.0947    Y=             -9.7952    Z=              0.0705  Tot=              9.8565
 N-N= 1.043299771002D+02 E-N=-1.695849247666D+02  KE=-1.547763961412D+01
 Orbital energies and kinetic energies (alpha):
                                 1                 2
   1         O                -1.945647         -1.392748
   2         O                -1.194766         -1.049520
   3         O                -0.969019         -0.870347
   4         O                -0.824843         -0.607260
   5         O                -0.782961         -0.679763
   6         O                -0.685239         -0.562398
   7         O                -0.655167         -0.520689

 Normal termination of Gaussian 09 at Tue Dec 15 17:07:18 2015.
