 Gaussian 09, Revision D.01,
 Gaussian 09:  ES64L-G09RevD.01 24-Apr-2013

 ------------------------------------------------------------
 #P AM1(Input,print) CIS(Singlets,NStates=15) pop(full) force
 ------------------------------------------------------------

 -----------------
 AM1-Reparam Input
 -----------------
 Symbolic Z-matrix:
 Charge =  0 Multiplicity = 1

                         Standard orientation:
 ---------------------------------------------------------------------
 Center     Atomic      Atomic             Coordinates (Angstroms)
 Number     Number       Type             X           Y           Z
 ---------------------------------------------------------------------
      1          6           0        0.910887    0.802540   -0.001698
      2          6           0        0.997376   -0.549908    0.016192
      3          8           0       -0.229411   -1.131440    0.005287
      4          6           0       -1.140191   -0.141281   -0.031029
      5          6           0       -0.524155    1.083897    0.002240
      6          1           0       -0.998771    2.070282    0.039637
      7          1           0       -2.167242   -0.445418    0.063473
      8          1           0        1.798177   -1.214087   -0.038172
      9          1           0        1.739618    1.469259   -0.021473
 ---------------------------------------------------------------------

 SCF Done:  E(RAM1) =   2.52246077612     A.U. after   13 cycles

 Excitation energies and oscillator strengths:

 Excited State   1:      Singlet-A      5.2557 eV  235.91 nm  f=0.3527  <S**2>=0.000
      13 -> 14         0.69609
 This state for optimization and/or second-order correction.
 Total Energy, E(CIS) =   2.71560344060
 Copying the excited state density for this state as the 1-particle RhoCI density.

 Excited State   2:      Singlet-A      6.4367 eV  192.62 nm  f=0.0036  <S**2>=0.000
      11 -> 15        -0.10833
      13 -> 15         0.65354
      13 -> 16         0.10577
      13 -> 17         0.16250
      13 -> 18         0.10471

 Excited State   3:      Singlet-A      6.4915 eV  191.00 nm  f=0.0020  <S**2>=0.000
      11 -> 16         0.10567
      13 -> 15        -0.10225
      13 -> 16         0.65153
      13 -> 17         0.12655
      13 -> 18        -0.12275
      13 -> 19         0.12605

 Excited State   4:      Singlet-A      6.8318 eV  181.48 nm  f=0.0002  <S**2>=0.000
       9 -> 14         0.12016
      12 -> 14         0.69439

 Excited State   5:      Singlet-A      7.8532 eV  157.88 nm  f=0.0002  <S**2>=0.000
      13 -> 16         0.11891
      13 -> 17        -0.10583
      13 -> 18         0.57046
      13 -> 20         0.15229
      13 -> 21        -0.31415

 Excited State   6:      Singlet-A      7.9090 eV  156.76 nm  f=0.0076  <S**2>=0.000
      10 -> 14         0.67318
      13 -> 17         0.14757

 Excited State   7:      Singlet-A      8.2526 eV  150.24 nm  f=0.0093  <S**2>=0.000
      10 -> 14        -0.17601
      11 -> 15         0.10140
      13 -> 15        -0.13262
      13 -> 16        -0.10361
      13 -> 17         0.63969

 Excited State   8:      Singlet-A      8.7521 eV  141.66 nm  f=0.1050  <S**2>=0.000
      11 -> 14         0.68698

 Excited State   9:      Singlet-A      8.8227 eV  140.53 nm  f=0.0003  <S**2>=0.000
      13 -> 19         0.67891

 Excited State  10:      Singlet-A      9.3569 eV  132.51 nm  f=0.0061  <S**2>=0.000
      13 -> 18         0.35245
      13 -> 20        -0.33560
      13 -> 21         0.49714

 Excited State  11:      Singlet-A      9.4537 eV  131.15 nm  f=0.0463  <S**2>=0.000
       8 -> 15         0.11860
       8 -> 16         0.11361
      10 -> 16        -0.11444
      10 -> 17        -0.21144
      12 -> 15         0.37052
      12 -> 16        -0.34740
      12 -> 18         0.29789

 Excited State  12:      Singlet-A      9.7870 eV  126.68 nm  f=0.0962  <S**2>=0.000
      11 -> 15        -0.12603
      13 -> 20         0.57507
      13 -> 21         0.34808

 Excited State  13:      Singlet-A      9.8167 eV  126.30 nm  f=0.0507  <S**2>=0.000
       9 -> 14        -0.15655
       9 -> 15        -0.13327
      10 -> 15         0.24245
      10 -> 17         0.11916
      12 -> 15         0.49997
      12 -> 16         0.23995
      12 -> 17         0.14268

 Excited State  14:      Singlet-A      9.9012 eV  125.22 nm  f=0.0172  <S**2>=0.000
       9 -> 14         0.63945
      12 -> 14        -0.10859
      12 -> 15         0.13957

 Excited State  15:      Singlet-A      9.9378 eV  124.76 nm  f=0.1359  <S**2>=0.000
       9 -> 14         0.15099
       9 -> 16        -0.12813
      10 -> 15        -0.12511
      10 -> 16        -0.33830
      10 -> 17        -0.18803
      12 -> 16         0.46066
      12 -> 18         0.16611
      12 -> 19         0.13067

 The electronic state is 1-A.
 Alpha  occ. eigenvalues --   -1.74362  -1.14797  -0.95943  -0.81434  -0.76282
 Alpha  occ. eigenvalues --   -0.67385  -0.64535  -0.55195  -0.49972  -0.44663
 Alpha  occ. eigenvalues --   -0.44153  -0.41035  -0.28774
 Alpha virt. eigenvalues --    0.10841   0.17659   0.18280   0.25525   0.27219
 Alpha virt. eigenvalues --    0.28703   0.30785   0.31540   0.39990   0.49142
 Alpha virt. eigenvalues --    0.53821

 Mulliken charges:
               1
     1  C   -0.051896
     2  C   -1.918998
     3  O    3.223846
     4  C   -1.927088
     5  C   -0.076517
     6  H    0.119959
     7  H    0.260091
     8  H    0.252691
     9  H    0.117911
 Sum of Mulliken charges =   0.00000

 Dipole moment (field-independent basis, Debye):
    X=             -2.0465    Y=            -10.2802    Z=              0.2543  Tot=             10.4851
 N-N= 1.037068334083D+02 E-N=-1.685646576756D+02  KE=-1.503348678854D+01
 Orbital energies and kinetic energies (alpha):
                                 1                 2
   1         O                -1.743624         -1.241112
   2         O                -1.147965         -1.005012
   3         O                -0.959431         -0.862125
   4         O                -0.814342         -0.625764
   5         O                -0.762821         -0.690379
   6         O                -0.673846         -0.567049
   7         O                -0.645347         -0.519119

 Normal termination of Gaussian 09 at Tue Dec 15 17:06:22 2015.
