 Gaussian 09, Revision D.01,
 Gaussian 09:  ES64L-G09RevD.01 24-Apr-2013

 ------------------------------------------------------------
 #P AM1(Input,print) CIS(Singlets,NStates=15) pop(full) force
 ------------------------------------------------------------

 -----------------
 AM1-Reparam Input
 -----------------
 Symbolic Z-matrix:
 Charge =  0 Multiplicity = 1

                         Standard orientation:
 ---------------------------------------------------------------------
 Center     Atomic      Atomic             Coordinates (Angstroms)
 Number     Number       Type             X           Y           Z
 ---------------------------------------------------------------------
      1          6           0        0.997475    0.685063   -0.014824
      2          6           0        0.940449   -0.633211   -0.000099
      3          8           0       -0.343307   -1.080257   -0.024714
      4          6           0       -1.184418   -0.037306    0.038479
      5          6           0       -0.389944    1.104132    0.005761
      6          1           0       -0.719698    2.168621   -0.062461
      7          1           0       -2.209550   -0.159561   -0.029901
      8          1           0        1.684739   -1.406406    0.074416
      9          1           0        1.809589    1.327340    0.039754
 ---------------------------------------------------------------------

 SCF Done:  E(RAM1) =   1.10532729309     A.U. after   14 cycles

 Excitation energies and oscillator strengths:

 Excited State   1:      Singlet-A      5.4154 eV  228.95 nm  f=0.2121  <S**2>=0.000
      13 -> 14         0.68181
 This state for optimization and/or second-order correction.
 Total Energy, E(CIS) =   1.30434066392
 Copying the excited state density for this state as the 1-particle RhoCI density.

 Excited State   2:      Singlet-A      6.4438 eV  192.41 nm  f=0.0081  <S**2>=0.000
      13 -> 15        -0.47827
      13 -> 16         0.48103
      13 -> 20        -0.14141

 Excited State   3:      Singlet-A      6.8227 eV  181.72 nm  f=0.0022  <S**2>=0.000
      12 -> 14        -0.14934
      13 -> 15        -0.28663
      13 -> 16        -0.20991
      13 -> 17         0.53851
      13 -> 18        -0.16297
      13 -> 21         0.13175

 Excited State   4:      Singlet-A      7.0032 eV  177.04 nm  f=0.0025  <S**2>=0.000
      11 -> 14        -0.15294
      12 -> 14         0.36565
      13 -> 15         0.26708
      13 -> 16         0.35031
      13 -> 17         0.34840

 Excited State   5:      Singlet-A      7.0926 eV  174.81 nm  f=0.0008  <S**2>=0.000
       9 -> 14         0.16622
      11 -> 14         0.66387
      12 -> 14         0.11689

 Excited State   6:      Singlet-A      7.9729 eV  155.51 nm  f=0.0152  <S**2>=0.000
      10 -> 14         0.63893
      11 -> 15         0.13936
      11 -> 16         0.12021
      12 -> 14        -0.12674

 Excited State   7:      Singlet-A      7.9867 eV  155.24 nm  f=0.1272  <S**2>=0.000
      12 -> 14         0.40297
      13 -> 15        -0.22097
      13 -> 16        -0.17726
      13 -> 18         0.45115

 Excited State   8:      Singlet-A      8.0511 eV  154.00 nm  f=0.1183  <S**2>=0.000
      10 -> 14        -0.16779
      12 -> 14        -0.35627
      12 -> 15        -0.10223
      12 -> 16         0.11196
      13 -> 15         0.16426
      13 -> 16         0.16776
      13 -> 17         0.17661
      13 -> 18         0.43676

 Excited State   9:      Singlet-A      8.5118 eV  145.66 nm  f=0.0204  <S**2>=0.000
       9 -> 15        -0.19747
       9 -> 16        -0.11335
      10 -> 14        -0.17644
      11 -> 15         0.50624
      11 -> 16         0.26125
      11 -> 17         0.12044
      13 -> 19        -0.15815

 Excited State  10:      Singlet-A      8.5320 eV  145.32 nm  f=0.0016  <S**2>=0.000
      10 -> 14        -0.11093
      12 -> 15         0.20570
      12 -> 16        -0.12950
      13 -> 19         0.56695
      13 -> 20        -0.21923
      13 -> 23         0.10277

 Excited State  11:      Singlet-A      8.6350 eV  143.58 nm  f=0.0114  <S**2>=0.000
      12 -> 15         0.42561
      12 -> 16        -0.41470
      12 -> 17         0.15788
      13 -> 18         0.10090
      13 -> 19        -0.20349

 Excited State  12:      Singlet-A      8.9197 eV  139.00 nm  f=0.1365  <S**2>=0.000
       9 -> 17         0.15316
      11 -> 17         0.12529
      11 -> 18        -0.13916
      12 -> 15         0.39783
      12 -> 16         0.42640
      12 -> 17        -0.12153
      13 -> 14         0.11529

 Excited State  13:      Singlet-A      9.1029 eV  136.20 nm  f=0.0550  <S**2>=0.000
       9 -> 14         0.18062
       9 -> 15         0.11763
       9 -> 16        -0.20795
      10 -> 17         0.14611
      11 -> 15        -0.24816
      11 -> 16         0.47767
      11 -> 17        -0.12469
      11 -> 20        -0.12614

 Excited State  14:      Singlet-A      9.1591 eV  135.37 nm  f=0.0158  <S**2>=0.000
       9 -> 14        -0.20261
      12 -> 16         0.13568
      12 -> 17         0.51787
      13 -> 19         0.15884
      13 -> 20         0.29959
      13 -> 21        -0.13335

 Excited State  15:      Singlet-A      9.2860 eV  133.52 nm  f=0.0064  <S**2>=0.000
       9 -> 14         0.59897
      11 -> 14        -0.15304
      11 -> 16        -0.17476
      12 -> 17         0.16850

 The electronic state is 1-A.
 Alpha  occ. eigenvalues --   -1.83887  -1.19087  -1.00097  -0.87744  -0.81336
 Alpha  occ. eigenvalues --   -0.74197  -0.72135  -0.61931  -0.55701  -0.52970
 Alpha  occ. eigenvalues --   -0.49466  -0.47885  -0.38399
 Alpha virt. eigenvalues --    0.02790   0.09552   0.10225   0.11259   0.17466
 Alpha virt. eigenvalues --    0.19524   0.19628   0.21603   0.25943   0.27307
 Alpha virt. eigenvalues --    0.28007

 Mulliken charges:
               1
     1  C   -0.095547
     2  C   -1.258640
     3  O    2.154478
     4  C   -1.260863
     5  C   -0.172563
     6  H    0.121108
     7  H    0.202744
     8  H    0.204134
     9  H    0.105149
 Sum of Mulliken charges =   0.00000

 Dipole moment (field-independent basis, Debye):
    X=             -1.8203    Y=             -6.5907    Z=             -0.3861  Tot=              6.8484
 N-N= 1.045611301807D+02 E-N=-1.714066448715D+02  KE=-1.500825777295D+01
 Orbital energies and kinetic energies (alpha):
                                 1                 2
   1         O                -1.838873         -1.253982
   2         O                -1.190868         -0.964031
   3         O                -1.000969         -0.811347
   4         O                -0.877445         -0.634212
   5         O                -0.813355         -0.683085
   6         O                -0.741972         -0.594220
   7         O                -0.721354         -0.515232

 Normal termination of Gaussian 09 at Tue Dec 15 17:05:46 2015.
