 Gaussian 09, Revision D.01,
 Gaussian 09:  ES64L-G09RevD.01 24-Apr-2013

 ------------------------------------------------------------
 #P AM1(Input,print) CIS(Singlets,NStates=15) pop(full) force
 ------------------------------------------------------------

 -----------------
 AM1-Reparam Input
 -----------------
 Symbolic Z-matrix:
 Charge =  0 Multiplicity = 1

                         Standard orientation:
 ---------------------------------------------------------------------
 Center     Atomic      Atomic             Coordinates (Angstroms)
 Number     Number       Type             X           Y           Z
 ---------------------------------------------------------------------
      1          6           0       -0.716696    0.974194   -0.001533
      2          6           0       -1.107298   -0.366008   -0.010851
      3          8           0       -0.014993   -1.126145    0.021393
      4          6           0        1.125713   -0.343801   -0.025532
      5          6           0        0.713331    0.902906    0.003358
      6          1           0        1.455381    1.817331    0.048706
      7          1           0        2.036707   -0.850826   -0.004192
      8          1           0       -2.092884   -0.817018   -0.011359
      9          1           0       -1.369558    1.855927    0.003043
 ---------------------------------------------------------------------

 SCF Done:  E(RAM1) =   2.80971425198     A.U. after   13 cycles

 Excitation energies and oscillator strengths:

 Excited State   1:      Singlet-A      5.2702 eV  235.26 nm  f=0.3393  <S**2>=0.000
      13 -> 14         0.69490
 This state for optimization and/or second-order correction.
 Total Energy, E(CIS) =   3.00339030004
 Copying the excited state density for this state as the 1-particle RhoCI density.

 Excited State   2:      Singlet-A      6.4442 eV  192.40 nm  f=0.0073  <S**2>=0.000
      13 -> 15         0.63556
      13 -> 17        -0.23579
      13 -> 19         0.12154

 Excited State   3:      Singlet-A      6.6341 eV  186.89 nm  f=0.0008  <S**2>=0.000
       9 -> 14         0.11578
      12 -> 14         0.68453

 Excited State   4:      Singlet-A      6.8422 eV  181.21 nm  f=0.0015  <S**2>=0.000
      12 -> 14         0.10351
      13 -> 16         0.62972
      13 -> 19        -0.21562

 Excited State   5:      Singlet-A      7.6316 eV  162.46 nm  f=0.0041  <S**2>=0.000
      10 -> 14        -0.18754
      11 -> 14        -0.31344
      13 -> 15         0.17155
      13 -> 17         0.38870
      13 -> 18         0.19175
      13 -> 21        -0.35322

 Excited State   6:      Singlet-A      7.7657 eV  159.66 nm  f=0.0027  <S**2>=0.000
      10 -> 14         0.29536
      11 -> 14         0.50084
      13 -> 17         0.15705
      13 -> 18         0.17525
      13 -> 19        -0.12545
      13 -> 21        -0.25261

 Excited State   7:      Singlet-A      7.9896 eV  155.18 nm  f=0.0053  <S**2>=0.000
      11 -> 14         0.10308
      13 -> 15         0.12424
      13 -> 16         0.16817
      13 -> 17         0.49473
      13 -> 18        -0.23874
      13 -> 19         0.14706
      13 -> 21         0.30017

 Excited State   8:      Singlet-A      8.4956 eV  145.94 nm  f=0.0046  <S**2>=0.000
      13 -> 15        -0.12303
      13 -> 16         0.13064
      13 -> 18         0.43493
      13 -> 19         0.48652
      13 -> 20        -0.13282

 Excited State   9:      Singlet-A      8.6525 eV  143.29 nm  f=0.0814  <S**2>=0.000
      10 -> 14         0.58096
      11 -> 14        -0.34054
      12 -> 17         0.11829

 Excited State  10:      Singlet-A      8.8578 eV  139.97 nm  f=0.0002  <S**2>=0.000
      13 -> 18         0.39873
      13 -> 19        -0.36050
      13 -> 21         0.43362

 Excited State  11:      Singlet-A      9.2860 eV  133.52 nm  f=0.0932  <S**2>=0.000
      13 -> 18         0.10986
      13 -> 19         0.10104
      13 -> 20         0.66697

 Excited State  12:      Singlet-A      9.3322 eV  132.86 nm  f=0.0754  <S**2>=0.000
       9 -> 19         0.12032
      10 -> 14         0.10206
      10 -> 17         0.12990
      11 -> 16        -0.15130
      11 -> 17         0.18890
      12 -> 15         0.33097
      12 -> 17        -0.30711
      12 -> 18        -0.21451
      12 -> 21         0.15799

 Excited State  13:      Singlet-A      9.5935 eV  129.24 nm  f=0.1038  <S**2>=0.000
      12 -> 15         0.17453
      12 -> 16         0.61948
      12 -> 19        -0.10220
      12 -> 20         0.12214

 Excited State  14:      Singlet-A      9.7563 eV  127.08 nm  f=0.1708  <S**2>=0.000
       9 -> 14         0.29918
      10 -> 15         0.16852
      11 -> 15         0.26678
      11 -> 17        -0.11281
      12 -> 15         0.40678
      12 -> 16        -0.15683
      12 -> 18         0.19990
      12 -> 19         0.12013

 Excited State  15:      Singlet-A      9.7774 eV  126.81 nm  f=0.0482  <S**2>=0.000
       9 -> 14         0.60949
      11 -> 15        -0.15678
      12 -> 14        -0.10143
      12 -> 15        -0.20003
      12 -> 18        -0.11202

 The electronic state is 1-A.
 Alpha  occ. eigenvalues --   -1.72500  -1.10931  -0.93218  -0.79081  -0.75243
 Alpha  occ. eigenvalues --   -0.65747  -0.63918  -0.55601  -0.49703  -0.43883
 Alpha  occ. eigenvalues --   -0.43559  -0.39791  -0.28889
 Alpha virt. eigenvalues --    0.10959   0.18212   0.19722   0.23366   0.26622
 Alpha virt. eigenvalues --    0.26912   0.28991   0.29250   0.37592   0.45956
 Alpha virt. eigenvalues --    0.51056

 Mulliken charges:
               1
     1  C   -0.182554
     2  C   -1.995720
     3  O    3.229110
     4  C   -1.933253
     5  C   -0.106148
     6  H    0.183417
     7  H    0.297122
     8  H    0.320214
     9  H    0.187812
 Sum of Mulliken charges =   0.00000

 Dipole moment (field-independent basis, Debye):
    X=             -0.0975    Y=             -9.7814    Z=              0.6130  Tot=              9.8010
 N-N= 1.038791396506D+02 E-N=-1.689492262590D+02  KE=-1.474834473924D+01
 Orbital energies and kinetic energies (alpha):
                                 1                 2
   1         O                -1.725001         -1.223038
   2         O                -1.109311         -0.964407
   3         O                -0.932176         -0.843703
   4         O                -0.790807         -0.594094
   5         O                -0.752429         -0.687292
   6         O                -0.657474         -0.560578
   7         O                -0.639183         -0.522745

 Normal termination of Gaussian 09 at Tue Dec 15 17:05:54 2015.
