 Gaussian 09, Revision D.01,
 Gaussian 09:  ES64L-G09RevD.01 24-Apr-2013

 ------------------------------------------------------------
 #P AM1(Input,print) CIS(Singlets,NStates=15) pop(full) force
 ------------------------------------------------------------

 -----------------
 AM1-Reparam Input
 -----------------
 Symbolic Z-matrix:
 Charge =  0 Multiplicity = 1

                         Standard orientation:
 ---------------------------------------------------------------------
 Center     Atomic      Atomic             Coordinates (Angstroms)
 Number     Number       Type             X           Y           Z
 ---------------------------------------------------------------------
      1          6           0       -0.649419    0.961871   -0.002631
      2          6           0       -1.095568   -0.246318    0.001723
      3          8           0       -0.104229   -1.154401    0.000617
      4          6           0        1.085947   -0.418762   -0.000511
      5          6           0        0.768999    0.916622    0.000003
      6          1           0        1.440928    1.691179    0.031100
      7          1           0        2.021488   -0.928274   -0.019471
      8          1           0       -2.054341   -0.701881    0.012815
      9          1           0       -1.233998    1.893702   -0.020884
 ---------------------------------------------------------------------

 SCF Done:  E(RAM1) =  0.272924129232E-01 A.U. after   13 cycles

 Excitation energies and oscillator strengths:

 Excited State   1:      Singlet-A      4.5637 eV  271.67 nm  f=0.0901  <S**2>=0.000
      12 -> 15         0.19715
      13 -> 14         0.67057
 This state for optimization and/or second-order correction.
 Total Energy, E(CIS) =  0.195005445429
 Copying the excited state density for this state as the 1-particle RhoCI density.

 Excited State   2:      Singlet-A      5.1532 eV  240.60 nm  f=0.0004  <S**2>=0.000
      13 -> 16         0.68863
      13 -> 22        -0.11182

 Excited State   3:      Singlet-A      5.2515 eV  236.09 nm  f=0.0036  <S**2>=0.000
      12 -> 14        -0.44230
      13 -> 15         0.54636

 Excited State   4:      Singlet-A      5.9749 eV  207.51 nm  f=0.0020  <S**2>=0.000
      12 -> 16         0.37554
      12 -> 18         0.11903
      12 -> 22        -0.16609
      13 -> 17         0.11429
      13 -> 18         0.41241
      13 -> 20        -0.17365
      13 -> 21        -0.14016
      13 -> 22        -0.17188
      13 -> 23         0.11757

 Excited State   5:      Singlet-A      6.0341 eV  205.47 nm  f=0.0002  <S**2>=0.000
       7 -> 16        -0.16608
      12 -> 16         0.53478
      12 -> 18        -0.11698
      13 -> 18        -0.27301
      13 -> 20         0.12934
      13 -> 21         0.10020
      13 -> 22         0.12504
      13 -> 23        -0.11525

 Excited State   6:      Singlet-A      6.3273 eV  195.95 nm  f=0.3512  <S**2>=0.000
      10 -> 16        -0.10895
      12 -> 14         0.50484
      12 -> 15         0.11907
      13 -> 15         0.42199

 Excited State   7:      Singlet-A      6.3814 eV  194.29 nm  f=0.0014  <S**2>=0.000
      12 -> 18        -0.14058
      12 -> 19        -0.21416
      12 -> 22        -0.11491
      12 -> 23        -0.14909
      13 -> 18         0.14338
      13 -> 19         0.46081
      13 -> 21         0.10926
      13 -> 22         0.25356
      13 -> 23         0.20756

 Excited State   8:      Singlet-A      6.5810 eV  188.40 nm  f=0.0013  <S**2>=0.000
      11 -> 14        -0.11480
      12 -> 19         0.10503
      13 -> 17         0.63848
      13 -> 19         0.10165
      13 -> 23        -0.14702

 Excited State   9:      Singlet-A      6.6176 eV  187.36 nm  f=0.1501  <S**2>=0.000
      12 -> 15         0.65759
      13 -> 14        -0.18499

 Excited State  10:      Singlet-A      7.1267 eV  173.97 nm  f=0.0005  <S**2>=0.000
      10 -> 14        -0.13266
      12 -> 17         0.52719
      12 -> 18         0.14407
      12 -> 19         0.11016
      12 -> 20        -0.13850
      12 -> 21         0.10237
      13 -> 18        -0.11771
      13 -> 19         0.21690
      13 -> 22        -0.12785

 Excited State  11:      Singlet-A      7.1679 eV  172.97 nm  f=0.0012  <S**2>=0.000
       9 -> 14         0.22943
       9 -> 15         0.13830
      10 -> 14         0.44089
      11 -> 14         0.32465
      11 -> 15         0.21773
      12 -> 17         0.16309
      12 -> 19         0.10442

 Excited State  12:      Singlet-A      7.5027 eV  165.25 nm  f=0.0004  <S**2>=0.000
       8 -> 14        -0.10123
       9 -> 14         0.14417
       9 -> 15        -0.18133
      10 -> 14        -0.40930
      10 -> 15         0.21287
      11 -> 14         0.43242

 Excited State  13:      Singlet-A      7.6295 eV  162.51 nm  f=0.0048  <S**2>=0.000
      11 -> 15        -0.17962
      12 -> 17        -0.18352
      12 -> 18         0.21808
      12 -> 19         0.12913
      12 -> 20         0.19285
      12 -> 21        -0.18759
      12 -> 23         0.18884
      13 -> 18        -0.19063
      13 -> 19         0.27858
      13 -> 21        -0.23750
      13 -> 22        -0.17356
      13 -> 23         0.12837

 Excited State  14:      Singlet-A      7.6987 eV  161.05 nm  f=0.0023  <S**2>=0.000
       9 -> 14         0.21759
      11 -> 14        -0.14706
      12 -> 18         0.38189
      12 -> 24        -0.11375
      13 -> 20        -0.21315
      13 -> 22         0.39870
      13 -> 24         0.12363

 Excited State  15:      Singlet-A      7.7349 eV  160.29 nm  f=0.0006  <S**2>=0.000
       7 -> 16         0.10104
      12 -> 19         0.33181
      12 -> 22         0.26461
      13 -> 18         0.29427
      13 -> 19         0.12445
      13 -> 22         0.25602
      13 -> 23        -0.12636
      13 -> 24        -0.25588

 The electronic state is 1-A.
 Alpha  occ. eigenvalues --   -1.57587  -1.24626  -1.11096  -0.82724  -0.81756
 Alpha  occ. eigenvalues --   -0.68976  -0.60317  -0.56525  -0.51399  -0.50839
 Alpha  occ. eigenvalues --   -0.49627  -0.40051  -0.35245
 Alpha virt. eigenvalues --    0.03051   0.06774   0.09795   0.14097   0.14584
 Alpha virt. eigenvalues --    0.15902   0.18164   0.18650   0.18979   0.20782
 Alpha virt. eigenvalues --    0.22220

 Mulliken charges:
               1
     1  C   -0.213116
     2  C   -0.071613
     3  O   -0.094115
     4  C   -0.108696
     5  C   -0.190764
     6  H    0.154652
     7  H    0.189459
     8  H    0.177557
     9  H    0.156636
 Sum of Mulliken charges =   0.00000

 Dipole moment (field-independent basis, Debye):
    X=              0.0795    Y=              0.4303    Z=              0.0022  Tot=              0.4376
 N-N= 1.039351138971D+02 E-N=-1.717835475446D+02  KE=-1.661673184588D+01
 Orbital energies and kinetic energies (alpha):
                                 1                 2
   1         O                -1.575872         -1.328158
   2         O                -1.246256         -1.052284
   3         O                -1.110965         -0.969166
   4         O                -0.827241         -0.714280
   5         O                -0.817561         -0.718366
   6         O                -0.689756         -0.606613
   7         O                -0.603167         -0.489372

 Normal termination of Gaussian 09 at Tue Dec 15 16:12:58 2015.
