 Gaussian 09, Revision D.01,
 Gaussian 09:  ES64L-G09RevD.01 24-Apr-2013

 ------------------------------------------------------------
 #P AM1(Input,print) CIS(Singlets,NStates=15) pop(full) force
 ------------------------------------------------------------

 -----------------
 AM1-Reparam Input
 -----------------
 Symbolic Z-matrix:
 Charge =  0 Multiplicity = 1

                         Standard orientation:
 ---------------------------------------------------------------------
 Center     Atomic      Atomic             Coordinates (Angstroms)
 Number     Number       Type             X           Y           Z
 ---------------------------------------------------------------------
      1          6           0       -0.975310    0.715668   -0.009273
      2          6           0       -0.928919   -0.602198   -0.018064
      3          8           0        0.318882   -1.148367    0.018147
      4          6           0        1.166129   -0.012823   -0.013168
      5          6           0        0.405930    1.103118    0.015270
      6          1           0        0.802026    2.164230   -0.016746
      7          1           0        2.195371   -0.198491   -0.022500
      8          1           0       -1.727105   -1.367089   -0.003242
      9          1           0       -1.828327    1.365698    0.048715
 ---------------------------------------------------------------------

 SCF Done:  E(RAM1) =  -3.74061428257     A.U. after   13 cycles

 Excitation energies and oscillator strengths:

 Excited State   1:      Singlet-A      6.5924 eV  188.07 nm  f=0.3610  <S**2>=0.000
      13 -> 14         0.69341
 This state for optimization and/or second-order correction.
 Total Energy, E(CIS) =  -3.49834713781
 Copying the excited state density for this state as the 1-particle RhoCI density.

 Excited State   2:      Singlet-A      7.9774 eV  155.42 nm  f=0.0001  <S**2>=0.000
      12 -> 14         0.61308
      13 -> 15         0.30289

 Excited State   3:      Singlet-A      8.0369 eV  154.27 nm  f=0.0028  <S**2>=0.000
      12 -> 14        -0.32128
      13 -> 15         0.59754
      13 -> 17        -0.11464

 Excited State   4:      Singlet-A      8.6997 eV  142.52 nm  f=0.0058  <S**2>=0.000
      13 -> 16         0.65499
      13 -> 17        -0.10269
      13 -> 19        -0.13114
      13 -> 21        -0.15838

 Excited State   5:      Singlet-A      8.8303 eV  140.41 nm  f=0.0056  <S**2>=0.000
       8 -> 14         0.10388
      10 -> 14         0.53349
      11 -> 14        -0.44133

 Excited State   6:      Singlet-A      9.5836 eV  129.37 nm  f=0.0315  <S**2>=0.000
      10 -> 14         0.39538
      11 -> 14         0.47517
      13 -> 18        -0.31438

 Excited State   7:      Singlet-A      9.9578 eV  124.51 nm  f=0.0075  <S**2>=0.000
      13 -> 15         0.15168
      13 -> 17         0.56369
      13 -> 19        -0.17331
      13 -> 20         0.17213
      13 -> 21        -0.19889
      13 -> 22         0.18634

 Excited State   8:      Singlet-A     10.4458 eV  118.69 nm  f=0.0043  <S**2>=0.000
      10 -> 16        -0.10229
      11 -> 16        -0.11747
      13 -> 16         0.18163
      13 -> 17         0.34239
      13 -> 19         0.43651
      13 -> 20        -0.18417
      13 -> 21         0.17221
      13 -> 22        -0.25118

 Excited State   9:      Singlet-A     10.8429 eV  114.35 nm  f=0.0503  <S**2>=0.000
       9 -> 14        -0.33124
      13 -> 17        -0.11990
      13 -> 18        -0.22629
      13 -> 19         0.36226
      13 -> 20         0.32112
      13 -> 21        -0.23058

 Excited State  10:      Singlet-A     10.9213 eV  113.53 nm  f=0.2798  <S**2>=0.000
       9 -> 14        -0.14394
      10 -> 14         0.16711
      11 -> 14         0.22733
      13 -> 18         0.57524
      13 -> 19         0.11422
      13 -> 20         0.12899
      13 -> 21        -0.11616

 Excited State  11:      Singlet-A     11.1130 eV  111.57 nm  f=0.0095  <S**2>=0.000
       9 -> 14         0.57581
      12 -> 14         0.10153
      13 -> 19         0.20536
      13 -> 20         0.24439
      13 -> 21        -0.13509

 Excited State  12:      Singlet-A     11.3074 eV  109.65 nm  f=0.0575  <S**2>=0.000
       9 -> 15        -0.17665
      10 -> 15        -0.10881
      10 -> 16         0.15292
      12 -> 15         0.43564
      12 -> 16        -0.15324
      12 -> 21         0.11926
      13 -> 20        -0.21681
      13 -> 21        -0.21216

 Excited State  13:      Singlet-A     11.3111 eV  109.61 nm  f=0.0487  <S**2>=0.000
       8 -> 14         0.20143
       9 -> 15        -0.10420
      11 -> 15         0.14982
      11 -> 16        -0.12585
      12 -> 15         0.24916
      13 -> 19        -0.12145
      13 -> 20         0.35689
      13 -> 21         0.38507
      13 -> 22        -0.11686

 Excited State  14:      Singlet-A     11.5648 eV  107.21 nm  f=0.0004  <S**2>=0.000
      10 -> 15         0.25856
      11 -> 15         0.44699
      11 -> 16         0.10922
      11 -> 17        -0.10044
      13 -> 15        -0.12875
      13 -> 20        -0.14835
      13 -> 21         0.18234
      13 -> 22         0.29995

 Excited State  15:      Singlet-A     11.7173 eV  105.81 nm  f=0.0011  <S**2>=0.000
       8 -> 14         0.32023
      10 -> 15        -0.10935
      11 -> 15        -0.28016
      13 -> 19         0.18533
      13 -> 21         0.11776
      13 -> 22         0.47762

 The electronic state is 1-A.
 Alpha  occ. eigenvalues --   -3.05769  -1.25091  -0.96396  -0.89660  -0.89143
 Alpha  occ. eigenvalues --   -0.87086  -0.79770  -0.64517  -0.61523  -0.56386
 Alpha  occ. eigenvalues --   -0.55970  -0.53598  -0.41969
 Alpha virt. eigenvalues --    0.03756   0.11048   0.14441   0.19463   0.20183
 Alpha virt. eigenvalues --    0.21730   0.23473   0.25233   0.28070   0.33240
 Alpha virt. eigenvalues --    0.39032

 Mulliken charges:
               1
     1  C   -0.267884
     2  C   -1.422282
     3  O    2.636971
     4  C   -1.431638
     5  C   -0.230040
     6  H    0.162360
     7  H    0.190653
     8  H    0.204267
     9  H    0.157594
 Sum of Mulliken charges =   0.00000

 Dipole moment (field-independent basis, Debye):
    X=              2.3739    Y=            -10.1612    Z=              0.4000  Tot=             10.4425
 N-N= 1.054794057089D+02 E-N=-1.726684043804D+02  KE=-2.163405724437D+01
 Orbital energies and kinetic energies (alpha):
                                 1                 2
   1         O                -3.057688         -2.367949
   2         O                -1.250912         -1.135301
   3         O                -0.963956         -0.795843
   4         O                -0.896604         -0.861189
   5         O                -0.891429         -0.812485
   6         O                -0.870859         -0.900462
   7         O                -0.797704         -0.707438

 Normal termination of Gaussian 09 at Fri Dec 11 13:41:17 2015.
