 Gaussian 09, Revision D.01,
 Gaussian 09:  ES64L-G09RevD.01 24-Apr-2013

 -------------------------------------------------------
 #P B3LYP/3-21G CIS(Singlets,NStates=15) pop(full) force
 -------------------------------------------------------

 --------
 FuranDFT
 --------
 Symbolic Z-matrix:
 Charge =  0 Multiplicity = 1

                         Standard orientation:
 ---------------------------------------------------------------------
 Center     Atomic      Atomic             Coordinates (Angstroms)
 Number     Number       Type             X           Y           Z
 ---------------------------------------------------------------------
      1          6           0        0.189453    1.179624   -0.007322
      2          6           0        1.110218    0.098785   -0.010080
      3          8           0        0.524540   -1.018994    0.021351
      4          6           0       -0.864042   -0.752405   -0.027256
      5          6           0       -1.003499    0.533802    0.034799
      6          1           0       -2.008220    1.067352   -0.039839
      7          1           0       -1.475100   -1.599951   -0.033952
      8          1           0        2.209512    0.142955   -0.033423
      9          1           0        0.484703    2.182759   -0.004430
 ---------------------------------------------------------------------

 SCF Done:  E(RB3LYP) =  -228.720118351     A.U. after   14 cycles

 Excitation energies and oscillator strengths:

 Excited State   1:      Singlet-A      7.1084 eV  174.42 nm  f=0.2116  <S**2>=0.000
      17 -> 19        -0.10481
      18 -> 19         0.65795
      18 -> 20        -0.15107
 This state for optimization and/or second-order correction.
 Total Energy, E(CIS) =  -228.458888524
 Copying the excited state density for this state as the 1-particle RhoCI density.

 Excited State   2:      Singlet-A      7.6000 eV  163.14 nm  f=0.0190  <S**2>=0.000
      17 -> 19         0.47271
      18 -> 19         0.17758
      18 -> 20         0.48355

 Excited State   3:      Singlet-A      8.0250 eV  154.50 nm  f=0.0018  <S**2>=0.000
      18 -> 21         0.69699

 Excited State   4:      Singlet-A      8.6721 eV  142.97 nm  f=0.0070  <S**2>=0.000
      16 -> 19         0.64793
      18 -> 22        -0.25308

 Excited State   5:      Singlet-A      8.7628 eV  141.49 nm  f=0.0009  <S**2>=0.000
      16 -> 19         0.26409
      18 -> 22         0.64337

 Excited State   6:      Singlet-A      9.7500 eV  127.16 nm  f=0.4376  <S**2>=0.000
      15 -> 19        -0.13364
      17 -> 19         0.41750
      17 -> 20         0.19817
      18 -> 20        -0.41572
      18 -> 24        -0.11660

 Excited State   7:      Singlet-A      9.8232 eV  126.22 nm  f=0.0046  <S**2>=0.000
      15 -> 19         0.36424
      17 -> 21         0.50229
      18 -> 23         0.29915

 Excited State   8:      Singlet-A      9.9134 eV  125.07 nm  f=0.0242  <S**2>=0.000
      15 -> 19         0.54086
      17 -> 20         0.10146
      17 -> 21        -0.40322

 Excited State   9:      Singlet-A      9.9938 eV  124.06 nm  f=0.0015  <S**2>=0.000
      15 -> 19        -0.18568
      17 -> 21        -0.23029
      18 -> 23         0.61358
      18 -> 24        -0.11418

 Excited State  10:      Singlet-A     10.2704 eV  120.72 nm  f=0.0214  <S**2>=0.000
      17 -> 22        -0.10159
      18 -> 23         0.12639
      18 -> 24         0.66271

 Excited State  11:      Singlet-A     10.5182 eV  117.88 nm  f=0.1875  <S**2>=0.000
      17 -> 19        -0.16001
      17 -> 20         0.57502
      17 -> 22        -0.22649
      18 -> 20         0.11237
      18 -> 25         0.10974

 Excited State  12:      Singlet-A     10.6288 eV  116.65 nm  f=0.0215  <S**2>=0.000
      18 -> 25         0.67863

 Excited State  13:      Singlet-A     10.6911 eV  115.97 nm  f=0.0071  <S**2>=0.000
      14 -> 19        -0.16626
      16 -> 20        -0.40650
      17 -> 22         0.52074

 Excited State  14:      Singlet-A     10.8176 eV  114.61 nm  f=0.0452  <S**2>=0.000
      14 -> 19         0.23537
      16 -> 20         0.46274
      17 -> 20         0.21916
      17 -> 22         0.38628

 Excited State  15:      Singlet-A     10.9664 eV  113.06 nm  f=0.0021  <S**2>=0.000
      14 -> 19         0.63187
      16 -> 20        -0.28652

 The electronic state is 1-A.
 Alpha  occ. eigenvalues --  -19.11916 -10.17961 -10.16244 -10.12211 -10.11233
 Alpha  occ. eigenvalues --   -1.15701  -0.82501  -0.74841  -0.60568  -0.57298
 Alpha  occ. eigenvalues --   -0.54734  -0.46486  -0.45332  -0.43048  -0.39348
 Alpha  occ. eigenvalues --   -0.35531  -0.29360  -0.22209
 Alpha virt. eigenvalues --    0.02432   0.09418   0.12157   0.14234   0.18472
 Alpha virt. eigenvalues --    0.19693   0.21521   0.27368   0.34163   0.44078
 Alpha virt. eigenvalues --    0.50027   0.67336   0.69604   0.73221   0.76081

 Mulliken charges:
               1
     1  C   -0.267215
     2  C    0.152476
     3  O   -0.488799
     4  C    0.039342
     5  C   -0.232333
     6  H    0.184873
     7  H    0.216872
     8  H    0.211879
     9  H    0.182905
 Sum of Mulliken charges =   0.00000

 Dipole moment (field-independent basis, Debye):
    X=             -0.2397    Y=              0.5090    Z=             -0.1003  Tot=              0.5715
 Quadrupole moment (field-independent basis, Debye-Ang):
   XX=            -24.5510   YY=            -27.4238   ZZ=            -31.5893
   XY=              1.7044   XZ=              0.0586   YZ=              0.0071

 Normal termination of Gaussian 09 at Tue Dec 15 16:29:42 2015.
