 Gaussian 09, Revision D.01,
 Gaussian 09:  ES64L-G09RevD.01 24-Apr-2013

 ------------------------------------------------------------
 #P AM1(Input,print) CIS(Singlets,NStates=15) pop(full) force
 ------------------------------------------------------------

 -----------------
 AM1-Reparam Input
 -----------------
 Symbolic Z-matrix:
 Charge =  0 Multiplicity = 1

                         Standard orientation:
 ---------------------------------------------------------------------
 Center     Atomic      Atomic             Coordinates (Angstroms)
 Number     Number       Type             X           Y           Z
 ---------------------------------------------------------------------
      1          6           0        0.742803    0.936896   -0.010631
      2          6           0        1.121547   -0.390514   -0.001570
      3          8           0       -0.036720   -1.126727   -0.003046
      4          6           0       -1.137069   -0.293390   -0.004775
      5          6           0       -0.695913    0.939560    0.009100
      6          1           0       -1.292563    1.819857   -0.003905
      7          1           0       -2.080019   -0.819037    0.021126
      8          1           0        2.038956   -0.905150    0.038451
      9          1           0        1.439177    1.762834    0.015956
 ---------------------------------------------------------------------

 SCF Done:  E(RAM1) =   1.80337493258     A.U. after   14 cycles

 Excitation energies and oscillator strengths:

 Excited State   1:      Singlet-A      5.3599 eV  231.32 nm  f=0.3537  <S**2>=0.000
      13 -> 14         0.69213
 This state for optimization and/or second-order correction.
 Total Energy, E(CIS) =   2.00034651791
 Copying the excited state density for this state as the 1-particle RhoCI density.

 Excited State   2:      Singlet-A      6.7285 eV  184.27 nm  f=0.0080  <S**2>=0.000
      13 -> 15         0.60410
      13 -> 16         0.31028
      13 -> 17        -0.14173

 Excited State   3:      Singlet-A      6.8575 eV  180.80 nm  f=0.0005  <S**2>=0.000
      13 -> 15        -0.30114
      13 -> 16         0.59083
      13 -> 18        -0.12831
      13 -> 19        -0.15477

 Excited State   4:      Singlet-A      7.4221 eV  167.05 nm  f=0.0003  <S**2>=0.000
      12 -> 14         0.70002

 Excited State   5:      Singlet-A      8.0121 eV  154.75 nm  f=0.0001  <S**2>=0.000
      13 -> 16         0.12390
      13 -> 17         0.27432
      13 -> 18         0.59089
      13 -> 21         0.19891

 Excited State   6:      Singlet-A      8.1918 eV  151.35 nm  f=0.0058  <S**2>=0.000
      11 -> 14         0.69803

 Excited State   7:      Singlet-A      8.9879 eV  137.95 nm  f=0.0093  <S**2>=0.000
      10 -> 16        -0.12527
      13 -> 15         0.11831
      13 -> 17         0.60444
      13 -> 18        -0.27639

 Excited State   8:      Singlet-A      9.1408 eV  135.64 nm  f=0.0902  <S**2>=0.000
      10 -> 14         0.67373

 Excited State   9:      Singlet-A      9.5637 eV  129.64 nm  f=0.0000  <S**2>=0.000
      10 -> 16        -0.10292
      13 -> 16         0.11475
      13 -> 19         0.66103

 Excited State  10:      Singlet-A      9.8011 eV  126.50 nm  f=0.0398  <S**2>=0.000
       9 -> 16         0.11981
      11 -> 15        -0.24581
      11 -> 16        -0.15138
      11 -> 17         0.19867
      11 -> 18        -0.16531
      12 -> 16        -0.29007
      12 -> 17         0.21692
      12 -> 18         0.35040

 Excited State  11:      Singlet-A     10.1579 eV  122.06 nm  f=0.1586  <S**2>=0.000
      11 -> 15         0.21286
      12 -> 15         0.62632
      12 -> 16        -0.10302
      12 -> 17        -0.10132
      12 -> 19         0.10026

 Excited State  12:      Singlet-A     10.3554 eV  119.73 nm  f=0.0112  <S**2>=0.000
      13 -> 18        -0.17761
      13 -> 19        -0.10464
      13 -> 20        -0.35462
      13 -> 21         0.55792

 Excited State  13:      Singlet-A     10.4422 eV  118.73 nm  f=0.1404  <S**2>=0.000
      11 -> 15        -0.10262
      11 -> 16        -0.44670
      11 -> 19         0.11388
      12 -> 16         0.47474

 Excited State  14:      Singlet-A     10.5162 eV  117.90 nm  f=0.0879  <S**2>=0.000
      10 -> 16        -0.16581
      13 -> 20         0.57842
      13 -> 21         0.34769

 Excited State  15:      Singlet-A     10.7583 eV  115.25 nm  f=0.0036  <S**2>=0.000
      10 -> 15         0.50751
      10 -> 16         0.39603
      13 -> 16         0.11856
      13 -> 21         0.10976

 The electronic state is 1-A.
 Alpha  occ. eigenvalues --   -1.99751  -1.27044  -1.01849  -0.90135  -0.85409
 Alpha  occ. eigenvalues --   -0.76776  -0.74680  -0.65435  -0.62433  -0.53094
 Alpha  occ. eigenvalues --   -0.52367  -0.50003  -0.36903
 Alpha virt. eigenvalues --    0.03665   0.11196   0.12002   0.19338   0.19800
 Alpha virt. eigenvalues --    0.22480   0.25194   0.26439   0.27967   0.35718
 Alpha virt. eigenvalues --    0.41634

 Mulliken charges:
               1
     1  C   -0.156440
     2  C   -1.901719
     3  O    3.187859
     4  C   -1.866950
     5  C   -0.136759
     6  H    0.158997
     7  H    0.276299
     8  H    0.278299
     9  H    0.160414
 Sum of Mulliken charges =   0.00000

 Dipole moment (field-independent basis, Debye):
    X=             -0.5610    Y=            -10.4502    Z=              0.1301  Tot=             10.4661
 N-N= 1.055949830983D+02 E-N=-1.704041594171D+02  KE=-1.566146992256D+01
 Orbital energies and kinetic energies (alpha):
                                 1                 2
   1         O                -1.997514         -1.371335
   2         O                -1.270442         -1.037195
   3         O                -1.018492         -0.884045
   4         O                -0.901349         -0.596641
   5         O                -0.854090         -0.704078
   6         O                -0.767757         -0.608330
   7         O                -0.746799         -0.544310

 Normal termination of Gaussian 09 at Tue Dec 15 17:08:59 2015.
