 Gaussian 09, Revision D.01,
 Gaussian 09:  ES64L-G09RevD.01 24-Apr-2013

 ------------------------------------------------------------
 #P AM1(Input,print) CIS(Singlets,NStates=15) pop(full) force
 ------------------------------------------------------------

 -----------------
 AM1-Reparam Input
 -----------------
 Symbolic Z-matrix:
 Charge =  0 Multiplicity = 1

                         Standard orientation:
 ---------------------------------------------------------------------
 Center     Atomic      Atomic             Coordinates (Angstroms)
 Number     Number       Type             X           Y           Z
 ---------------------------------------------------------------------
      1          6           0        0.788970    0.885096   -0.003663
      2          6           0        1.102359   -0.368707    0.027840
      3          8           0       -0.079589   -1.151040   -0.021614
      4          6           0       -1.150744   -0.252078    0.029135
      5          6           0       -0.671583    0.959252   -0.022512
      6          1           0       -1.227418    1.853659    0.035861
      7          1           0       -2.037413   -0.689635   -0.014642
      8          1           0        2.007510   -1.003691   -0.013128
      9          1           0        1.480020    1.706611   -0.019980
 ---------------------------------------------------------------------

 SCF Done:  E(RAM1) =   1.16183863596     A.U. after   13 cycles

 Excitation energies and oscillator strengths:

 Excited State   1:      Singlet-A      5.2157 eV  237.71 nm  f=0.1948  <S**2>=0.000
      12 -> 15        -0.14096
      13 -> 14         0.68100
 This state for optimization and/or second-order correction.
 Total Energy, E(CIS) =   1.35351081875
 Copying the excited state density for this state as the 1-particle RhoCI density.

 Excited State   2:      Singlet-A      6.0889 eV  203.62 nm  f=0.0155  <S**2>=0.000
      13 -> 15        -0.30065
      13 -> 16         0.48428
      13 -> 17         0.34301
      13 -> 19         0.17505

 Excited State   3:      Singlet-A      6.2454 eV  198.52 nm  f=0.0552  <S**2>=0.000
      12 -> 14         0.20920
      13 -> 15         0.57812
      13 -> 16         0.25814
      13 -> 17         0.15644

 Excited State   4:      Singlet-A      6.4596 eV  191.94 nm  f=0.0001  <S**2>=0.000
      13 -> 16        -0.37046
      13 -> 17         0.55594
      13 -> 18         0.15506
      13 -> 21         0.11695

 Excited State   5:      Singlet-A      7.0837 eV  175.03 nm  f=0.0000  <S**2>=0.000
       9 -> 14         0.11943
      11 -> 14         0.68269
      12 -> 14        -0.11414

 Excited State   6:      Singlet-A      7.6720 eV  161.61 nm  f=0.0006  <S**2>=0.000
       9 -> 15        -0.13170
      10 -> 14         0.36474
      11 -> 15         0.44034
      13 -> 19         0.31229
      13 -> 20         0.16346

 Excited State   7:      Singlet-A      7.7832 eV  159.30 nm  f=0.0040  <S**2>=0.000
      10 -> 14        -0.18552
      11 -> 15        -0.30008
      13 -> 16        -0.12122
      13 -> 17        -0.10782
      13 -> 19         0.52118
      13 -> 20         0.19582

 Excited State   8:      Singlet-A      7.8105 eV  158.74 nm  f=0.0000  <S**2>=0.000
      13 -> 16         0.12852
      13 -> 18         0.63645
      13 -> 19         0.14198
      13 -> 23        -0.10032
      13 -> 24         0.13656

 Excited State   9:      Singlet-A      8.0306 eV  154.39 nm  f=0.1995  <S**2>=0.000
      11 -> 14         0.10524
      12 -> 14         0.63027
      13 -> 15        -0.19648

 Excited State  10:      Singlet-A      8.1550 eV  152.03 nm  f=0.0167  <S**2>=0.000
      10 -> 14         0.56691
      11 -> 15        -0.37691

 Excited State  11:      Singlet-A      8.5697 eV  144.68 nm  f=0.1889  <S**2>=0.000
       9 -> 17        -0.10962
      11 -> 15         0.12402
      11 -> 17        -0.11448
      11 -> 18        -0.11730
      12 -> 15         0.61338
      13 -> 14         0.13308

 Excited State  12:      Singlet-A      8.8923 eV  139.43 nm  f=0.0035  <S**2>=0.000
      12 -> 16         0.29555
      12 -> 17        -0.17138
      13 -> 19        -0.17349
      13 -> 20         0.55124
      13 -> 21         0.13182

 Excited State  13:      Singlet-A      8.9370 eV  138.73 nm  f=0.0035  <S**2>=0.000
      12 -> 16         0.45863
      12 -> 17         0.36767
      12 -> 19         0.12019
      13 -> 21        -0.15257
      13 -> 22         0.27831

 Excited State  14:      Singlet-A      9.1023 eV  136.21 nm  f=0.0017  <S**2>=0.000
      12 -> 17         0.27043
      13 -> 21         0.55489
      13 -> 22        -0.26383

 Excited State  15:      Singlet-A      9.3217 eV  133.01 nm  f=0.0507  <S**2>=0.000
       9 -> 17        -0.13517
      10 -> 17        -0.19876
      10 -> 20         0.12174
      11 -> 16         0.52329
      11 -> 18        -0.25925
      12 -> 15        -0.15941

 The electronic state is 1-A.
 Alpha  occ. eigenvalues --   -1.80037  -1.19810  -1.00832  -0.87331  -0.81536
 Alpha  occ. eigenvalues --   -0.74257  -0.71044  -0.61042  -0.56579  -0.51726
 Alpha  occ. eigenvalues --   -0.48437  -0.47977  -0.36536
 Alpha virt. eigenvalues --    0.03772   0.07703   0.10743   0.11624   0.18275
 Alpha virt. eigenvalues --    0.18547   0.19840   0.22387   0.25369   0.27902
 Alpha virt. eigenvalues --    0.28033

 Mulliken charges:
               1
     1  C   -0.141687
     2  C   -1.177203
     3  O    2.079721
     4  C   -1.164415
     5  C   -0.179364
     6  H    0.112801
     7  H    0.170710
     8  H    0.187808
     9  H    0.111630
 Sum of Mulliken charges =   0.00000

 Dipole moment (field-independent basis, Debye):
    X=             -0.2502    Y=             -7.6232    Z=             -0.4807  Tot=              7.6425
 N-N= 1.044442493427D+02 E-N=-1.712562691470D+02  KE=-1.496568244345D+01
 Orbital energies and kinetic energies (alpha):
                                 1                 2
   1         O                -1.800369         -1.218338
   2         O                -1.198102         -0.968821
   3         O                -1.008321         -0.855080
   4         O                -0.873309         -0.618754
   5         O                -0.815358         -0.685918
   6         O                -0.742565         -0.585099
   7         O                -0.710435         -0.516323

 Normal termination of Gaussian 09 at Tue Dec 15 17:05:36 2015.
