 Gaussian 09, Revision D.01,
 Gaussian 09:  ES64L-G09RevD.01 24-Apr-2013

 ------------------------------------------------------------
 #P AM1(Input,print) CIS(Singlets,NStates=15) pop(full) force
 ------------------------------------------------------------

 -----------------
 AM1-Reparam Input
 -----------------
 Symbolic Z-matrix:
 Charge =  0 Multiplicity = 1

                         Standard orientation:
 ---------------------------------------------------------------------
 Center     Atomic      Atomic             Coordinates (Angstroms)
 Number     Number       Type             X           Y           Z
 ---------------------------------------------------------------------
      1          6           0       -0.244090    1.138976    0.015891
      2          6           0       -1.154905    0.138667   -0.008544
      3          8           0       -0.490985   -1.047759    0.008506
      4          6           0        0.834666   -0.734532   -0.013608
      5          6           0        1.090518    0.567164   -0.001785
      6          1           0        1.981054    1.088215   -0.020108
      7          1           0        1.450457   -1.651998    0.033422
      8          1           0       -2.169599    0.093377   -0.031228
      9          1           0       -0.491172    2.190821   -0.001858
 ---------------------------------------------------------------------

 SCF Done:  E(RAM1) =   1.73773075347     A.U. after   14 cycles

 Excitation energies and oscillator strengths:

 Excited State   1:      Singlet-A      5.2536 eV  236.00 nm  f=0.3426  <S**2>=0.000
      13 -> 14         0.69525
 This state for optimization and/or second-order correction.
 Total Energy, E(CIS) =   1.93079693837
 Copying the excited state density for this state as the 1-particle RhoCI density.

 Excited State   2:      Singlet-A      5.9340 eV  208.94 nm  f=0.0007  <S**2>=0.000
      11 -> 15         0.12180
      13 -> 15         0.66946
      13 -> 17         0.13473

 Excited State   3:      Singlet-A      6.5187 eV  190.20 nm  f=0.0038  <S**2>=0.000
      11 -> 16        -0.10352
      13 -> 16         0.63719
      13 -> 17         0.17587
      13 -> 18         0.11716
      13 -> 19         0.14497

 Excited State   4:      Singlet-A      6.8735 eV  180.38 nm  f=0.0002  <S**2>=0.000
      12 -> 14         0.67925
      13 -> 19         0.10081

 Excited State   5:      Singlet-A      7.2488 eV  171.04 nm  f=0.0073  <S**2>=0.000
      12 -> 14         0.15007
      13 -> 15        -0.12716
      13 -> 17         0.38589
      13 -> 19        -0.38428
      13 -> 20         0.37676
      13 -> 21         0.10338

 Excited State   6:      Singlet-A      7.7718 eV  159.53 nm  f=0.0170  <S**2>=0.000
      11 -> 16         0.10124
      13 -> 16        -0.18958
      13 -> 17         0.52689
      13 -> 19         0.25631
      13 -> 20        -0.24092
      13 -> 21        -0.15648

 Excited State   7:      Singlet-A      8.2510 eV  150.27 nm  f=0.0000  <S**2>=0.000
      10 -> 14        -0.37330
      13 -> 16        -0.12169
      13 -> 18         0.48298
      13 -> 19         0.20189
      13 -> 20         0.19494
      13 -> 21         0.13345

 Excited State   8:      Singlet-A      8.3056 eV  149.28 nm  f=0.0012  <S**2>=0.000
      10 -> 14         0.57228
      13 -> 17         0.11290
      13 -> 18         0.30338
      13 -> 21         0.18440

 Excited State   9:      Singlet-A      8.5773 eV  144.55 nm  f=0.0056  <S**2>=0.000
      13 -> 18        -0.37064
      13 -> 19         0.37999
      13 -> 20         0.28583
      13 -> 21         0.35860

 Excited State  10:      Singlet-A      8.6775 eV  142.88 nm  f=0.0831  <S**2>=0.000
      11 -> 14         0.63739
      12 -> 15         0.21480

 Excited State  11:      Singlet-A      8.9738 eV  138.16 nm  f=0.0835  <S**2>=0.000
      10 -> 14        -0.12350
      13 -> 19        -0.20493
      13 -> 20        -0.39220
      13 -> 21         0.52556

 Excited State  12:      Singlet-A      9.1634 eV  135.30 nm  f=0.1427  <S**2>=0.000
       8 -> 15        -0.16420
      10 -> 17        -0.13388
      11 -> 14        -0.20161
      12 -> 15         0.50238
      12 -> 16        -0.17796
      12 -> 17         0.11477
      12 -> 18        -0.10501
      12 -> 19        -0.15749
      12 -> 20         0.14801

 Excited State  13:      Singlet-A      9.6150 eV  128.95 nm  f=0.0101  <S**2>=0.000
       7 -> 15        -0.12550
      11 -> 15         0.60846
      11 -> 16         0.11706
      11 -> 17         0.11092
      12 -> 20         0.12257
      13 -> 15        -0.13421

 Excited State  14:      Singlet-A      9.7212 eV  127.54 nm  f=0.1289  <S**2>=0.000
       8 -> 15         0.13382
      10 -> 16        -0.12137
      10 -> 17        -0.17795
      10 -> 19        -0.10353
      11 -> 14         0.15498
      11 -> 15        -0.22121
      12 -> 15        -0.27339
      12 -> 16        -0.15795
      12 -> 17         0.20645
      12 -> 18        -0.13679
      12 -> 19        -0.11163
      12 -> 20         0.33896

 Excited State  15:      Singlet-A      9.9207 eV  124.97 nm  f=0.0829  <S**2>=0.000
      10 -> 16        -0.18567
      12 -> 16         0.55640
      12 -> 17         0.28649
      12 -> 21         0.13100

 The electronic state is 1-A.
 Alpha  occ. eigenvalues --   -1.91878  -1.22468  -1.00354  -0.82845  -0.80839
 Alpha  occ. eigenvalues --   -0.69129  -0.63603  -0.53926  -0.52069  -0.44436
 Alpha  occ. eigenvalues --   -0.42516  -0.39851  -0.27120
 Alpha virt. eigenvalues --    0.12664   0.16929   0.19900   0.25582   0.27814
 Alpha virt. eigenvalues --    0.28696   0.29590   0.29757   0.36312   0.45458
 Alpha virt. eigenvalues --    0.49789

 Mulliken charges:
               1
     1  C   -0.156328
     2  C   -1.925734
     3  O    3.173521
     4  C   -1.904025
     5  C   -0.117373
     6  H    0.178114
     7  H    0.281265
     8  H    0.295521
     9  H    0.175040
 Sum of Mulliken charges =   0.00000

 Dipole moment (field-independent basis, Debye):
    X=             -4.1598    Y=             -9.8081    Z=              0.2696  Tot=             10.6572
 N-N= 1.042567023920D+02 E-N=-1.698408361246D+02  KE=-1.577644484367D+01
 Orbital energies and kinetic energies (alpha):
                                 1                 2
   1         O                -1.918775         -1.384808
   2         O                -1.224676         -1.104458
   3         O                -1.003538         -0.920882
   4         O                -0.828453         -0.641613
   5         O                -0.808389         -0.703646
   6         O                -0.691286         -0.583935
   7         O                -0.636030         -0.514015

 Normal termination of Gaussian 09 at Tue Dec 15 17:07:01 2015.
