 Gaussian 09, Revision D.01,
 Gaussian 09:  ES64L-G09RevD.01 24-Apr-2013

 ------------------------------------------------------------
 #P AM1(Input,print) CIS(Singlets,NStates=15) pop(full) force
 ------------------------------------------------------------

 -----------------
 AM1-Reparam Input
 -----------------
 Symbolic Z-matrix:
 Charge =  0 Multiplicity = 1

                         Standard orientation:
 ---------------------------------------------------------------------
 Center     Atomic      Atomic             Coordinates (Angstroms)
 Number     Number       Type             X           Y           Z
 ---------------------------------------------------------------------
      1          6           0       -1.019134    0.700298   -0.028078
      2          6           0       -0.896149   -0.702093    0.005899
      3          8           0        0.366618   -1.083516   -0.012352
      4          6           0        1.164285   -0.002440    0.015332
      5          6           0        0.363164    1.140054    0.027278
      6          1           0        0.743042    2.129363   -0.022659
      7          1           0        2.214252   -0.156025   -0.065589
      8          1           0       -1.697125   -1.438065    0.071687
      9          1           0       -1.866105    1.317940   -0.007204
 ---------------------------------------------------------------------

 SCF Done:  E(RAM1) =   2.57707852673     A.U. after   13 cycles

 Excitation energies and oscillator strengths:

 Excited State   1:      Singlet-A      5.1458 eV  240.94 nm  f=0.3715  <S**2>=0.000
      13 -> 14         0.69909
 This state for optimization and/or second-order correction.
 Total Energy, E(CIS) =   2.76618463780
 Copying the excited state density for this state as the 1-particle RhoCI density.

 Excited State   2:      Singlet-A      6.4128 eV  193.34 nm  f=0.0008  <S**2>=0.000
      13 -> 15         0.63859
      13 -> 16        -0.17734
      13 -> 17         0.16608
      13 -> 19         0.12815

 Excited State   3:      Singlet-A      6.5344 eV  189.74 nm  f=0.0009  <S**2>=0.000
      12 -> 14         0.67937

 Excited State   4:      Singlet-A      6.7093 eV  184.79 nm  f=0.0059  <S**2>=0.000
      12 -> 14        -0.11650
      13 -> 15         0.18013
      13 -> 16         0.64310
      13 -> 18        -0.11766

 Excited State   5:      Singlet-A      7.4645 eV  166.10 nm  f=0.0042  <S**2>=0.000
      10 -> 14         0.68843
      11 -> 14         0.11554

 Excited State   6:      Singlet-A      8.0119 eV  154.75 nm  f=0.0002  <S**2>=0.000
      13 -> 15        -0.12485
      13 -> 17         0.66124
      13 -> 21        -0.12550

 Excited State   7:      Singlet-A      8.2510 eV  150.27 nm  f=0.1297  <S**2>=0.000
      10 -> 14        -0.10881
      11 -> 14         0.68497
      12 -> 14         0.10483

 Excited State   8:      Singlet-A      9.3647 eV  132.39 nm  f=0.0236  <S**2>=0.000
      10 -> 16        -0.16170
      10 -> 18         0.10929
      11 -> 15         0.23813
      11 -> 16        -0.11464
      12 -> 15         0.40213
      12 -> 16        -0.11579
      12 -> 17         0.20610
      13 -> 18         0.34407

 Excited State   9:      Singlet-A      9.4867 eV  130.69 nm  f=0.0186  <S**2>=0.000
      10 -> 16         0.19389
      10 -> 18        -0.12184
      11 -> 15         0.30828
      11 -> 16        -0.12827
      12 -> 15        -0.25471
      12 -> 17        -0.25362
      13 -> 18         0.39744

 Excited State  10:      Singlet-A      9.5767 eV  129.46 nm  f=0.0000  <S**2>=0.000
       7 -> 15         0.10743
      11 -> 15        -0.17244
      11 -> 16        -0.37350
      12 -> 16        -0.13536
      13 -> 19         0.52063

 Excited State  11:      Singlet-A      9.8622 eV  125.72 nm  f=0.2081  <S**2>=0.000
      10 -> 16        -0.30713
      11 -> 16        -0.15331
      12 -> 15        -0.14827
      12 -> 16         0.52841
      12 -> 17         0.10614
      12 -> 18        -0.10477
      12 -> 19        -0.13069

 Excited State  12:      Singlet-A     10.0548 eV  123.31 nm  f=0.0944  <S**2>=0.000
      10 -> 15         0.38282
      10 -> 16         0.12493
      10 -> 18        -0.11689
      11 -> 15         0.10419
      12 -> 15         0.36536
      12 -> 16         0.24211
      12 -> 17        -0.17731
      13 -> 19         0.16923

 Excited State  13:      Singlet-A     10.1810 eV  121.78 nm  f=0.0149  <S**2>=0.000
       9 -> 14        -0.30964
      10 -> 15        -0.25494
      11 -> 15         0.33243
      11 -> 16         0.23334
      13 -> 15        -0.14460
      13 -> 18        -0.13400
      13 -> 19         0.30203

 Excited State  14:      Singlet-A     10.3200 eV  120.14 nm  f=0.0036  <S**2>=0.000
       9 -> 14         0.50851
      10 -> 15        -0.11081
      11 -> 15         0.29420
      11 -> 16        -0.14870
      13 -> 18        -0.27974

 Excited State  15:      Singlet-A     10.3879 eV  119.35 nm  f=0.0010  <S**2>=0.000
       9 -> 14         0.33958
      11 -> 15        -0.16550
      11 -> 16         0.37906
      12 -> 16         0.11201
      13 -> 16         0.13467
      13 -> 18         0.28475
      13 -> 19         0.24352

 The electronic state is 1-A.
 Alpha  occ. eigenvalues --   -1.85218  -1.11097  -0.87404  -0.80069  -0.74403
 Alpha  occ. eigenvalues --   -0.67144  -0.63503  -0.56843  -0.54827  -0.46562
 Alpha  occ. eigenvalues --   -0.45244  -0.43766  -0.31478
 Alpha virt. eigenvalues --    0.07306   0.15987   0.16883   0.24450   0.27440
 Alpha virt. eigenvalues --    0.28506   0.34291   0.38344   0.50475   0.57546
 Alpha virt. eigenvalues --    0.62523

 Mulliken charges:
               1
     1  C   -0.162731
     2  C   -2.046007
     3  O    3.428616
     4  C   -2.009739
     5  C   -0.155093
     6  H    0.189561
     7  H    0.274702
     8  H    0.297945
     9  H    0.182745
 Sum of Mulliken charges =   0.00000

 Dipole moment (field-independent basis, Debye):
    X=              3.1344    Y=             -9.9543    Z=             -0.3716  Tot=             10.4428
 N-N= 1.038665557483D+02 E-N=-1.692976364167D+02  KE=-1.433019906458D+01
 Orbital energies and kinetic energies (alpha):
                                 1                 2
   1         O                -1.852175         -1.266269
   2         O                -1.110967         -0.953507
   3         O                -0.874036         -0.766027
   4         O                -0.800687         -0.548813
   5         O                -0.744027         -0.627252
   6         O                -0.671444         -0.556268
   7         O                -0.635031         -0.487618

 Normal termination of Gaussian 09 at Tue Dec 15 17:07:31 2015.
