 Gaussian 09, Revision D.01,
 Gaussian 09:  ES64L-G09RevD.01 24-Apr-2013

 ------------------------------------------------------------
 #P AM1(Input,print) CIS(Singlets,NStates=15) pop(full) force
 ------------------------------------------------------------

 -----------------
 AM1-Reparam Input
 -----------------
 Symbolic Z-matrix:
 Charge =  0 Multiplicity = 1

                         Standard orientation:
 ---------------------------------------------------------------------
 Center     Atomic      Atomic             Coordinates (Angstroms)
 Number     Number       Type             X           Y           Z
 ---------------------------------------------------------------------
      1          6           0       -0.997617    0.663434    0.002578
      2          6           0       -0.876975   -0.703491   -0.019168
      3          8           0        0.403608   -1.045229    0.013682
      4          6           0        1.141382    0.032805   -0.004873
      5          6           0        0.313001    1.104345   -0.014920
      6          1           0        0.565638    2.173084    0.016866
      7          1           0        2.267236   -0.017053    0.024764
      8          1           0       -1.574377   -1.494734   -0.004473
      9          1           0       -1.966114    1.117970    0.071685
 ---------------------------------------------------------------------

 SCF Done:  E(RAM1) =   1.80464342974     A.U. after   14 cycles

 Excitation energies and oscillator strengths:

 Excited State   1:      Singlet-A      5.7262 eV  216.52 nm  f=0.3210  <S**2>=0.000
      13 -> 14         0.68639
 This state for optimization and/or second-order correction.
 Total Energy, E(CIS) =   2.01507669574
 Copying the excited state density for this state as the 1-particle RhoCI density.

 Excited State   2:      Singlet-A      6.9075 eV  179.49 nm  f=0.0099  <S**2>=0.000
      13 -> 15         0.60865
      13 -> 16         0.29884
      13 -> 17        -0.15190

 Excited State   3:      Singlet-A      7.1936 eV  172.35 nm  f=0.0001  <S**2>=0.000
      13 -> 15        -0.29397
      13 -> 16         0.59649
      13 -> 18         0.10681
      13 -> 19         0.16205

 Excited State   4:      Singlet-A      7.5661 eV  163.87 nm  f=0.0010  <S**2>=0.000
      12 -> 14         0.69939

 Excited State   5:      Singlet-A      8.2934 eV  149.50 nm  f=0.0062  <S**2>=0.000
      10 -> 14         0.38810
      11 -> 14         0.57333

 Excited State   6:      Singlet-A      8.5024 eV  145.82 nm  f=0.0003  <S**2>=0.000
      13 -> 17        -0.31546
      13 -> 18         0.55547
      13 -> 21         0.23852

 Excited State   7:      Singlet-A      9.1592 eV  135.37 nm  f=0.1017  <S**2>=0.000
      10 -> 14         0.56578
      11 -> 14        -0.38485

 Excited State   8:      Singlet-A      9.2920 eV  133.43 nm  f=0.0114  <S**2>=0.000
      10 -> 16         0.13413
      11 -> 16        -0.13009
      13 -> 15         0.11367
      13 -> 17         0.57128
      13 -> 18         0.31492

 Excited State   9:      Singlet-A      9.7131 eV  127.65 nm  f=0.1151  <S**2>=0.000
       9 -> 16         0.13593
      10 -> 15         0.16384
      10 -> 18        -0.12376
      11 -> 15         0.27165
      11 -> 16         0.11418
      11 -> 17        -0.12151
      11 -> 18        -0.14290
      12 -> 15         0.22207
      12 -> 16         0.26876
      12 -> 17        -0.23706
      12 -> 18         0.21037
      13 -> 14         0.13677

 Excited State  10:      Singlet-A      9.7880 eV  126.67 nm  f=0.0010  <S**2>=0.000
      10 -> 15        -0.17121
      11 -> 15         0.11627
      13 -> 19         0.63466

 Excited State  11:      Singlet-A     10.0608 eV  123.24 nm  f=0.0682  <S**2>=0.000
      12 -> 15         0.58957
      12 -> 16        -0.26753
      12 -> 18        -0.14363
      12 -> 19        -0.12907

 Excited State  12:      Singlet-A     10.3384 eV  119.93 nm  f=0.0717  <S**2>=0.000
      10 -> 15        -0.18875
      11 -> 15         0.36394
      11 -> 16         0.38257
      12 -> 16        -0.29313
      13 -> 16         0.12243
      13 -> 19        -0.17505

 Excited State  13:      Singlet-A     10.4499 eV  118.65 nm  f=0.0591  <S**2>=0.000
      10 -> 15         0.44269
      10 -> 16         0.25617
      11 -> 15        -0.20642
      11 -> 16         0.25647
      12 -> 16        -0.21068
      13 -> 19         0.11666

 Excited State  14:      Singlet-A     10.6227 eV  116.72 nm  f=0.0252  <S**2>=0.000
      10 -> 16        -0.12366
      13 -> 18        -0.20655
      13 -> 20        -0.30713
      13 -> 21         0.53753

 Excited State  15:      Singlet-A     10.6656 eV  116.25 nm  f=0.0746  <S**2>=0.000
       8 -> 16        -0.19064
       9 -> 15        -0.14981
      10 -> 15         0.10356
      10 -> 16        -0.13627
      10 -> 19        -0.10583
      11 -> 19        -0.11639
      12 -> 15        -0.14854
      12 -> 16        -0.26481
      12 -> 17        -0.29013
      12 -> 18         0.29067
      12 -> 19        -0.15847
      12 -> 20         0.14497

 The electronic state is 1-A.
 Alpha  occ. eigenvalues --   -2.02284  -1.29066  -1.01445  -0.90792  -0.85171
 Alpha  occ. eigenvalues --   -0.77248  -0.76071  -0.64603  -0.61676  -0.53004
 Alpha  occ. eigenvalues --   -0.52338  -0.50460  -0.38837
 Alpha virt. eigenvalues --    0.04072   0.10230   0.11225   0.18560   0.19685
 Alpha virt. eigenvalues --    0.21786   0.24712   0.26390   0.32080   0.39536
 Alpha virt. eigenvalues --    0.45640

 Mulliken charges:
               1
     1  C   -0.097819
     2  C   -1.920818
     3  O    3.172429
     4  C   -1.932319
     5  C   -0.142742
     6  H    0.164549
     7  H    0.316928
     8  H    0.283964
     9  H    0.155829
 Sum of Mulliken charges =   0.00000

 Dipole moment (field-independent basis, Debye):
    X=              3.6104    Y=             -8.9063    Z=              0.4910  Tot=              9.6228
 N-N= 1.065258196820D+02 E-N=-1.720540099821D+02  KE=-1.572847231633D+01
 Orbital energies and kinetic energies (alpha):
                                 1                 2
   1         O                -2.022839         -1.426755
   2         O                -1.290659         -1.056023
   3         O                -1.014446         -0.878091
   4         O                -0.907919         -0.591928
   5         O                -0.851708         -0.697195
   6         O                -0.772482         -0.592327
   7         O                -0.760705         -0.576789

 Normal termination of Gaussian 09 at Tue Dec 15 17:08:57 2015.
