 Gaussian 09, Revision D.01,
 Gaussian 09:  ES64L-G09RevD.01 24-Apr-2013

 ----------------------------
 #P AM1(Input,print) Opt Freq
 ----------------------------

 -----------------
 AM1-Reparam Input
 -----------------
 Symbolic Z-matrix:
 Charge =  0 Multiplicity = 1

 SCF Done:  E(RAM1) = -0.733046592849E-01 A.U. after   13 cycles
 SCF Done:  E(RAM1) = -0.804545519273E-01 A.U. after   12 cycles
 SCF Done:  E(RAM1) = -0.809355534874E-01 A.U. after   11 cycles
 SCF Done:  E(RAM1) = -0.809838040157E-01 A.U. after   10 cycles
 SCF Done:  E(RAM1) = -0.809898337574E-01 A.U. after   10 cycles
 SCF Done:  E(RAM1) = -0.809919045284E-01 A.U. after   10 cycles
 Optimization completed.
    -- Stationary point found.
 Normal termination of Gaussian 09 at Thu Dec 24 04:54:13 2015.

 -------------------------------------------------------------
 #P Geom=AllCheck Guess=TCheck SCRF=Check GenChk RAM1/ZDO Freq
 -------------------------------------------------------------

 Structure from the checkpoint file:  "/home/Applications/g09/scratch/Gau-24743.chk"
 -----------------
 AM1-Reparam Input
 -----------------
 Charge =  0 Multiplicity = 1

                         Standard orientation:
 ---------------------------------------------------------------------
 Center     Atomic      Atomic             Coordinates (Angstroms)
 Number     Number       Type             X           Y           Z
 ---------------------------------------------------------------------
      1          6           0       -0.716114    0.956787   -0.000392
      2          6           0       -1.120071   -0.334515    0.000174
      3          8           0        0.000976   -1.190109    0.000125
      4          6           0        1.120568   -0.332873   -0.000260
      5          6           0        0.714457    0.957931    0.000250
      6          1           0        1.321134    1.818447    0.000805
      7          1           0        2.058585   -0.797596   -0.000441
      8          1           0       -2.057259   -0.800996   -0.000009
      9          1           0       -1.323307    1.817035    0.000011
 ---------------------------------------------------------------------

 SCF Done:  E(RAM1) = -0.809919045282E-01 A.U. after    2 cycles

 The electronic state is 1-A.
 Alpha  occ. eigenvalues --   -1.55687  -1.15088  -1.02470  -0.75826  -0.74637
 Alpha  occ. eigenvalues --   -0.64094  -0.52874  -0.52752  -0.46754  -0.45697
 Alpha  occ. eigenvalues --   -0.44033  -0.33739  -0.29999
 Alpha virt. eigenvalues --    0.07334   0.11918   0.17273   0.19962   0.21442
 Alpha virt. eigenvalues --    0.21985   0.24416   0.25068   0.27951   0.28905
 Alpha virt. eigenvalues --    0.31100

 Mulliken charges:
               1
     1  C    0.013688
     2  C   -0.045167
     3  O   -0.032600
     4  C   -0.045270
     5  C    0.013526
     6  H    0.005310
     7  H    0.042606
     8  H    0.042589
     9  H    0.005320
 Sum of Mulliken charges =   0.00000

 Dipole moment (field-independent basis, Debye):
    X=             -0.0007    Y=              0.6775    Z=              0.0000  Tot=              0.6775
 N-N= 1.009709715589D+02 E-N=-1.680802118653D+02  KE=-1.615072799873D+01
  Exact polarizability:  42.145  -0.003  43.981  -0.008  -0.001   8.908
 Approx polarizability:  32.064  -0.007  39.123  -0.006  -0.003   6.422
 Leave Link  601 at Thu Dec 24 04:54:13 2015, MaxMem=    33554432 cpu:         0.0
 (Enter /home/Applications/g09/g09/l701.exe)
 Compute integral second derivatives.
 ... and contract with generalized density number  0.
 Leave Link  701 at Thu Dec 24 04:54:13 2015, MaxMem=    33554432 cpu:         0.0
 (Enter /home/Applications/g09/g09/l702.exe)
 L702 exits ... SP integral derivatives will be done elsewhere.

                      1                      2                      3
                      A                      A                      A
 Frequencies --    522.9229               558.3200               891.0368
 Red. masses --      2.9817                 1.9744                 1.1769
 Frc consts  --      0.4804                 0.3626                 0.5505
 IR Inten    --      1.8976                 0.0000                25.0007

                      4                      5                      6
                      A                      A                      A
 Frequencies --    905.1688               914.4604               922.7667
 Red. masses --      6.8749                 6.4597                 1.2942
 Frc consts  --      3.3188                 3.1827                 0.6493
 IR Inten    --      4.1248                 0.8220                 0.0005

                      7                      8                      9
                      A                      A                      A
 Frequencies --    996.4894              1055.4368              1093.2593
 Red. masses --      1.4532                 1.7025                 2.4655
 Frc consts  --      0.8502                 1.1174                 1.7362
 IR Inten    --      7.0843                 0.0001                66.6297

                     10                     11                     12
                      A                      A                      A
 Frequencies --   1103.1262              1210.5339              1284.8177
 Red. masses --      2.6519                 1.3340                 1.6004
 Frc consts  --      1.9013                 1.1517                 1.5565
 IR Inten    --      2.7559                17.4141                 0.9989

                     13                     14                     15
                      A                      A                      A
 Frequencies --   1298.9297              1376.8217              1470.2480
 Red. masses --      1.7003                 1.1998                 3.3978
 Frc consts  --      1.6903                 1.3400                 4.3274
 IR Inten    --     20.4592                 1.2883                 1.6644

                     16                     17                     18
                      A                      A                      A
 Frequencies --   1608.6713              1682.5024              3371.3877
 Red. masses --      5.1465                 6.6810                 1.0788
 Frc consts  --      7.8469                11.1431                 7.2243
 IR Inten    --     10.4951                 0.5986                33.7216

                     19                     20                     21
                      A                      A                      A
 Frequencies --   3378.6770              3444.4114              3450.0393
 Red. masses --      1.0841                 1.0766                 1.0831
 Frc consts  --      7.2914                 7.5252                 7.5956
 IR Inten    --     33.9959                 6.1279                 0.0058

 - Thermochemistry -
 -------------------
 Temperature   298.150 Kelvin.  Pressure   1.00000 Atm.
 Atom     1 has atomic number  6 and mass  12.00000

 Molecular mass:    68.02621 amu.
 Principal axes and moments of inertia in atomic units:
                           1         2         3
     Eigenvalues --   194.48831 197.16579 391.65406
           X           -0.00506   0.99999   0.00000
           Y            0.99999   0.00506   0.00003
           Z           -0.00003   0.00000   1.00000
 This molecule is an asymmetric top.
 Rotational symmetry number  1.
 Rotational temperatures (Kelvin)      0.44534     0.43929     0.22115
 Rotational constants (GHZ):           9.27943     9.15342     4.60800
 Zero-point vibrational energy     194632.6 (Joules/Mol)
                                   46.51830 (Kcal/Mol)
 Warning -- explicit consideration of   2 degrees of freedom as
           vibrations may cause significant error
 Vibrational temperatures:    752.37   803.30  1282.00  1302.33  1315.70
          (Kelvin)           1327.65  1433.72  1518.54  1572.95  1587.15
                             1741.69  1848.56  1868.87  1980.94  2115.36
                             2314.52  2420.74  4850.67  4861.16  4955.73
                             4963.83

 Zero-point correction=                           0.074132 (Hartree/Particle)
 Thermal correction to Energy=                    0.077741
 Thermal correction to Enthalpy=                  0.078686
 Thermal correction to Gibbs Free Energy=         0.047849
 Sum of electronic and zero-point Energies=             -0.006860
 Sum of electronic and thermal Energies=                -0.003251
 Sum of electronic and thermal Enthalpies=              -0.002306
 Sum of electronic and thermal Free Energies=           -0.033143

                     E (Thermal)             CV                S
                      KCal/Mol        Cal/Mol-Kelvin    Cal/Mol-Kelvin
 Total                   48.783             12.293             64.900
 Electronic               0.000              0.000              0.000
 Translational            0.889              2.981             38.570
 Rotational               0.889              2.981             24.222
 Vibrational             47.006              6.331              2.109
 Vibration     1          0.878              1.199              0.603
 Vibration     2          0.914              1.122              0.527

 Optimization completed.
    -- Stationary point found.
 Normal termination of Gaussian 09 at Thu Dec 24 04:54:13 2015.
