 Gaussian 09, Revision D.01,
 Gaussian 09:  ES64L-G09RevD.01 24-Apr-2013

 ------------------------------------------------------------
 #P AM1(Input,print) CIS(Singlets,NStates=15) pop(full) force
 ------------------------------------------------------------

 -----------------
 AM1-Reparam Input
 -----------------
 Symbolic Z-matrix:
 Charge =  0 Multiplicity = 1

                         Standard orientation:
 ---------------------------------------------------------------------
 Center     Atomic      Atomic             Coordinates (Angstroms)
 Number     Number       Type             X           Y           Z
 ---------------------------------------------------------------------
      1          6           0        0.956267    0.768817   -0.033050
      2          6           0       -0.446032    1.036165    0.027912
      3          8           0       -1.161625   -0.059223   -0.012288
      4          6           0       -0.315899   -1.090225   -0.000004
      5          6           0        1.029584   -0.673188   -0.002364
      6          1           0        1.929279   -1.218888    0.064128
      7          1           0       -0.770907   -2.058547    0.023451
      8          1           0       -0.921401    2.023070    0.013819
      9          1           0        1.712513    1.478739    0.041936
 ---------------------------------------------------------------------

 SCF Done:  E(RAM1) =   1.08520473078     A.U. after   13 cycles

 Excitation energies and oscillator strengths:

 Excited State   1:      Singlet-A      5.6903 eV  217.89 nm  f=0.2297  <S**2>=0.000
      12 -> 17        -0.12315
      13 -> 14         0.68161
 This state for optimization and/or second-order correction.
 Total Energy, E(CIS) =   1.29432059268
 Copying the excited state density for this state as the 1-particle RhoCI density.

 Excited State   2:      Singlet-A      6.7035 eV  184.95 nm  f=0.0049  <S**2>=0.000
      13 -> 15         0.68028
      13 -> 19        -0.13162

 Excited State   3:      Singlet-A      7.1650 eV  173.04 nm  f=0.0212  <S**2>=0.000
      12 -> 14         0.52872
      13 -> 16        -0.40915
      13 -> 17         0.12683
      13 -> 18        -0.10759

 Excited State   4:      Singlet-A      7.1964 eV  172.29 nm  f=0.0103  <S**2>=0.000
      12 -> 14         0.32454
      13 -> 16         0.45804
      13 -> 17         0.34732
      13 -> 18         0.16129
      13 -> 20         0.11292

 Excited State   5:      Singlet-A      7.4876 eV  165.59 nm  f=0.0011  <S**2>=0.000
       9 -> 14         0.21822
      10 -> 14        -0.10792
      11 -> 14         0.65014

 Excited State   6:      Singlet-A      7.9572 eV  155.81 nm  f=0.0030  <S**2>=0.000
       9 -> 14         0.12561
      10 -> 14         0.67565

 Excited State   7:      Singlet-A      8.1914 eV  151.36 nm  f=0.0034  <S**2>=0.000
      12 -> 15         0.61890
      13 -> 18        -0.26223

 Excited State   8:      Singlet-A      8.3344 eV  148.76 nm  f=0.2324  <S**2>=0.000
      12 -> 14        -0.31020
      13 -> 16        -0.23062
      13 -> 17         0.54017

 Excited State   9:      Singlet-A      8.5358 eV  145.25 nm  f=0.0083  <S**2>=0.000
      12 -> 15         0.26532
      13 -> 16        -0.14837
      13 -> 17        -0.13284
      13 -> 18         0.52399
      13 -> 19        -0.17477
      13 -> 20        -0.15126
      13 -> 22        -0.17610

 Excited State  10:      Singlet-A      8.8677 eV  139.82 nm  f=0.0054  <S**2>=0.000
      12 -> 16         0.61494
      12 -> 17         0.17270
      13 -> 18         0.14257
      13 -> 19         0.17432

 Excited State  11:      Singlet-A      8.9928 eV  137.87 nm  f=0.1515  <S**2>=0.000
       8 -> 15         0.11946
       9 -> 16         0.13897
      10 -> 15         0.15730
      12 -> 16        -0.17291
      12 -> 17         0.58206
      13 -> 14         0.12395

 Excited State  12:      Singlet-A      9.2062 eV  134.67 nm  f=0.0171  <S**2>=0.000
       9 -> 15         0.16000
       9 -> 16         0.14267
       9 -> 17        -0.26688
      10 -> 15        -0.14184
      11 -> 15        -0.26877
      11 -> 16        -0.21562
      11 -> 17         0.42735

 Excited State  13:      Singlet-A      9.2306 eV  134.32 nm  f=0.0029  <S**2>=0.000
       9 -> 14         0.63088
      11 -> 14        -0.22959

 Excited State  14:      Singlet-A      9.3851 eV  132.11 nm  f=0.0046  <S**2>=0.000
      10 -> 15         0.12362
      11 -> 15         0.17155
      11 -> 17         0.15255
      13 -> 19         0.13841
      13 -> 20         0.19559
      13 -> 21         0.54176
      13 -> 23         0.13641

 Excited State  15:      Singlet-A      9.4170 eV  131.66 nm  f=0.0170  <S**2>=0.000
       9 -> 15        -0.16535
       9 -> 17        -0.13161
      10 -> 15         0.34812
      10 -> 19        -0.10146
      11 -> 15         0.25056
      11 -> 17         0.24352
      12 -> 17        -0.16970
      13 -> 20        -0.10869
      13 -> 21        -0.28476

 The electronic state is 1-A.
 Alpha  occ. eigenvalues --   -1.84714  -1.17838  -0.98217  -0.87484  -0.80436
 Alpha  occ. eigenvalues --   -0.74114  -0.71718  -0.60642  -0.55134  -0.53065
 Alpha  occ. eigenvalues --   -0.51360  -0.46776  -0.39496
 Alpha virt. eigenvalues --    0.02703   0.09384   0.11081   0.11495   0.18234
 Alpha virt. eigenvalues --    0.18987   0.21023   0.21283   0.26433   0.26493
 Alpha virt. eigenvalues --    0.29211

 Mulliken charges:
               1
     1  C   -0.107927
     2  C   -1.312214
     3  O    2.166616
     4  C   -1.291097
     5  C   -0.079528
     6  H    0.102610
     7  H    0.199705
     8  H    0.221352
     9  H    0.100483
 Sum of Mulliken charges =   0.00000

 Dipole moment (field-independent basis, Debye):
    X=             -6.7928    Y=             -0.1572    Z=             -0.1408  Tot=              6.7961
 N-N= 1.042091463323D+02 E-N=-1.708281216119D+02  KE=-1.499988788130D+01
 Orbital energies and kinetic energies (alpha):
                                 1                 2
   1         O                -1.847138         -1.260493
   2         O                -1.178385         -0.968181
   3         O                -0.982167         -0.770840
   4         O                -0.874845         -0.664650
   5         O                -0.804360         -0.661865
   6         O                -0.741139         -0.609549
   7         O                -0.717178         -0.505470

 Normal termination of Gaussian 09 at Tue Dec 15 17:05:30 2015.
