 Gaussian 09, Revision D.01,
 Gaussian 09:  ES64L-G09RevD.01 24-Apr-2013

 ------------------------------------------------------------
 #P AM1(Input,print) CIS(Singlets,NStates=15) pop(full) force
 ------------------------------------------------------------

 -----------------
 AM1-Reparam Input
 -----------------
 Symbolic Z-matrix:
 Charge =  0 Multiplicity = 1

                         Standard orientation:
 ---------------------------------------------------------------------
 Center     Atomic      Atomic             Coordinates (Angstroms)
 Number     Number       Type             X           Y           Z
 ---------------------------------------------------------------------
      1          6           0        0.285540    1.128025   -0.022795
      2          6           0        1.182488    0.050844   -0.009044
      3          8           0        0.402109   -1.082291    0.000520
      4          6           0       -0.907967   -0.694371    0.000924
      5          6           0       -0.980951    0.676219    0.016464
      6          1           0       -1.943050    1.161635   -0.007027
      7          1           0       -1.636924   -1.524341   -0.014432
      8          1           0        2.254782   -0.096142    0.061871
      9          1           0        0.633659    2.152871    0.042130
 ---------------------------------------------------------------------

 SCF Done:  E(RAM1) =   2.51709859428     A.U. after   13 cycles

 Excitation energies and oscillator strengths:

 Excited State   1:      Singlet-A      5.7462 eV  215.77 nm  f=0.2968  <S**2>=0.000
      11 -> 17         0.10159
      13 -> 14         0.68668
 This state for optimization and/or second-order correction.
 Total Energy, E(CIS) =   2.72826780031
 Copying the excited state density for this state as the 1-particle RhoCI density.

 Excited State   2:      Singlet-A      6.7056 eV  184.90 nm  f=0.0049  <S**2>=0.000
      10 -> 15         0.11999
      13 -> 15         0.63403
      13 -> 16         0.15764
      13 -> 17         0.20253

 Excited State   3:      Singlet-A      7.0849 eV  175.00 nm  f=0.0019  <S**2>=0.000
      10 -> 16        -0.11816
      13 -> 15        -0.16782
      13 -> 16         0.62720
      13 -> 17         0.10049
      13 -> 19        -0.16544

 Excited State   4:      Singlet-A      7.2970 eV  169.91 nm  f=0.0012  <S**2>=0.000
       9 -> 14         0.12964
      12 -> 14         0.68848

 Excited State   5:      Singlet-A      7.7579 eV  159.82 nm  f=0.0046  <S**2>=0.000
      10 -> 14        -0.17518
      11 -> 14         0.67324

 Excited State   6:      Singlet-A      8.3906 eV  147.77 nm  f=0.0102  <S**2>=0.000
      10 -> 15        -0.13282
      13 -> 15        -0.12989
      13 -> 17         0.53731
      13 -> 18         0.32485
      13 -> 21         0.20894

 Excited State   7:      Singlet-A      8.5772 eV  144.55 nm  f=0.0062  <S**2>=0.000
      10 -> 16        -0.14739
      13 -> 17        -0.35102
      13 -> 18         0.49430
      13 -> 21         0.28919

 Excited State   8:      Singlet-A      8.8789 eV  139.64 nm  f=0.0857  <S**2>=0.000
      10 -> 14         0.66836
      11 -> 14         0.17269

 Excited State   9:      Singlet-A      9.1900 eV  134.91 nm  f=0.0003  <S**2>=0.000
      10 -> 15        -0.13432
      10 -> 16        -0.12921
      13 -> 16         0.10689
      13 -> 19         0.64704

 Excited State  10:      Singlet-A      9.3880 eV  132.07 nm  f=0.1244  <S**2>=0.000
       9 -> 15        -0.11615
       9 -> 16         0.11975
      11 -> 15         0.28429
      11 -> 16         0.22762
      11 -> 17         0.27206
      11 -> 18        -0.10185
      12 -> 15        -0.27757
      12 -> 17        -0.17497
      12 -> 18        -0.21581
      13 -> 14        -0.13293

 Excited State  11:      Singlet-A      9.7865 eV  126.69 nm  f=0.0513  <S**2>=0.000
       9 -> 15        -0.10346
      10 -> 15        -0.13485
      11 -> 15         0.47757
      11 -> 16        -0.11036
      11 -> 19         0.11346
      12 -> 15         0.39067
      12 -> 16         0.13247
      12 -> 17         0.12774

 Excited State  12:      Singlet-A      9.8184 eV  126.28 nm  f=0.1041  <S**2>=0.000
       8 -> 15        -0.13035
      10 -> 15        -0.11877
      11 -> 15        -0.10428
      12 -> 15        -0.18120
      12 -> 16         0.56153
      12 -> 19        -0.15840

 Excited State  13:      Singlet-A      9.8593 eV  125.75 nm  f=0.0115  <S**2>=0.000
       9 -> 14        -0.10145
      10 -> 15        -0.29040
      10 -> 16        -0.11361
      12 -> 16        -0.19731
      13 -> 18        -0.31917
      13 -> 19        -0.13801
      13 -> 21         0.42000

 Excited State  14:      Singlet-A     10.0074 eV  123.89 nm  f=0.0011  <S**2>=0.000
      10 -> 15         0.47456
      10 -> 16         0.13292
      13 -> 15        -0.12492
      13 -> 18        -0.15822
      13 -> 21         0.38548

 Excited State  15:      Singlet-A     10.2041 eV  121.50 nm  f=0.0685  <S**2>=0.000
      10 -> 15         0.15430
      10 -> 16        -0.38387
      11 -> 16        -0.14673
      13 -> 20         0.50027

 The electronic state is 1-A.
 Alpha  occ. eigenvalues --   -1.73242  -1.17134  -0.94330  -0.80770  -0.76215
 Alpha  occ. eigenvalues --   -0.67340  -0.64340  -0.55442  -0.50546  -0.43386
 Alpha  occ. eigenvalues --   -0.42987  -0.41593  -0.30758
 Alpha virt. eigenvalues --    0.12149   0.17264   0.18644   0.24152   0.27285
 Alpha virt. eigenvalues --    0.28338   0.30936   0.32680   0.39142   0.48182
 Alpha virt. eigenvalues --    0.53110

 Mulliken charges:
               1
     1  C   -0.060441
     2  C   -1.945122
     3  O    3.235978
     4  C   -1.944810
     5  C   -0.046009
     6  H    0.124013
     7  H    0.257337
     8  H    0.255184
     9  H    0.123870
 Sum of Mulliken charges =   0.00000

 Dipole moment (field-independent basis, Debye):
    X=              3.2459    Y=             -9.8797    Z=              0.1882  Tot=             10.4009
 N-N= 1.036821138039D+02 E-N=-1.685366250243D+02  KE=-1.503177355506D+01
 Orbital energies and kinetic energies (alpha):
                                 1                 2
   1         O                -1.732424         -1.229582
   2         O                -1.171338         -1.022394
   3         O                -0.943302         -0.856443
   4         O                -0.807697         -0.619420
   5         O                -0.762148         -0.668979
   6         O                -0.673398         -0.591191
   7         O                -0.643403         -0.526381

 Normal termination of Gaussian 09 at Tue Dec 15 17:06:18 2015.
