 Gaussian 09, Revision D.01,
 Gaussian 09:  ES64L-G09RevD.01 24-Apr-2013

 ------------------------------------------------------------
 #P AM1(Input,print) CIS(Singlets,NStates=15) pop(full) force
 ------------------------------------------------------------

 -----------------
 AM1-Reparam Input
 -----------------
 Symbolic Z-matrix:
 Charge =  0 Multiplicity = 1

                         Standard orientation:
 ---------------------------------------------------------------------
 Center     Atomic      Atomic             Coordinates (Angstroms)
 Number     Number       Type             X           Y           Z
 ---------------------------------------------------------------------
      1          6           0       -0.873396    0.885094    0.037995
      2          6           0       -1.056651   -0.514862   -0.031016
      3          8           0        0.187870   -1.157394    0.029963
      4          6           0        1.139993   -0.180627   -0.018536
      5          6           0        0.583327    1.030721   -0.014062
      6          1           0        1.102784    1.990162    0.006108
      7          1           0        2.125937   -0.480355   -0.009790
      8          1           0       -1.858154   -1.182478   -0.058149
      9          1           0       -1.633164    1.609865   -0.024166
 ---------------------------------------------------------------------

 SCF Done:  E(RAM1) =   2.82188154499     A.U. after   13 cycles

 Excitation energies and oscillator strengths:

 Excited State   1:      Singlet-A      5.1817 eV  239.28 nm  f=0.3494  <S**2>=0.000
      13 -> 14         0.69597
 This state for optimization and/or second-order correction.
 Total Energy, E(CIS) =   3.01230393684
 Copying the excited state density for this state as the 1-particle RhoCI density.

 Excited State   2:      Singlet-A      6.5443 eV  189.45 nm  f=0.0045  <S**2>=0.000
      11 -> 15         0.10388
      13 -> 15         0.64712
      13 -> 17         0.15745
      13 -> 18        -0.17651

 Excited State   3:      Singlet-A      6.6643 eV  186.04 nm  f=0.0008  <S**2>=0.000
       9 -> 14         0.10120
      12 -> 14         0.64734
      13 -> 16         0.20930

 Excited State   4:      Singlet-A      6.6786 eV  185.64 nm  f=0.0038  <S**2>=0.000
      12 -> 14        -0.24109
      13 -> 16         0.58126
      13 -> 17         0.19875
      13 -> 18         0.19754

 Excited State   5:      Singlet-A      7.7233 eV  160.53 nm  f=0.0014  <S**2>=0.000
      10 -> 14        -0.17498
      11 -> 16        -0.11610
      13 -> 16         0.22743
      13 -> 17        -0.24860
      13 -> 18        -0.32794
      13 -> 19         0.21160
      13 -> 20         0.41462

 Excited State   6:      Singlet-A      7.8178 eV  158.59 nm  f=0.0072  <S**2>=0.000
      10 -> 14         0.65020
      13 -> 18        -0.15332
      13 -> 20         0.16500

 Excited State   7:      Singlet-A      8.0506 eV  154.01 nm  f=0.0117  <S**2>=0.000
      10 -> 14        -0.18728
      13 -> 15        -0.17914
      13 -> 17         0.58302
      13 -> 18        -0.20261
      13 -> 20         0.14375

 Excited State   8:      Singlet-A      8.4700 eV  146.38 nm  f=0.1088  <S**2>=0.000
      11 -> 14         0.68825

 Excited State   9:      Singlet-A      8.5684 eV  144.70 nm  f=0.0023  <S**2>=0.000
      13 -> 16        -0.14480
      13 -> 18         0.37331
      13 -> 19         0.51567
      13 -> 20         0.20314

 Excited State  10:      Singlet-A      8.9751 eV  138.14 nm  f=0.0070  <S**2>=0.000
      13 -> 18         0.31912
      13 -> 19        -0.40673
      13 -> 20         0.45060
      13 -> 21         0.14073

 Excited State  11:      Singlet-A      9.3520 eV  132.57 nm  f=0.0685  <S**2>=0.000
      12 -> 16        -0.14114
      12 -> 18        -0.11551
      13 -> 20        -0.11619
      13 -> 21         0.61863

 Excited State  12:      Singlet-A      9.4712 eV  130.91 nm  f=0.0621  <S**2>=0.000
       8 -> 15         0.10627
       9 -> 18         0.11415
      10 -> 15        -0.11581
      10 -> 17        -0.20311
      12 -> 15        -0.26387
      12 -> 16         0.31817
      12 -> 17         0.12727
      12 -> 18         0.25530
      12 -> 19        -0.13595
      12 -> 20        -0.14715
      13 -> 21         0.27461

 Excited State  13:      Singlet-A      9.7565 eV  127.08 nm  f=0.0689  <S**2>=0.000
       9 -> 15        -0.11818
      10 -> 15        -0.20757
      10 -> 17        -0.11433
      10 -> 18         0.10523
      12 -> 15         0.56617
      12 -> 17         0.20902

 Excited State  14:      Singlet-A      9.9635 eV  124.44 nm  f=0.0001  <S**2>=0.000
       9 -> 14         0.67091
      11 -> 15         0.10748
      12 -> 14        -0.10602

 Excited State  15:      Singlet-A     10.0776 eV  123.03 nm  f=0.0305  <S**2>=0.000
       9 -> 14        -0.11249
      11 -> 15         0.46061
      11 -> 16         0.33305
      11 -> 17         0.12599
      12 -> 16        -0.18386
      12 -> 19        -0.12785
      13 -> 16         0.12428

 The electronic state is 1-A.
 Alpha  occ. eigenvalues --   -1.70399  -1.10220  -0.92339  -0.79053  -0.75316
 Alpha  occ. eigenvalues --   -0.66556  -0.62500  -0.53866  -0.50093  -0.43978
 Alpha  occ. eigenvalues --   -0.42704  -0.40104  -0.28090
 Alpha virt. eigenvalues --    0.11046   0.19044   0.20109   0.25083   0.27297
 Alpha virt. eigenvalues --    0.28494   0.29958   0.30010   0.35681   0.44720
 Alpha virt. eigenvalues --    0.48639

 Mulliken charges:
               1
     1  C   -0.129048
     2  C   -1.944722
     3  O    3.212407
     4  C   -1.938774
     5  C   -0.137684
     6  H    0.177463
     7  H    0.301988
     8  H    0.280157
     9  H    0.178213
 Sum of Mulliken charges =   0.00000

 Dipole moment (field-independent basis, Debye):
    X=              2.2025    Y=            -10.4326    Z=              0.6743  Tot=             10.6839
 N-N= 1.034114349587D+02 E-N=-1.681400444403D+02  KE=-1.473469269912D+01
 Orbital energies and kinetic energies (alpha):
                                 1                 2
   1         O                -1.703993         -1.183870
   2         O                -1.102200         -0.976940
   3         O                -0.923394         -0.843746
   4         O                -0.790534         -0.607729
   5         O                -0.753164         -0.681302
   6         O                -0.665560         -0.567322
   7         O                -0.624996         -0.511666

 Normal termination of Gaussian 09 at Tue Dec 15 17:06:04 2015.
