 Gaussian 09, Revision D.01,
 Gaussian 09:  ES64L-G09RevD.01 24-Apr-2013

 ------------------------------------------------------------
 #P AM1(Input,print) CIS(Singlets,NStates=15) pop(full) force
 ------------------------------------------------------------

 -----------------
 AM1-Reparam Input
 -----------------
 Symbolic Z-matrix:
 Charge =  0 Multiplicity = 1

                         Standard orientation:
 ---------------------------------------------------------------------
 Center     Atomic      Atomic             Coordinates (Angstroms)
 Number     Number       Type             X           Y           Z
 ---------------------------------------------------------------------
      1          6           0       -0.604638    1.068931   -0.015413
      2          6           0       -1.152340   -0.264023    0.032375
      3          8           0       -0.149541   -1.118586   -0.035039
      4          6           0        1.069541   -0.492961    0.036707
      5          6           0        0.853211    0.849429   -0.018215
      6          1           0        1.528250    1.653489    0.034645
      7          1           0        1.939498   -1.071980    0.000474
      8          1           0       -2.163899   -0.586992    0.032373
      9          1           0       -1.102162    1.985913    0.000107
 ---------------------------------------------------------------------

 SCF Done:  E(RAM1) =   1.78567855105     A.U. after   13 cycles

 Excitation energies and oscillator strengths:

 Excited State   1:      Singlet-A      5.5762 eV  222.35 nm  f=0.3632  <S**2>=0.000
      13 -> 14         0.69308
 This state for optimization and/or second-order correction.
 Total Energy, E(CIS) =   1.99059945067
 Copying the excited state density for this state as the 1-particle RhoCI density.

 Excited State   2:      Singlet-A      6.5169 eV  190.25 nm  f=0.0033  <S**2>=0.000
      12 -> 14         0.69859

 Excited State   3:      Singlet-A      6.6972 eV  185.13 nm  f=0.0064  <S**2>=0.000
      13 -> 15         0.65402
      13 -> 17         0.22140

 Excited State   4:      Singlet-A      7.0179 eV  176.67 nm  f=0.0020  <S**2>=0.000
      11 -> 16         0.10562
      13 -> 16         0.64971
      13 -> 18        -0.19977
      13 -> 19         0.10521

 Excited State   5:      Singlet-A      7.7955 eV  159.05 nm  f=0.0038  <S**2>=0.000
      10 -> 14         0.68851
      11 -> 14        -0.12410

 Excited State   6:      Singlet-A      8.1227 eV  152.64 nm  f=0.0001  <S**2>=0.000
      11 -> 15         0.10840
      13 -> 15        -0.10320
      13 -> 16         0.14396
      13 -> 17         0.25653
      13 -> 18         0.51522
      13 -> 19         0.13191
      13 -> 21        -0.31155

 Excited State   7:      Singlet-A      8.5844 eV  144.43 nm  f=0.0099  <S**2>=0.000
      11 -> 16        -0.12225
      13 -> 15        -0.15462
      13 -> 17         0.58734
      13 -> 18        -0.28115

 Excited State   8:      Singlet-A      8.7397 eV  141.86 nm  f=0.0860  <S**2>=0.000
      10 -> 14         0.12085
      11 -> 14         0.63858
      12 -> 16         0.12826
      12 -> 17        -0.11455

 Excited State   9:      Singlet-A      9.1521 eV  135.47 nm  f=0.0502  <S**2>=0.000
      10 -> 15        -0.13091
      10 -> 16        -0.12960
      10 -> 17        -0.15674
      10 -> 18         0.11822
      11 -> 14         0.18935
      12 -> 15         0.32326
      12 -> 16        -0.26626
      12 -> 17         0.17401
      12 -> 18         0.31402
      12 -> 21        -0.13072
      13 -> 19         0.11773

 Excited State  10:      Singlet-A      9.1708 eV  135.19 nm  f=0.0031  <S**2>=0.000
      11 -> 15        -0.11728
      13 -> 16        -0.11605
      13 -> 19         0.64548
      13 -> 20         0.12086

 Excited State  11:      Singlet-A      9.5947 eV  129.22 nm  f=0.0057  <S**2>=0.000
      13 -> 17         0.10707
      13 -> 18         0.30010
      13 -> 20         0.30117
      13 -> 21         0.53787

 Excited State  12:      Singlet-A      9.6640 eV  128.30 nm  f=0.0096  <S**2>=0.000
      10 -> 15         0.18674
      11 -> 14        -0.10321
      12 -> 15         0.48546
      12 -> 16         0.35194
      12 -> 17         0.14943
      12 -> 18        -0.13368

 Excited State  13:      Singlet-A      9.8743 eV  125.56 nm  f=0.1012  <S**2>=0.000
      10 -> 15         0.15860
      11 -> 15         0.11424
      12 -> 16        -0.17667
      13 -> 19        -0.12259
      13 -> 20         0.54717
      13 -> 21        -0.24530

 Excited State  14:      Singlet-A      9.8853 eV  125.42 nm  f=0.1862  <S**2>=0.000
       9 -> 16        -0.10887
      10 -> 15        -0.30953
      10 -> 16        -0.14392
      10 -> 17        -0.15634
      11 -> 15         0.17352
      12 -> 15        -0.13341
      12 -> 16         0.40271
      12 -> 19         0.16181
      13 -> 20         0.22997

 Excited State  15:      Singlet-A     10.1212 eV  122.50 nm  f=0.0267  <S**2>=0.000
       8 -> 15         0.10942
       9 -> 14        -0.11836
       9 -> 15         0.12829
      10 -> 16         0.10049
      10 -> 19         0.15016
      11 -> 15         0.48429
      12 -> 15         0.13110
      12 -> 17        -0.18091
      12 -> 18        -0.12889
      12 -> 19        -0.14912
      13 -> 15         0.10687
      13 -> 21         0.11954

 The electronic state is 1-A.
 Alpha  occ. eigenvalues --   -1.94441  -1.19406  -0.98218  -0.81669  -0.80709
 Alpha  occ. eigenvalues --   -0.68665  -0.67397  -0.54606  -0.50110  -0.43407
 Alpha  occ. eigenvalues --   -0.43183  -0.39245  -0.29115
 Alpha virt. eigenvalues --    0.11626   0.18963   0.20148   0.25855   0.27401
 Alpha virt. eigenvalues --    0.29221   0.30949   0.32350   0.37393   0.45302
 Alpha virt. eigenvalues --    0.51452

 Mulliken charges:
               1
     1  C   -0.151499
     2  C   -1.982692
     3  O    3.154420
     4  C   -1.935625
     5  C   -0.051166
     6  H    0.158080
     7  H    0.312826
     8  H    0.327771
     9  H    0.167885
 Sum of Mulliken charges =   0.00000

 Dipole moment (field-independent basis, Debye):
    X=             -1.1275    Y=             -9.2019    Z=             -0.9499  Tot=              9.3193
 N-N= 1.038350559661D+02 E-N=-1.690554734501D+02  KE=-1.563983756181D+01
 Orbital energies and kinetic energies (alpha):
                                 1                 2
   1         O                -1.944415         -1.420471
   2         O                -1.194060         -1.058649
   3         O                -0.982176         -0.893030
   4         O                -0.816691         -0.625512
   5         O                -0.807092         -0.709323
   6         O                -0.686653         -0.562014
   7         O                -0.673967         -0.585780

 Normal termination of Gaussian 09 at Tue Dec 15 17:09:57 2015.
