 Gaussian 09, Revision D.01,
 Gaussian 09:  ES64L-G09RevD.01 24-Apr-2013

 ------------------------------------------------------------
 #P AM1(Input,print) CIS(Singlets,NStates=15) pop(full) force
 ------------------------------------------------------------

 -----------------
 AM1-Reparam Input
 -----------------
 Symbolic Z-matrix:
 Charge =  0 Multiplicity = 1

                         Standard orientation:
 ---------------------------------------------------------------------
 Center     Atomic      Atomic             Coordinates (Angstroms)
 Number     Number       Type             X           Y           Z
 ---------------------------------------------------------------------
      1          6           0        0.657691    0.968838    0.044262
      2          6           0        1.142680   -0.235774   -0.032656
      3          8           0        0.098969   -1.115651    0.020825
      4          6           0       -1.072876   -0.403624   -0.016764
      5          6           0       -0.822255    0.845673   -0.004951
      6          1           0       -1.530414    1.715047   -0.027783
      7          1           0       -1.984058   -1.063644    0.006417
      8          1           0        2.122164   -0.697798   -0.032013
      9          1           0        1.169120    1.920926   -0.052563
 ---------------------------------------------------------------------

 SCF Done:  E(RAM1) =   1.79012699149     A.U. after   14 cycles

 Excitation energies and oscillator strengths:

 Excited State   1:      Singlet-A      5.0066 eV  247.64 nm  f=0.3763  <S**2>=0.000
      13 -> 14         0.69682
 This state for optimization and/or second-order correction.
 Total Energy, E(CIS) =   1.97411522469
 Copying the excited state density for this state as the 1-particle RhoCI density.

 Excited State   2:      Singlet-A      6.3540 eV  195.13 nm  f=0.0001  <S**2>=0.000
      13 -> 15         0.66925
      13 -> 16        -0.11070
      13 -> 18        -0.13580
      13 -> 19        -0.10213

 Excited State   3:      Singlet-A      6.5823 eV  188.36 nm  f=0.0014  <S**2>=0.000
      12 -> 14         0.70285

 Excited State   4:      Singlet-A      6.6988 eV  185.09 nm  f=0.0016  <S**2>=0.000
      13 -> 15         0.12154
      13 -> 16         0.66816
      13 -> 17        -0.13382

 Excited State   5:      Singlet-A      7.8814 eV  157.31 nm  f=0.0080  <S**2>=0.000
      11 -> 14         0.69623

 Excited State   6:      Singlet-A      8.0213 eV  154.57 nm  f=0.0001  <S**2>=0.000
      13 -> 15         0.11667
      13 -> 17        -0.26102
      13 -> 18         0.59445
      13 -> 22         0.20386

 Excited State   7:      Singlet-A      8.6325 eV  143.62 nm  f=0.0059  <S**2>=0.000
      13 -> 16         0.10314
      13 -> 17         0.62411
      13 -> 18         0.27837

 Excited State   8:      Singlet-A      9.2421 eV  134.15 nm  f=0.0011  <S**2>=0.000
      13 -> 18        -0.10553
      13 -> 19         0.68306

 Excited State   9:      Singlet-A      9.2915 eV  133.44 nm  f=0.0856  <S**2>=0.000
       8 -> 15        -0.11633
      10 -> 14        -0.28865
      11 -> 17         0.13653
      12 -> 15         0.53039
      12 -> 17         0.13207
      12 -> 18        -0.19146

 Excited State  10:      Singlet-A      9.4609 eV  131.05 nm  f=0.0573  <S**2>=0.000
      10 -> 14         0.52883
      11 -> 18         0.10603
      12 -> 15         0.15667
      12 -> 16        -0.29363
      12 -> 18        -0.19275
      13 -> 20         0.12688
      13 -> 21         0.10764

 Excited State  11:      Singlet-A     10.0115 eV  123.84 nm  f=0.0595  <S**2>=0.000
      10 -> 14         0.21234
      11 -> 15         0.25608
      11 -> 17        -0.10986
      12 -> 15         0.34200
      12 -> 16         0.36938
      12 -> 17        -0.18414
      12 -> 18         0.17628
      13 -> 20         0.14660

 Excited State  12:      Singlet-A     10.1859 eV  121.72 nm  f=0.1184  <S**2>=0.000
      10 -> 14        -0.12100
      11 -> 16         0.19979
      11 -> 17        -0.12191
      12 -> 16        -0.34946
      12 -> 18         0.21581
      13 -> 20         0.35001
      13 -> 21        -0.31604

 Excited State  13:      Singlet-A     10.2308 eV  121.19 nm  f=0.1066  <S**2>=0.000
      11 -> 16        -0.19728
      11 -> 17         0.15653
      12 -> 16         0.24288
      12 -> 17         0.11457
      12 -> 18        -0.22882
      13 -> 20         0.38235
      13 -> 21        -0.29537
      13 -> 22         0.16804

 Excited State  14:      Singlet-A     10.3327 eV  119.99 nm  f=0.0079  <S**2>=0.000
      13 -> 18        -0.16669
      13 -> 20        -0.13565
      13 -> 22         0.63813

 Excited State  15:      Singlet-A     10.4560 eV  118.58 nm  f=0.0702  <S**2>=0.000
      10 -> 14        -0.18788
      13 -> 20         0.38887
      13 -> 21         0.52643
      13 -> 22         0.10484

 The electronic state is 1-A.
 Alpha  occ. eigenvalues --   -1.92015  -1.17649  -0.94117  -0.82294  -0.78370
 Alpha  occ. eigenvalues --   -0.69500  -0.68632  -0.57450  -0.54940  -0.48135
 Alpha  occ. eigenvalues --   -0.44277  -0.40135  -0.28044
 Alpha virt. eigenvalues --    0.10546   0.17428   0.18983   0.27635   0.28050
 Alpha virt. eigenvalues --    0.30717   0.32989   0.33530   0.35706   0.41848
 Alpha virt. eigenvalues --    0.45703

 Mulliken charges:
               1
     1  C   -0.238710
     2  C   -1.982007
     3  O    3.298357
     4  C   -1.968798
     5  C   -0.190591
     6  H    0.210256
     7  H    0.327848
     8  H    0.327950
     9  H    0.215696
 Sum of Mulliken charges =   0.00000

 Dipole moment (field-independent basis, Debye):
    X=              0.6077    Y=            -11.0712    Z=              0.5444  Tot=             11.1012
 N-N= 1.041630385845D+02 E-N=-1.697322010483D+02  KE=-1.550242634904D+01
 Orbital energies and kinetic energies (alpha):
                                 1                 2
   1         O                -1.920154         -1.379949
   2         O                -1.176492         -1.039048
   3         O                -0.941172         -0.895148
   4         O                -0.822942         -0.571228
   5         O                -0.783702         -0.698994
   6         O                -0.695004         -0.568160
   7         O                -0.686322         -0.546034

 Normal termination of Gaussian 09 at Tue Dec 15 17:09:36 2015.
