 Gaussian 09, Revision D.01,
 Gaussian 09:  ES64L-G09RevD.01 24-Apr-2013

 ------------------------------------------------------------
 #P AM1(Input,print) CIS(Singlets,NStates=15) pop(full) force
 ------------------------------------------------------------

 -----------------
 AM1-Reparam Input
 -----------------
 Symbolic Z-matrix:
 Charge =  0 Multiplicity = 1

                         Standard orientation:
 ---------------------------------------------------------------------
 Center     Atomic      Atomic             Coordinates (Angstroms)
 Number     Number       Type             X           Y           Z
 ---------------------------------------------------------------------
      1          6           0       -0.649209    0.952741   -0.010527
      2          6           0       -1.125689   -0.286260   -0.018166
      3          8           0       -0.016815   -1.185070    0.020537
      4          6           0        1.071734   -0.378041   -0.018015
      5          6           0        0.715134    0.952553    0.003449
      6          1           0        1.405952    1.806359    0.024339
      7          1           0        1.996069   -0.867944    0.000200
      8          1           0       -2.049384   -0.749091    0.004314
      9          1           0       -1.289940    1.845278    0.066410
 ---------------------------------------------------------------------

 SCF Done:  E(RAM1) =   1.11240209211     A.U. after   13 cycles

 Excitation energies and oscillator strengths:

 Excited State   1:      Singlet-A      5.7474 eV  215.72 nm  f=0.1617  <S**2>=0.000
      12 -> 15        -0.16950
      13 -> 14         0.66918
 This state for optimization and/or second-order correction.
 Total Energy, E(CIS) =   1.32361474208
 Copying the excited state density for this state as the 1-particle RhoCI density.

 Excited State   2:      Singlet-A      6.5750 eV  188.57 nm  f=0.0039  <S**2>=0.000
      13 -> 15         0.10966
      13 -> 16         0.66162
      13 -> 17         0.11105
      13 -> 19         0.13890

 Excited State   3:      Singlet-A      6.8062 eV  182.16 nm  f=0.0310  <S**2>=0.000
      12 -> 14         0.32555
      13 -> 15         0.60145
      13 -> 16        -0.10825

 Excited State   4:      Singlet-A      7.2461 eV  171.11 nm  f=0.0004  <S**2>=0.000
      13 -> 16        -0.10012
      13 -> 17         0.65485
      13 -> 18         0.10913
      13 -> 21         0.13836

 Excited State   5:      Singlet-A      7.4717 eV  165.94 nm  f=0.0046  <S**2>=0.000
       9 -> 14         0.11789
      11 -> 14         0.66564
      12 -> 14         0.13498

 Excited State   6:      Singlet-A      7.9237 eV  156.47 nm  f=0.0393  <S**2>=0.000
       9 -> 14         0.10302
      10 -> 14         0.58173
      11 -> 14         0.11817
      11 -> 15        -0.10988
      12 -> 14        -0.27977
      13 -> 15         0.13238

 Excited State   7:      Singlet-A      8.0500 eV  154.02 nm  f=0.1583  <S**2>=0.000
      10 -> 14         0.32901
      11 -> 14        -0.10175
      11 -> 16        -0.10514
      12 -> 14         0.51500
      13 -> 15        -0.25587

 Excited State   8:      Singlet-A      8.3604 eV  148.30 nm  f=0.0243  <S**2>=0.000
      11 -> 15        -0.10600
      12 -> 15        -0.23203
      12 -> 16        -0.41472
      13 -> 18         0.43122
      13 -> 20        -0.11524
      13 -> 24         0.13611

 Excited State   9:      Singlet-A      8.4251 eV  147.16 nm  f=0.0846  <S**2>=0.000
       9 -> 15        -0.17840
      10 -> 14         0.15495
      10 -> 15         0.19803
      11 -> 15         0.35386
      12 -> 15         0.38671
      13 -> 18         0.25812
      13 -> 19         0.11408

 Excited State  10:      Singlet-A      8.4980 eV  145.90 nm  f=0.0062  <S**2>=0.000
      11 -> 15        -0.11559
      12 -> 16         0.20527
      13 -> 18         0.13170
      13 -> 19         0.54955
      13 -> 20         0.25826
      13 -> 23         0.10108

 Excited State  11:      Singlet-A      8.5505 eV  145.00 nm  f=0.1414  <S**2>=0.000
       9 -> 15         0.15348
      10 -> 15        -0.17033
      11 -> 15        -0.38586
      12 -> 15         0.43144
      13 -> 14         0.11285
      13 -> 18         0.14336
      13 -> 20        -0.12568

 Excited State  12:      Singlet-A      8.6159 eV  143.90 nm  f=0.0366  <S**2>=0.000
      12 -> 15        -0.17432
      12 -> 16         0.46465
      12 -> 19         0.10287
      13 -> 18         0.31116
      13 -> 19        -0.12477
      13 -> 20        -0.25564

 Excited State  13:      Singlet-A      9.0859 eV  136.46 nm  f=0.0034  <S**2>=0.000
      12 -> 17         0.56809
      13 -> 18         0.16902
      13 -> 19        -0.10706
      13 -> 20         0.31602

 Excited State  14:      Singlet-A      9.3749 eV  132.25 nm  f=0.0788  <S**2>=0.000
       9 -> 16        -0.14485
       9 -> 17         0.14350
      10 -> 16         0.31750
      10 -> 17         0.21348
      10 -> 20        -0.23404
      11 -> 16        -0.29449
      11 -> 18         0.27971

 Excited State  15:      Singlet-A      9.5823 eV  129.39 nm  f=0.0660  <S**2>=0.000
       9 -> 16        -0.21841
      10 -> 16         0.38425
      10 -> 17        -0.10167
      11 -> 16         0.31504
      11 -> 17         0.24528
      13 -> 20        -0.10980
      13 -> 21        -0.16310

 The electronic state is 1-A.
 Alpha  occ. eigenvalues --   -1.80876  -1.20990  -0.98559  -0.86602  -0.82156
 Alpha  occ. eigenvalues --   -0.74001  -0.71064  -0.60303  -0.56410  -0.51100
 Alpha  occ. eigenvalues --   -0.49430  -0.46667  -0.38554
 Alpha virt. eigenvalues --    0.04747   0.08472   0.10366   0.12735   0.18349
 Alpha virt. eigenvalues --    0.19460   0.19559   0.22364   0.25938   0.27150
 Alpha virt. eigenvalues --    0.28451

 Mulliken charges:
               1
     1  C   -0.098212
     2  C   -1.226004
     3  O    2.117996
     4  C   -1.232739
     5  C   -0.159422
     6  H    0.115673
     7  H    0.191278
     8  H    0.175874
     9  H    0.115555
 Sum of Mulliken charges =   0.00000

 Dipole moment (field-independent basis, Debye):
    X=              0.1144    Y=             -7.3841    Z=              0.4377  Tot=              7.3979
 N-N= 1.044302295443D+02 E-N=-1.713121140688D+02  KE=-1.498928383657D+01
 Orbital energies and kinetic energies (alpha):
                                 1                 2
   1         O                -1.808763         -1.224250
   2         O                -1.209903         -0.987599
   3         O                -0.985592         -0.831611
   4         O                -0.866017         -0.617663
   5         O                -0.821564         -0.675485
   6         O                -0.740006         -0.599552
   7         O                -0.710639         -0.518243

 Normal termination of Gaussian 09 at Tue Dec 15 17:05:41 2015.
