 Gaussian 09, Revision D.01,
 Gaussian 09:  ES64L-G09RevD.01 24-Apr-2013

 ------------------------------------------------------------
 #P AM1(Input,print) CIS(Singlets,NStates=15) pop(full) force
 ------------------------------------------------------------

 -----------------
 AM1-Reparam Input
 -----------------
 Symbolic Z-matrix:
 Charge =  0 Multiplicity = 1

                         Standard orientation:
 ---------------------------------------------------------------------
 Center     Atomic      Atomic             Coordinates (Angstroms)
 Number     Number       Type             X           Y           Z
 ---------------------------------------------------------------------
      1          6           0       -0.975310    0.715668   -0.009273
      2          6           0       -0.928919   -0.602198   -0.018064
      3          8           0        0.318882   -1.148367    0.018147
      4          6           0        1.166129   -0.012823   -0.013168
      5          6           0        0.405930    1.103118    0.015270
      6          1           0        0.802026    2.164230   -0.016746
      7          1           0        2.195371   -0.198491   -0.022500
      8          1           0       -1.727105   -1.367089   -0.003242
      9          1           0       -1.828327    1.365698    0.048715
 ---------------------------------------------------------------------

 SCF Done:  E(RAM1) =  -5.25624566003     A.U. after   14 cycles

 Excitation energies and oscillator strengths:

 Excited State   1:      Singlet-A      6.2430 eV  198.60 nm  f=0.0098  <S**2>=0.000
      13 -> 14         0.17383
      13 -> 15         0.66325
      13 -> 16         0.11153
 This state for optimization and/or second-order correction.
 Total Energy, E(CIS) =  -5.02681991755
 Copying the excited state density for this state as the 1-particle RhoCI density.

 Excited State   2:      Singlet-A      6.7397 eV  183.96 nm  f=0.1859  <S**2>=0.000
      13 -> 14         0.58820
      13 -> 15        -0.20130
      13 -> 16         0.28608

 Excited State   3:      Singlet-A      6.8612 eV  180.70 nm  f=0.0620  <S**2>=0.000
      13 -> 14        -0.30219
      13 -> 16         0.61567

 Excited State   4:      Singlet-A      7.4773 eV  165.81 nm  f=0.0002  <S**2>=0.000
       9 -> 14        -0.11160
      12 -> 14         0.68780

 Excited State   5:      Singlet-A      8.2237 eV  150.76 nm  f=0.0034  <S**2>=0.000
      10 -> 14        -0.10853
      11 -> 14         0.68258

 Excited State   6:      Singlet-A      8.6252 eV  143.75 nm  f=0.0373  <S**2>=0.000
      10 -> 14        -0.28272
      12 -> 15         0.13315
      13 -> 17         0.61631

 Excited State   7:      Singlet-A      8.8574 eV  139.98 nm  f=0.0029  <S**2>=0.000
      10 -> 15         0.15660
      13 -> 18         0.45735
      13 -> 19         0.34938
      13 -> 20        -0.19563
      13 -> 21         0.28954

 Excited State   8:      Singlet-A      9.1717 eV  135.18 nm  f=0.0067  <S**2>=0.000
      10 -> 15        -0.12266
      10 -> 16         0.21407
      13 -> 18        -0.33769
      13 -> 19         0.47817
      13 -> 20         0.18064
      13 -> 21         0.19173

 Excited State   9:      Singlet-A      9.2019 eV  134.74 nm  f=0.0279  <S**2>=0.000
      10 -> 14         0.17471
      11 -> 15         0.23081
      11 -> 16        -0.10657
      12 -> 15         0.49164
      12 -> 16         0.32169
      13 -> 17        -0.10518

 Excited State  10:      Singlet-A      9.3737 eV  132.27 nm  f=0.0444  <S**2>=0.000
      11 -> 15        -0.30496
      12 -> 15        -0.22193
      12 -> 16         0.55566
      12 -> 22         0.10280

 Excited State  11:      Singlet-A      9.5305 eV  130.09 nm  f=0.0046  <S**2>=0.000
      10 -> 15         0.51108
      10 -> 16         0.22270
      11 -> 15         0.13197
      12 -> 15        -0.16890
      13 -> 18        -0.21624
      13 -> 20        -0.20005

 Excited State  12:      Singlet-A      9.5761 eV  129.47 nm  f=0.0022  <S**2>=0.000
      10 -> 14         0.10812
      10 -> 15         0.18724
      13 -> 18         0.24257
      13 -> 20         0.57043
      13 -> 23         0.14156

 Excited State  13:      Singlet-A      9.7413 eV  127.28 nm  f=0.0204  <S**2>=0.000
      10 -> 14        -0.23430
      10 -> 15        -0.15412
      11 -> 15         0.51034
      12 -> 15        -0.24134
      12 -> 16         0.14026
      12 -> 21         0.11157
      13 -> 17        -0.11846

 Excited State  14:      Singlet-A      9.8896 eV  125.37 nm  f=0.0353  <S**2>=0.000
       9 -> 14         0.33854
       9 -> 15         0.19345
      10 -> 14         0.38133
      10 -> 15        -0.18336
      11 -> 16         0.19540
      12 -> 15        -0.10580
      12 -> 18        -0.12252
      13 -> 17         0.19008

 Excited State  15:      Singlet-A     10.0391 eV  123.50 nm  f=0.0158  <S**2>=0.000
       9 -> 14         0.58051
       9 -> 15        -0.18900
      10 -> 14        -0.18338
      11 -> 16        -0.14437
      13 -> 17        -0.11167

 The electronic state is 1-A.
 Alpha  occ. eigenvalues --   -3.87756  -1.35767  -1.01464  -1.00814  -0.98520
 Alpha  occ. eigenvalues --   -0.89249  -0.82056  -0.63489  -0.58637  -0.56596
 Alpha  occ. eigenvalues --   -0.54927  -0.52311  -0.43636
 Alpha virt. eigenvalues --    0.01073   0.02837   0.05130   0.10979   0.12463
 Alpha virt. eigenvalues --    0.14178   0.15432   0.19171   0.19808   0.22620
 Alpha virt. eigenvalues --    0.24582

 Mulliken charges:
               1
     1  C   -0.461256
     2  C   -1.249779
     3  O    2.642853
     4  C   -1.252318
     5  C   -0.444286
     6  H    0.239097
     7  H    0.145262
     8  H    0.154667
     9  H    0.225761
 Sum of Mulliken charges =   0.00000

 Dipole moment (field-independent basis, Debye):
    X=              2.5194    Y=            -10.1346    Z=              0.3683  Tot=             10.4496
 N-N= 1.020139775964D+02 E-N=-1.652571556709D+02  KE=-2.277885581428D+01
 Orbital energies and kinetic energies (alpha):
                                 1                 2
   1         O                -3.877559         -3.063622
   2         O                -1.357669         -1.203906
   3         O                -1.014641         -0.908260
   4         O                -1.008139         -0.909102
   5         O                -0.985204         -0.917383
   6         O                -0.892486         -0.800135
   7         O                -0.820564         -0.670314

 Normal termination of Gaussian 09 at Fri Dec 11 13:41:34 2015.
