 Gaussian 09, Revision D.01,
 Gaussian 09:  ES64L-G09RevD.01 24-Apr-2013

 ------------------------------------------------------------
 #P AM1(Input,print) CIS(Singlets,NStates=15) pop(full) force
 ------------------------------------------------------------

 -----------------
 AM1-Reparam Input
 -----------------
 Symbolic Z-matrix:
 Charge =  0 Multiplicity = 1

                         Standard orientation:
 ---------------------------------------------------------------------
 Center     Atomic      Atomic             Coordinates (Angstroms)
 Number     Number       Type             X           Y           Z
 ---------------------------------------------------------------------
      1          6           0       -0.585602    1.057473   -0.018000
      2          6           0       -1.120263   -0.201910    0.019622
      3          8           0       -0.163898   -1.148734   -0.002021
      4          6           0        1.014724   -0.518693   -0.021482
      5          6           0        0.875538    0.862879    0.004002
      6          1           0        1.588808    1.641524    0.066881
      7          1           0        1.873576   -1.106909    0.044213
      8          1           0       -2.169753   -0.487836    0.012103
      9          1           0       -1.087835    1.944592   -0.011880
 ---------------------------------------------------------------------

 SCF Done:  E(RAM1) =   2.81110807212     A.U. after   13 cycles

 Excitation energies and oscillator strengths:

 Excited State   1:      Singlet-A      5.2019 eV  238.34 nm  f=0.3553  <S**2>=0.000
      13 -> 14         0.69669
 This state for optimization and/or second-order correction.
 Total Energy, E(CIS) =   3.00227549779
 Copying the excited state density for this state as the 1-particle RhoCI density.

 Excited State   2:      Singlet-A      6.5608 eV  188.98 nm  f=0.0059  <S**2>=0.000
      12 -> 14        -0.15807
      13 -> 15         0.62746
      13 -> 17         0.20383
      13 -> 18         0.12657

 Excited State   3:      Singlet-A      6.5889 eV  188.17 nm  f=0.0012  <S**2>=0.000
       9 -> 14         0.11092
      12 -> 14         0.62791
      13 -> 15         0.17033
      13 -> 16         0.20785

 Excited State   4:      Singlet-A      6.6029 eV  187.77 nm  f=0.0020  <S**2>=0.000
      12 -> 14        -0.24592
      13 -> 16         0.58857
      13 -> 18        -0.25299

 Excited State   5:      Singlet-A      7.7218 eV  160.56 nm  f=0.0000  <S**2>=0.000
      11 -> 15        -0.11783
      13 -> 16         0.21517
      13 -> 18         0.43899
      13 -> 19        -0.25550
      13 -> 20        -0.34370
      13 -> 21         0.21957

 Excited State   6:      Singlet-A      7.8959 eV  157.02 nm  f=0.0097  <S**2>=0.000
      10 -> 14         0.67031
      11 -> 14         0.10357
      13 -> 17        -0.15766

 Excited State   7:      Singlet-A      8.1724 eV  151.71 nm  f=0.0171  <S**2>=0.000
      10 -> 14         0.17481
      11 -> 16         0.12580
      13 -> 15        -0.18293
      13 -> 17         0.63342

 Excited State   8:      Singlet-A      8.4365 eV  146.96 nm  f=0.1228  <S**2>=0.000
      10 -> 14        -0.11334
      11 -> 14         0.68329

 Excited State   9:      Singlet-A      8.6433 eV  143.44 nm  f=0.0003  <S**2>=0.000
      13 -> 16         0.15065
      13 -> 18         0.39340
      13 -> 19         0.49179
      13 -> 20         0.22270

 Excited State  10:      Singlet-A      9.0971 eV  136.29 nm  f=0.0099  <S**2>=0.000
      13 -> 18        -0.22646
      13 -> 19         0.42785
      13 -> 20        -0.41915
      13 -> 21         0.28486

 Excited State  11:      Singlet-A      9.3777 eV  132.21 nm  f=0.0863  <S**2>=0.000
       8 -> 15        -0.12422
       9 -> 18        -0.12682
      10 -> 15         0.13410
      10 -> 17         0.19460
      12 -> 15        -0.16024
      12 -> 16         0.42032
      12 -> 18        -0.29474
      12 -> 19         0.13810
      12 -> 20         0.13421
      13 -> 20         0.11047
      13 -> 21         0.18314

 Excited State  12:      Singlet-A      9.4626 eV  131.03 nm  f=0.0786  <S**2>=0.000
      12 -> 16        -0.13359
      13 -> 20         0.35002
      13 -> 21         0.55582

 Excited State  13:      Singlet-A      9.6632 eV  128.30 nm  f=0.0005  <S**2>=0.000
       9 -> 14         0.67736
      12 -> 14        -0.12200

 Excited State  14:      Singlet-A      9.7768 eV  126.82 nm  f=0.0287  <S**2>=0.000
      10 -> 15         0.13021
      10 -> 16        -0.11994
      12 -> 15         0.59091
      12 -> 16         0.14739
      12 -> 17         0.17519

 Excited State  15:      Singlet-A      9.9274 eV  124.89 nm  f=0.0188  <S**2>=0.000
       7 -> 16         0.10671
      10 -> 15         0.11079
      11 -> 15         0.55556
      11 -> 16         0.22513
      11 -> 17         0.14122
      12 -> 15         0.10998
      12 -> 16        -0.13408
      13 -> 16         0.13932

 The electronic state is 1-A.
 Alpha  occ. eigenvalues --   -1.72076  -1.10771  -0.92242  -0.79684  -0.75058
 Alpha  occ. eigenvalues --   -0.66983  -0.63366  -0.53826  -0.49011  -0.45040
 Alpha  occ. eigenvalues --   -0.43044  -0.40439  -0.28655
 Alpha virt. eigenvalues --    0.10546   0.18463   0.19049   0.25272   0.26461
 Alpha virt. eigenvalues --    0.28795   0.29479   0.30117   0.38706   0.47625
 Alpha virt. eigenvalues --    0.51718

 Mulliken charges:
               1
     1  C   -0.120633
     2  C   -1.965883
     3  O    3.209704
     4  C   -1.964248
     5  C   -0.130079
     6  H    0.177138
     7  H    0.304688
     8  H    0.314866
     9  H    0.174448
 Sum of Mulliken charges =   0.00000

 Dipole moment (field-independent basis, Debye):
    X=             -1.5894    Y=             -9.9288    Z=              0.1526  Tot=             10.0564
 N-N= 1.039167165166D+02 E-N=-1.690281216578D+02  KE=-1.477918523435D+01
 Orbital energies and kinetic energies (alpha):
                                 1                 2
   1         O                -1.720757         -1.220603
   2         O                -1.107707         -0.986052
   3         O                -0.922417         -0.841844
   4         O                -0.796844         -0.603882
   5         O                -0.750575         -0.682434
   6         O                -0.669833         -0.574739
   7         O                -0.633665         -0.515277

 Normal termination of Gaussian 09 at Tue Dec 15 17:06:00 2015.
