 Gaussian 09, Revision D.01,
 Gaussian 09:  ES64L-G09RevD.01 24-Apr-2013

 ------------------------------------------------------------
 #P AM1(Input,print) CIS(Singlets,NStates=15) pop(full) force
 ------------------------------------------------------------

 -----------------
 AM1-Reparam Input
 -----------------
 Symbolic Z-matrix:
 Charge =  0 Multiplicity = 1

                         Standard orientation:
 ---------------------------------------------------------------------
 Center     Atomic      Atomic             Coordinates (Angstroms)
 Number     Number       Type             X           Y           Z
 ---------------------------------------------------------------------
      1          6           0       -0.997617    0.663434    0.002578
      2          6           0       -0.876975   -0.703491   -0.019168
      3          8           0        0.403608   -1.045229    0.013682
      4          6           0        1.141382    0.032805   -0.004873
      5          6           0        0.313001    1.104345   -0.014920
      6          1           0        0.565638    2.173084    0.016866
      7          1           0        2.267236   -0.017053    0.024764
      8          1           0       -1.574377   -1.494734   -0.004473
      9          1           0       -1.966114    1.117970    0.071685
 ---------------------------------------------------------------------

 SCF Done:  E(RAM1) =   1.72496431160     A.U. after   14 cycles

 Excitation energies and oscillator strengths:

 Excited State   1:      Singlet-A      5.7088 eV  217.18 nm  f=0.3374  <S**2>=0.000
      13 -> 14         0.68962
 This state for optimization and/or second-order correction.
 Total Energy, E(CIS) =   1.93475780174
 Copying the excited state density for this state as the 1-particle RhoCI density.

 Excited State   2:      Singlet-A      7.1092 eV  174.40 nm  f=0.0015  <S**2>=0.000
      12 -> 14         0.69961

 Excited State   3:      Singlet-A      7.3879 eV  167.82 nm  f=0.0062  <S**2>=0.000
      13 -> 15         0.57020
      13 -> 16         0.34875
      13 -> 17        -0.16387

 Excited State   4:      Singlet-A      7.5426 eV  164.38 nm  f=0.0002  <S**2>=0.000
      13 -> 15        -0.35225
      13 -> 16         0.56419
      13 -> 19         0.15760

 Excited State   5:      Singlet-A      7.9819 eV  155.33 nm  f=0.0060  <S**2>=0.000
      11 -> 14         0.69704

 Excited State   6:      Singlet-A      9.1474 eV  135.54 nm  f=0.0002  <S**2>=0.000
      10 -> 16         0.10073
      13 -> 16        -0.11584
      13 -> 17        -0.38377
      13 -> 18         0.50629
      13 -> 21         0.25094

 Excited State   7:      Singlet-A      9.4740 eV  130.87 nm  f=0.0506  <S**2>=0.000
      10 -> 14         0.45970
      13 -> 17         0.40559
      13 -> 18         0.26400

 Excited State   8:      Singlet-A      9.4886 eV  130.67 nm  f=0.0555  <S**2>=0.000
      10 -> 14         0.49895
      13 -> 17        -0.36428
      13 -> 18        -0.25589

 Excited State   9:      Singlet-A      9.8958 eV  125.29 nm  f=0.0427  <S**2>=0.000
       8 -> 16         0.10229
      11 -> 15         0.24030
      11 -> 16         0.14513
      11 -> 17        -0.21020
      11 -> 18        -0.14585
      12 -> 16         0.40353
      12 -> 17        -0.20327
      12 -> 18         0.24216
      13 -> 14         0.10910

 Excited State  10:      Singlet-A      9.9869 eV  124.15 nm  f=0.0007  <S**2>=0.000
      13 -> 18        -0.13741
      13 -> 19         0.66480

 Excited State  11:      Singlet-A     10.1481 eV  122.18 nm  f=0.1243  <S**2>=0.000
      12 -> 15         0.65389
      12 -> 17        -0.11157
      12 -> 19        -0.12188

 Excited State  12:      Singlet-A     10.5806 eV  117.18 nm  f=0.1676  <S**2>=0.000
      11 -> 15         0.11601
      11 -> 16         0.51974
      11 -> 17        -0.12496
      12 -> 16        -0.38569

 Excited State  13:      Singlet-A     10.7881 eV  114.93 nm  f=0.0569  <S**2>=0.000
       8 -> 16         0.16816
       9 -> 15         0.11485
      10 -> 14         0.12496
      11 -> 15        -0.12396
      11 -> 16         0.25278
      11 -> 19         0.21482
      12 -> 16         0.23369
      12 -> 17         0.28323
      12 -> 18        -0.26052
      12 -> 19         0.18232
      12 -> 20         0.14000

 Excited State  14:      Singlet-A     10.8758 eV  114.00 nm  f=0.0424  <S**2>=0.000
       9 -> 14        -0.13451
      13 -> 18        -0.22454
      13 -> 20         0.42380
      13 -> 21         0.46522

 Excited State  15:      Singlet-A     11.0073 eV  112.64 nm  f=0.0595  <S**2>=0.000
       9 -> 14         0.10983
      10 -> 15        -0.26724
      13 -> 18         0.14134
      13 -> 20         0.49754
      13 -> 21        -0.34487

 The electronic state is 1-A.
 Alpha  occ. eigenvalues --   -1.93129  -1.19322  -0.93205  -0.82976  -0.78216
 Alpha  occ. eigenvalues --   -0.70471  -0.69229  -0.57689  -0.55136  -0.47532
 Alpha  occ. eigenvalues --   -0.45044  -0.42463  -0.32194
 Alpha virt. eigenvalues --    0.10585   0.17786   0.18951   0.26166   0.27881
 Alpha virt. eigenvalues --    0.29457   0.31964   0.35034   0.37163   0.45293
 Alpha virt. eigenvalues --    0.49964

 Mulliken charges:
               1
     1  C   -0.152588
     2  C   -2.048208
     3  O    3.300733
     4  C   -2.054996
     5  C   -0.166643
     6  H    0.213568
     7  H    0.359856
     8  H    0.335720
     9  H    0.212559
 Sum of Mulliken charges =   0.00000

 Dipole moment (field-independent basis, Debye):
    X=              3.6420    Y=             -9.0350    Z=              0.5389  Tot=              9.7563
 N-N= 1.047174597553D+02 E-N=-1.706908650490D+02  KE=-1.556203003696D+01
 Orbital energies and kinetic energies (alpha):
                                 1                 2
   1         O                -1.931285         -1.420424
   2         O                -1.193221         -1.057777
   3         O                -0.932045         -0.886928
   4         O                -0.829763         -0.567701
   5         O                -0.782157         -0.694709
   6         O                -0.704712         -0.585573
   7         O                -0.692293         -0.558219

 Normal termination of Gaussian 09 at Tue Dec 15 17:09:37 2015.
