 Gaussian 09, Revision D.01,
 Gaussian 09:  ES64L-G09RevD.01 24-Apr-2013

 -------------------------------------------------------
 #P B3LYP/3-21G CIS(Singlets,NStates=15) pop(full) force
 -------------------------------------------------------

 --------
 FuranDFT
 --------
 Symbolic Z-matrix:
 Charge =  0 Multiplicity = 1

                         Standard orientation:
 ---------------------------------------------------------------------
 Center     Atomic      Atomic             Coordinates (Angstroms)
 Number     Number       Type             X           Y           Z
 ---------------------------------------------------------------------
      1          6           0       -1.115220    0.506248    0.010032
      2          6           0       -0.781567   -0.769679   -0.008981
      3          8           0        0.554626   -1.039254   -0.005218
      4          6           0        1.133608    0.197050    0.015542
      5          6           0        0.174769    1.171781   -0.010840
      6          1           0        0.351075    2.265793    0.005408
      7          1           0        2.262143    0.197772   -0.014644
      8          1           0       -1.455427   -1.702582    0.031262
      9          1           0       -2.064344    0.920648   -0.014796
 ---------------------------------------------------------------------

 SCF Done:  E(RB3LYP) =  -228.738227301     A.U. after   14 cycles

 Excitation energies and oscillator strengths:

 Excited State   1:      Singlet-A      7.2910 eV  170.05 nm  f=0.1303  <S**2>=0.000
      17 -> 19        -0.26646
      18 -> 19         0.55227
      18 -> 20        -0.32001
 This state for optimization and/or second-order correction.
 Total Energy, E(CIS) =  -228.470287408
 Copying the excited state density for this state as the 1-particle RhoCI density.

 Excited State   2:      Singlet-A      7.4025 eV  167.49 nm  f=0.0849  <S**2>=0.000
      17 -> 19         0.43067
      18 -> 19         0.40204
      18 -> 20         0.36775

 Excited State   3:      Singlet-A      8.4811 eV  146.19 nm  f=0.0011  <S**2>=0.000
      18 -> 21         0.68500
      18 -> 22         0.13527

 Excited State   4:      Singlet-A      9.0945 eV  136.33 nm  f=0.0062  <S**2>=0.000
      16 -> 19         0.66705
      18 -> 23         0.21083

 Excited State   5:      Singlet-A      9.1660 eV  135.27 nm  f=0.0016  <S**2>=0.000
      18 -> 21        -0.13206
      18 -> 22         0.65955
      18 -> 23         0.16823

 Excited State   6:      Singlet-A      9.2735 eV  133.70 nm  f=0.0018  <S**2>=0.000
      15 -> 19        -0.10125
      16 -> 19        -0.18899
      17 -> 21        -0.15007
      18 -> 22        -0.18588
      18 -> 23         0.61286

 Excited State   7:      Singlet-A      9.4743 eV  130.86 nm  f=0.1834  <S**2>=0.000
      17 -> 19         0.21128
      17 -> 20         0.59120
      18 -> 20        -0.22962

 Excited State   8:      Singlet-A      9.7683 eV  126.92 nm  f=0.0344  <S**2>=0.000
      15 -> 19        -0.41216
      17 -> 19         0.11184
      17 -> 21         0.52966
      18 -> 20        -0.12076

 Excited State   9:      Singlet-A      9.8080 eV  126.41 nm  f=0.0067  <S**2>=0.000
      15 -> 19         0.55187
      17 -> 21         0.38125
      18 -> 23         0.16479

 Excited State  10:      Singlet-A     10.0018 eV  123.96 nm  f=0.4801  <S**2>=0.000
      17 -> 19        -0.37033
      17 -> 20         0.33009
      17 -> 21         0.15753
      18 -> 20         0.38760

 Excited State  11:      Singlet-A     10.3777 eV  119.47 nm  f=0.0022  <S**2>=0.000
      17 -> 21        -0.11470
      17 -> 22         0.59965
      18 -> 24         0.31768

 Excited State  12:      Singlet-A     10.4155 eV  119.04 nm  f=0.0000  <S**2>=0.000
      14 -> 19         0.17206
      17 -> 22        -0.29239
      18 -> 24         0.60089

 Excited State  13:      Singlet-A     10.5068 eV  118.00 nm  f=0.0001  <S**2>=0.000
      13 -> 19         0.11091
      14 -> 19         0.51988
      16 -> 20         0.38522
      17 -> 22         0.17726
      18 -> 24        -0.12951

 Excited State  14:      Singlet-A     10.6740 eV  116.15 nm  f=0.0052  <S**2>=0.000
      17 -> 23         0.68850

 Excited State  15:      Singlet-A     10.7508 eV  115.33 nm  f=0.0004  <S**2>=0.000
      13 -> 19         0.17119
      14 -> 19        -0.43401
      15 -> 20        -0.10703
      16 -> 20         0.51002

 The electronic state is 1-A.
 Alpha  occ. eigenvalues --  -19.11705 -10.18086 -10.17869 -10.13155 -10.12231
 Alpha  occ. eigenvalues --   -1.13239  -0.81367  -0.74406  -0.60670  -0.56046
 Alpha  occ. eigenvalues --   -0.54128  -0.45141  -0.43700  -0.42281  -0.39155
 Alpha  occ. eigenvalues --   -0.36854  -0.28147  -0.23477
 Alpha virt. eigenvalues --    0.02344   0.07971   0.12173   0.14550   0.15410
 Alpha virt. eigenvalues --    0.18791   0.21220   0.23419   0.35494   0.42476
 Alpha virt. eigenvalues --    0.46087   0.68360   0.69807   0.70147   0.75126

 Mulliken charges:
               1
     1  C   -0.244427
     2  C    0.101973
     3  O   -0.479295
     4  C    0.088449
     5  C   -0.260091
     6  H    0.185410
     7  H    0.211412
     8  H    0.200807
     9  H    0.195762
 Sum of Mulliken charges =   0.00000

 Dipole moment (field-independent basis, Debye):
    X=             -0.3927    Y=              0.7108    Z=              0.0054  Tot=              0.8121
 Quadrupole moment (field-independent basis, Debye-Ang):
   XX=            -24.3771   YY=            -27.5707   ZZ=            -31.8757
   XY=              1.5285   XZ=             -0.0636   YZ=             -0.0743

 Normal termination of Gaussian 09 at Tue Dec 15 16:12:57 2015.
