 Gaussian 09, Revision D.01,
 Gaussian 09:  ES64L-G09RevD.01 24-Apr-2013

 ------------------------------------------------------------
 #P AM1(Input,print) CIS(Singlets,NStates=15) pop(full) force
 ------------------------------------------------------------

 -----------------
 AM1-Reparam Input
 -----------------
 Symbolic Z-matrix:
 Charge =  0 Multiplicity = 1

                         Standard orientation:
 ---------------------------------------------------------------------
 Center     Atomic      Atomic             Coordinates (Angstroms)
 Number     Number       Type             X           Y           Z
 ---------------------------------------------------------------------
      1          6           0       -0.680242    0.948863   -0.013063
      2          6           0       -1.083726   -0.310280    0.007307
      3          8           0       -0.016349   -1.107750    0.006145
      4          6           0        1.040856   -0.382702    0.006055
      5          6           0        0.727086    0.908568   -0.010395
      6          1           0        1.462002    1.801478    0.044368
      7          1           0        2.026513   -0.922641   -0.039495
      8          1           0       -2.094448   -0.811625   -0.032368
      9          1           0       -1.287123    1.808097    0.038915
 ---------------------------------------------------------------------

 SCF Done:  E(RAM1) =   1.73515754567     A.U. after   13 cycles

 Excitation energies and oscillator strengths:

 Excited State   1:      Singlet-A      5.4464 eV  227.65 nm  f=0.3326  <S**2>=0.000
      13 -> 14         0.69318
 This state for optimization and/or second-order correction.
 Total Energy, E(CIS) =   1.93530813583
 Copying the excited state density for this state as the 1-particle RhoCI density.

 Excited State   2:      Singlet-A      6.0624 eV  204.51 nm  f=0.0023  <S**2>=0.000
      11 -> 15         0.10385
      13 -> 15         0.66248
      13 -> 17         0.17041

 Excited State   3:      Singlet-A      6.3867 eV  194.13 nm  f=0.0010  <S**2>=0.000
      11 -> 16        -0.11438
      13 -> 16         0.65636
      13 -> 17         0.11799
      13 -> 19         0.14707

 Excited State   4:      Singlet-A      7.0886 eV  174.91 nm  f=0.0006  <S**2>=0.000
      12 -> 14         0.66875
      13 -> 21        -0.17621

 Excited State   5:      Singlet-A      7.5089 eV  165.12 nm  f=0.0118  <S**2>=0.000
      12 -> 14        -0.13268
      13 -> 15        -0.15611
      13 -> 17         0.54560
      13 -> 20        -0.17010
      13 -> 21        -0.32324

 Excited State   6:      Singlet-A      7.5651 eV  163.89 nm  f=0.0070  <S**2>=0.000
      12 -> 14         0.14395
      13 -> 16        -0.13255
      13 -> 17         0.36931
      13 -> 20         0.24417
      13 -> 21         0.49851

 Excited State   7:      Singlet-A      8.0937 eV  153.19 nm  f=0.0004  <S**2>=0.000
      10 -> 14         0.61674
      11 -> 14        -0.26893
      13 -> 18         0.16754

 Excited State   8:      Singlet-A      8.2761 eV  149.81 nm  f=0.0064  <S**2>=0.000
      10 -> 14        -0.13976
      13 -> 18         0.57444
      13 -> 19        -0.32675

 Excited State   9:      Singlet-A      8.4684 eV  146.41 nm  f=0.0168  <S**2>=0.000
      13 -> 18         0.34705
      13 -> 19         0.55920
      13 -> 20        -0.21480

 Excited State  10:      Singlet-A      8.7846 eV  141.14 nm  f=0.0611  <S**2>=0.000
      10 -> 14         0.26405
      11 -> 14         0.59673
      12 -> 15        -0.15500
      12 -> 16        -0.11394

 Excited State  11:      Singlet-A      9.0408 eV  137.14 nm  f=0.0733  <S**2>=0.000
      13 -> 19         0.21229
      13 -> 20         0.58587
      13 -> 21        -0.30303

 Excited State  12:      Singlet-A      9.1883 eV  134.94 nm  f=0.0549  <S**2>=0.000
       8 -> 15        -0.17265
      10 -> 17         0.21916
      12 -> 15         0.42629
      12 -> 16        -0.29910
      12 -> 18         0.16154
      12 -> 20        -0.11735
      12 -> 21        -0.20085

 Excited State  13:      Singlet-A      9.4699 eV  130.92 nm  f=0.0150  <S**2>=0.000
       7 -> 15        -0.10711
      11 -> 15         0.59768
      11 -> 16         0.10872
      11 -> 17         0.14154
      12 -> 15         0.13015
      13 -> 15        -0.11666

 Excited State  14:      Singlet-A      9.5833 eV  129.38 nm  f=0.0880  <S**2>=0.000
      10 -> 15        -0.28301
      10 -> 17        -0.12141
      10 -> 18        -0.10385
      11 -> 14         0.17705
      11 -> 15        -0.14758
      11 -> 16        -0.11753
      12 -> 15         0.42079
      12 -> 16         0.26115
      12 -> 17         0.10267
      12 -> 20         0.14213

 Excited State  15:      Singlet-A      9.7386 eV  127.31 nm  f=0.2685  <S**2>=0.000
       8 -> 16         0.11969
       9 -> 15         0.10164
      10 -> 15         0.28833
      10 -> 16         0.11458
      10 -> 17         0.22833
      11 -> 16        -0.17864
      12 -> 16         0.43670
      12 -> 17        -0.10713
      12 -> 18         0.10181
      12 -> 19         0.12397

 The electronic state is 1-A.
 Alpha  occ. eigenvalues --   -1.94898  -1.23990  -1.00765  -0.83099  -0.79596
 Alpha  occ. eigenvalues --   -0.68474  -0.66052  -0.54671  -0.51490  -0.43738
 Alpha  occ. eigenvalues --   -0.43030  -0.40696  -0.28371
 Alpha virt. eigenvalues --    0.12698   0.16050   0.17569   0.24066   0.26228
 Alpha virt. eigenvalues --    0.28169   0.28809   0.29026   0.40170   0.48596
 Alpha virt. eigenvalues --    0.53861

 Mulliken charges:
               1
     1  C   -0.110177
     2  C   -1.939133
     3  O    3.179695
     4  C   -1.952515
     5  C   -0.163178
     6  H    0.180579
     7  H    0.318571
     8  H    0.308636
     9  H    0.177521
 Sum of Mulliken charges =   0.00000

 Dipole moment (field-independent basis, Debye):
    X=              0.1130    Y=             -9.6962    Z=             -0.0891  Tot=              9.6973
 N-N= 1.050899378155D+02 E-N=-1.713130432871D+02  KE=-1.581913407569D+01
 Orbital energies and kinetic energies (alpha):
                                 1                 2
   1         O                -1.948979         -1.447133
   2         O                -1.239896         -1.102739
   3         O                -1.007652         -0.911810
   4         O                -0.830993         -0.629158
   5         O                -0.795956         -0.698726
   6         O                -0.684736         -0.578527
   7         O                -0.660523         -0.529799

 Normal termination of Gaussian 09 at Tue Dec 15 17:06:53 2015.
