 Gaussian 09, Revision D.01,
 Gaussian 09:  ES64L-G09RevD.01 24-Apr-2013

 ------------------------------------------------------------
 #P AM1(Input,print) CIS(Singlets,NStates=15) pop(full) force
 ------------------------------------------------------------

 -----------------
 AM1-Reparam Input
 -----------------
 Symbolic Z-matrix:
 Charge =  0 Multiplicity = 1

                         Standard orientation:
 ---------------------------------------------------------------------
 Center     Atomic      Atomic             Coordinates (Angstroms)
 Number     Number       Type             X           Y           Z
 ---------------------------------------------------------------------
      1          6           0        0.959612    0.811778    0.014553
      2          6           0        0.988970   -0.599361   -0.004518
      3          8           0       -0.284980   -1.155866    0.008552
      4          6           0       -1.119805   -0.053989   -0.024754
      5          6           0       -0.525720    1.073199    0.000333
      6          1           0       -0.919785    2.022008   -0.017033
      7          1           0       -2.191863   -0.412602    0.069901
      8          1           0        1.864087   -1.278295   -0.035103
      9          1           0        1.709057    1.526061    0.000133
 ---------------------------------------------------------------------

 SCF Done:  E(RAM1) =   2.73158253317     A.U. after   14 cycles

 Excitation energies and oscillator strengths:

 Excited State   1:      Singlet-A      4.9616 eV  249.89 nm  f=0.3522  <S**2>=0.000
      13 -> 14         0.68839
      13 -> 15        -0.11043
 This state for optimization and/or second-order correction.
 Total Energy, E(CIS) =   2.91391907637
 Copying the excited state density for this state as the 1-particle RhoCI density.

 Excited State   2:      Singlet-A      5.1342 eV  241.49 nm  f=0.0183  <S**2>=0.000
      13 -> 14         0.11397
      13 -> 15         0.67669
      13 -> 18         0.10497

 Excited State   3:      Singlet-A      5.8815 eV  210.81 nm  f=0.0009  <S**2>=0.000
      11 -> 16        -0.10940
      13 -> 16         0.65885
      13 -> 17         0.18132

 Excited State   4:      Singlet-A      6.4332 eV  192.73 nm  f=0.0001  <S**2>=0.000
      12 -> 14         0.69812

 Excited State   5:      Singlet-A      7.2049 eV  172.08 nm  f=0.0001  <S**2>=0.000
      13 -> 16         0.15023
      13 -> 17        -0.28158
      13 -> 18         0.52311
      13 -> 20        -0.20739
      13 -> 21         0.24351

 Excited State   6:      Singlet-A      7.5206 eV  164.86 nm  f=0.0166  <S**2>=0.000
      13 -> 16        -0.10030
      13 -> 17         0.60170
      13 -> 18         0.32084

 Excited State   7:      Singlet-A      8.1987 eV  151.22 nm  f=0.0680  <S**2>=0.000
       8 -> 15        -0.12292
      10 -> 14         0.46909
      11 -> 14        -0.16049
      12 -> 15        -0.41092
      13 -> 19        -0.15723

 Excited State   8:      Singlet-A      8.2135 eV  150.95 nm  f=0.0049  <S**2>=0.000
      10 -> 14         0.31603
      13 -> 19         0.59777
      13 -> 21         0.11802

 Excited State   9:      Singlet-A      8.2177 eV  150.87 nm  f=0.0767  <S**2>=0.000
       8 -> 15         0.12828
      10 -> 14         0.38778
      11 -> 14         0.17634
      12 -> 15         0.43150
      13 -> 19        -0.27000

 Excited State  10:      Singlet-A      8.7159 eV  142.25 nm  f=0.0110  <S**2>=0.000
      13 -> 18         0.29629
      13 -> 19         0.14123
      13 -> 20         0.47999
      13 -> 21        -0.36998

 Excited State  11:      Singlet-A      8.7985 eV  140.92 nm  f=0.1797  <S**2>=0.000
       8 -> 16        -0.10510
      11 -> 14         0.61720
      12 -> 15        -0.20991
      12 -> 16         0.19817

 Excited State  12:      Singlet-A      9.1693 eV  135.22 nm  f=0.0248  <S**2>=0.000
       8 -> 16        -0.11173
       9 -> 15        -0.13802
      10 -> 15        -0.18649
      10 -> 17        -0.16589
      10 -> 18        -0.10876
      12 -> 15         0.20058
      12 -> 16         0.41522
      12 -> 17         0.21957
      12 -> 18        -0.21046
      13 -> 20        -0.11673
      13 -> 21        -0.13363

 Excited State  13:      Singlet-A      9.1923 eV  134.88 nm  f=0.0846  <S**2>=0.000
      12 -> 16         0.11986
      13 -> 20         0.43658
      13 -> 21         0.49995

 Excited State  14:      Singlet-A      9.3476 eV  132.64 nm  f=0.0054  <S**2>=0.000
       7 -> 15        -0.16420
      11 -> 15         0.66028
      13 -> 15        -0.11430

 Excited State  15:      Singlet-A      9.6273 eV  128.78 nm  f=0.1484  <S**2>=0.000
       8 -> 16        -0.17533
       9 -> 15         0.13749
      10 -> 15         0.18537
      10 -> 17         0.15145
      10 -> 19        -0.10471
      11 -> 14        -0.18370
      11 -> 16        -0.17743
      12 -> 16         0.36588
      12 -> 17        -0.22570
      12 -> 18         0.15903
      12 -> 19         0.20069
      12 -> 20        -0.11295

 The electronic state is 1-A.
 Alpha  occ. eigenvalues --   -1.74077  -1.12145  -0.91652  -0.79114  -0.73429
 Alpha  occ. eigenvalues --   -0.65708  -0.61892  -0.51851  -0.49056  -0.43873
 Alpha  occ. eigenvalues --   -0.42320  -0.37927  -0.25253
 Alpha virt. eigenvalues --    0.12641   0.15202   0.18647   0.26986   0.28433
 Alpha virt. eigenvalues --    0.30205   0.31656   0.32823   0.45757   0.55260
 Alpha virt. eigenvalues --    0.58308

 Mulliken charges:
               1
     1  C   -0.094216
     2  C   -2.007023
     3  O    3.332877
     4  C   -1.909255
     5  C   -0.054535
     6  H    0.111287
     7  H    0.235953
     8  H    0.270116
     9  H    0.114796
 Sum of Mulliken charges =   0.00000

 Dipole moment (field-independent basis, Debye):
    X=             -3.3699    Y=            -11.5745    Z=              0.4013  Tot=             12.0618
 N-N= 1.030447724022D+02 E-N=-1.676514327641D+02  KE=-1.480898038114D+01
 Orbital energies and kinetic energies (alpha):
                                 1                 2
   1         O                -1.740773         -1.219485
   2         O                -1.121453         -1.003772
   3         O                -0.916518         -0.855206
   4         O                -0.791140         -0.589521
   5         O                -0.734288         -0.668967
   6         O                -0.657080         -0.564225
   7         O                -0.618924         -0.514693

 Normal termination of Gaussian 09 at Tue Dec 15 17:05:24 2015.
