 Gaussian 09, Revision D.01,
 Gaussian 09:  ES64L-G09RevD.01 24-Apr-2013

 -------------------------------------------------------
 #P B3LYP/3-21G CIS(Singlets,NStates=15) pop(full) force
 -------------------------------------------------------

 --------
 FuranDFT
 --------
 Symbolic Z-matrix:
 Charge =  0 Multiplicity = 1

                         Standard orientation:
 ---------------------------------------------------------------------
 Center     Atomic      Atomic             Coordinates (Angstroms)
 Number     Number       Type             X           Y           Z
 ---------------------------------------------------------------------
      1          6           0       -0.600845    1.011082   -0.011114
      2          6           0       -1.134477   -0.269980   -0.037861
      3          8           0       -0.093479   -1.155839    0.034801
      4          6           0        1.096304   -0.450574   -0.034439
      5          6           0        0.759577    0.910126    0.013513
      6          1           0        1.468851    1.740545    0.047492
      7          1           0        1.958711   -0.939815   -0.005863
      8          1           0       -2.157857   -0.646201    0.045303
      9          1           0       -1.245235    1.888258    0.054067
 ---------------------------------------------------------------------

 SCF Done:  E(RB3LYP) =  -228.738389620     A.U. after   14 cycles

 Excitation energies and oscillator strengths:

 Excited State   1:      Singlet-A      6.9256 eV  179.02 nm  f=0.2375  <S**2>=0.000
      17 -> 19         0.11757
      18 -> 19         0.66448
 This state for optimization and/or second-order correction.
 Total Energy, E(CIS) =  -228.483878832
 Copying the excited state density for this state as the 1-particle RhoCI density.

 Excited State   2:      Singlet-A      7.0703 eV  175.36 nm  f=0.0137  <S**2>=0.000
      17 -> 19         0.51436
      18 -> 19        -0.14587
      18 -> 20         0.44941

 Excited State   3:      Singlet-A      8.2554 eV  150.19 nm  f=0.0080  <S**2>=0.000
      16 -> 19         0.69382
      18 -> 20        -0.10336

 Excited State   4:      Singlet-A      8.3653 eV  148.21 nm  f=0.0006  <S**2>=0.000
      18 -> 21         0.67509
      18 -> 22        -0.19282

 Excited State   5:      Singlet-A      8.8212 eV  140.55 nm  f=0.0011  <S**2>=0.000
      18 -> 21         0.19230
      18 -> 22         0.66959

 Excited State   6:      Singlet-A      9.4127 eV  131.72 nm  f=0.5030  <S**2>=0.000
      16 -> 19         0.10156
      17 -> 19        -0.41903
      18 -> 20         0.48835

 Excited State   7:      Singlet-A      9.6409 eV  128.60 nm  f=0.0116  <S**2>=0.000
      15 -> 19         0.66058
      16 -> 20         0.17410
      17 -> 20         0.14178

 Excited State   8:      Singlet-A      9.8689 eV  125.63 nm  f=0.0192  <S**2>=0.000
      17 -> 20        -0.19306
      17 -> 21         0.58480
      18 -> 24        -0.31011

 Excited State   9:      Singlet-A      9.8997 eV  125.24 nm  f=0.1636  <S**2>=0.000
      15 -> 19        -0.16454
      17 -> 20         0.60987
      17 -> 21         0.22471

 Excited State  10:      Singlet-A     10.0396 eV  123.50 nm  f=0.0182  <S**2>=0.000
      14 -> 19         0.34248
      17 -> 20        -0.13024
      17 -> 21         0.24035
      18 -> 23         0.31119
      18 -> 24         0.42554

 Excited State  11:      Singlet-A     10.1199 eV  122.52 nm  f=0.0012  <S**2>=0.000
      14 -> 19         0.53028
      17 -> 21        -0.14283
      17 -> 22         0.11609
      18 -> 23         0.11158
      18 -> 24        -0.40897

 Excited State  12:      Singlet-A     10.2149 eV  121.38 nm  f=0.0049  <S**2>=0.000
      14 -> 19        -0.28638
      18 -> 23         0.60956
      18 -> 24        -0.16700

 Excited State  13:      Singlet-A     10.3702 eV  119.56 nm  f=0.0197  <S**2>=0.000
      17 -> 21         0.13470
      17 -> 22         0.67208
      18 -> 24         0.10673

 Excited State  14:      Singlet-A     10.6096 eV  116.86 nm  f=0.0163  <S**2>=0.000
      15 -> 19        -0.14837
      16 -> 20         0.66995
      17 -> 20        -0.11051

 Excited State  15:      Singlet-A     10.7424 eV  115.42 nm  f=0.0033  <S**2>=0.000
      18 -> 25         0.68885

 The electronic state is 1-A.
 Alpha  occ. eigenvalues --  -19.11436 -10.17802 -10.17157 -10.12611 -10.12223
 Alpha  occ. eigenvalues --   -1.11722  -0.80614  -0.74557  -0.59341  -0.58329
 Alpha  occ. eigenvalues --   -0.53995  -0.46040  -0.44258  -0.41640  -0.40110
 Alpha  occ. eigenvalues --   -0.35518  -0.28181  -0.22444
 Alpha virt. eigenvalues --    0.00855   0.08411   0.13103   0.14150   0.18757
 Alpha virt. eigenvalues --    0.19113   0.21774   0.23079   0.33887   0.40925
 Alpha virt. eigenvalues --    0.48212   0.67547   0.70122   0.72413   0.74045

 Mulliken charges:
               1
     1  C   -0.248213
     2  C    0.088197
     3  O   -0.481175
     4  C    0.068701
     5  C   -0.243211
     6  H    0.186578
     7  H    0.222893
     8  H    0.218568
     9  H    0.187663
 Sum of Mulliken charges =   0.00000

 Dipole moment (field-independent basis, Debye):
    X=              0.0166    Y=              0.6972    Z=              0.1310  Tot=              0.7095
 Quadrupole moment (field-independent basis, Debye-Ang):
   XX=            -23.2615   YY=            -28.2699   ZZ=            -31.8240
   XY=             -0.3733   XZ=             -0.1576   YZ=              0.2070

 Normal termination of Gaussian 09 at Tue Dec 15 16:18:04 2015.
