 Gaussian 09, Revision D.01,
 Gaussian 09:  ES64L-G09RevD.01 24-Apr-2013

 ------------------------------------------------------------
 #P AM1(Input,print) CIS(Singlets,NStates=15) pop(full) force
 ------------------------------------------------------------

 -----------------
 AM1-Reparam Input
 -----------------
 Symbolic Z-matrix:
 Charge =  0 Multiplicity = 1

                         Standard orientation:
 ---------------------------------------------------------------------
 Center     Atomic      Atomic             Coordinates (Angstroms)
 Number     Number       Type             X           Y           Z
 ---------------------------------------------------------------------
      1          6           0        0.070270    1.220215    0.033094
      2          6           0        1.095662    0.248151    0.007007
      3          8           0        0.629743   -0.973439   -0.014514
      4          6           0       -0.702132   -0.852046    0.007143
      5          6           0       -1.140103    0.409482   -0.025611
      6          1           0       -2.147956    0.807186   -0.000010
      7          1           0       -1.313116   -1.781554    0.064889
      8          1           0        2.230622    0.359411   -0.013713
      9          1           0        0.250327    2.247660   -0.064854
 ---------------------------------------------------------------------

 SCF Done:  E(RAM1) =   2.67589559222     A.U. after   14 cycles

 Excitation energies and oscillator strengths:

 Excited State   1:      Singlet-A      5.3150 eV  233.27 nm  f=0.3570  <S**2>=0.000
      13 -> 14         0.69469
 This state for optimization and/or second-order correction.
 Total Energy, E(CIS) =   2.87121785547
 Copying the excited state density for this state as the 1-particle RhoCI density.

 Excited State   2:      Singlet-A      5.9711 eV  207.64 nm  f=0.0016  <S**2>=0.000
      11 -> 15        -0.12023
      13 -> 15         0.66225
      13 -> 17        -0.17299

 Excited State   3:      Singlet-A      6.0762 eV  204.05 nm  f=0.0036  <S**2>=0.000
      11 -> 16         0.12120
      13 -> 16         0.67134
      13 -> 18        -0.10294

 Excited State   4:      Singlet-A      6.8133 eV  181.97 nm  f=0.0006  <S**2>=0.000
       9 -> 14        -0.13266
      12 -> 14         0.68937

 Excited State   5:      Singlet-A      7.5781 eV  163.61 nm  f=0.0092  <S**2>=0.000
      10 -> 14        -0.11686
      11 -> 15        -0.11194
      13 -> 15         0.17025
      13 -> 17         0.59594
      13 -> 18        -0.19223
      13 -> 21         0.19412

 Excited State   6:      Singlet-A      7.8033 eV  158.89 nm  f=0.0102  <S**2>=0.000
      10 -> 14        -0.12641
      13 -> 16         0.11735
      13 -> 17         0.25995
      13 -> 18         0.50465
      13 -> 19        -0.10495
      13 -> 21        -0.34446

 Excited State   7:      Singlet-A      8.0160 eV  154.67 nm  f=0.0007  <S**2>=0.000
      10 -> 14         0.66667
      11 -> 14         0.11493
      13 -> 17         0.15373

 Excited State   8:      Singlet-A      8.4290 eV  147.09 nm  f=0.0003  <S**2>=0.000
      13 -> 18         0.12117
      13 -> 19         0.66967

 Excited State   9:      Singlet-A      8.6486 eV  143.36 nm  f=0.0637  <S**2>=0.000
       8 -> 16         0.10598
      10 -> 14        -0.10379
      11 -> 14         0.61382
      12 -> 16        -0.24209

 Excited State  10:      Singlet-A      8.9305 eV  138.83 nm  f=0.0914  <S**2>=0.000
       8 -> 15         0.13668
       8 -> 16         0.11511
      10 -> 17        -0.11205
      11 -> 14        -0.14874
      12 -> 15         0.34577
      12 -> 16        -0.30380
      12 -> 18         0.12517
      13 -> 18         0.24051
      13 -> 20        -0.14307
      13 -> 21         0.29006

 Excited State  11:      Singlet-A      8.9533 eV  138.48 nm  f=0.0493  <S**2>=0.000
      11 -> 14         0.13914
      12 -> 15        -0.25473
      12 -> 16         0.21229
      13 -> 18         0.32990
      13 -> 20        -0.12246
      13 -> 21         0.43585

 Excited State  12:      Singlet-A      9.2805 eV  133.60 nm  f=0.0478  <S**2>=0.000
       9 -> 15        -0.10993
      10 -> 15         0.17005
      11 -> 15         0.51674
      12 -> 15        -0.22961
      13 -> 15         0.10195
      13 -> 20        -0.25058

 Excited State  13:      Singlet-A      9.3247 eV  132.96 nm  f=0.0758  <S**2>=0.000
      10 -> 15        -0.11883
      11 -> 14         0.18956
      11 -> 15         0.20499
      12 -> 15         0.38545
      12 -> 16         0.41024
      13 -> 20        -0.16886

 Excited State  14:      Singlet-A      9.3845 eV  132.12 nm  f=0.0638  <S**2>=0.000
      11 -> 15         0.29075
      11 -> 16         0.10245
      13 -> 20         0.55258
      13 -> 21         0.21185

 Excited State  15:      Singlet-A      9.4663 eV  130.97 nm  f=0.0619  <S**2>=0.000
       9 -> 15        -0.18586
       9 -> 16         0.12535
      10 -> 15         0.33002
      10 -> 16         0.19129
      10 -> 17        -0.26774
      11 -> 15        -0.15278
      12 -> 16         0.24063
      12 -> 18         0.19430
      12 -> 21        -0.10065
      13 -> 20         0.19628

 The electronic state is 1-A.
 Alpha  occ. eigenvalues --   -1.77286  -1.12779  -0.92030  -0.80149  -0.72990
 Alpha  occ. eigenvalues --   -0.65595  -0.63627  -0.52757  -0.47880  -0.43795
 Alpha  occ. eigenvalues --   -0.42707  -0.39726  -0.27744
 Alpha virt. eigenvalues --    0.12139   0.16094   0.16910   0.24921   0.27513
 Alpha virt. eigenvalues --    0.28478   0.30497   0.31699   0.50394   0.59411
 Alpha virt. eigenvalues --    0.63118

 Mulliken charges:
               1
     1  C   -0.081364
     2  C   -2.025637
     3  O    3.323726
     4  C   -1.994669
     5  C   -0.017488
     6  H    0.113735
     7  H    0.282311
     8  H    0.280128
     9  H    0.119259
 Sum of Mulliken charges =   0.00000

 Dipole moment (field-independent basis, Debye):
    X=              5.5961    Y=             -9.1631    Z=             -0.2939  Tot=             10.7408
 N-N= 1.037422775321D+02 E-N=-1.688978730828D+02  KE=-1.485362148609D+01
 Orbital energies and kinetic energies (alpha):
                                 1                 2
   1         O                -1.772860         -1.282921
   2         O                -1.127787         -1.004211
   3         O                -0.920301         -0.843563
   4         O                -0.801494         -0.593141
   5         O                -0.729900         -0.672731
   6         O                -0.655949         -0.566136
   7         O                -0.636268         -0.521205

 Normal termination of Gaussian 09 at Tue Dec 15 17:05:25 2015.
