 Gaussian 09, Revision D.01,
 Gaussian 09:  ES64L-G09RevD.01 24-Apr-2013

 ------------------------------------------------------------
 #P AM1(Input,print) CIS(Singlets,NStates=15) pop(full) force
 ------------------------------------------------------------

 -----------------
 AM1-Reparam Input
 -----------------
 Symbolic Z-matrix:
 Charge =  0 Multiplicity = 1

                         Standard orientation:
 ---------------------------------------------------------------------
 Center     Atomic      Atomic             Coordinates (Angstroms)
 Number     Number       Type             X           Y           Z
 ---------------------------------------------------------------------
      1          6           0        1.007904    0.735301   -0.010651
      2          6           0        0.916886   -0.666669   -0.015906
      3          8           0       -0.356045   -1.062698    0.009082
      4          6           0       -1.117933   -0.040962   -0.017816
      5          6           0       -0.431617    1.100602    0.019935
      6          1           0       -0.735326    2.120375   -0.047185
      7          1           0       -2.221389   -0.217233    0.035419
      8          1           0        1.722424   -1.466074    0.028507
      9          1           0        1.831221    1.294886    0.057225
 ---------------------------------------------------------------------

 SCF Done:  E(RAM1) =   1.10074731522     A.U. after   14 cycles

 Excitation energies and oscillator strengths:

 Excited State   1:      Singlet-A      5.4319 eV  228.25 nm  f=0.2473  <S**2>=0.000
      12 -> 17         0.11793
      13 -> 14         0.68598
 This state for optimization and/or second-order correction.
 Total Energy, E(CIS) =   1.30036770354
 Copying the excited state density for this state as the 1-particle RhoCI density.

 Excited State   2:      Singlet-A      6.4446 eV  192.38 nm  f=0.0057  <S**2>=0.000
      13 -> 15         0.66293
      13 -> 16         0.14635
      13 -> 19        -0.16910

 Excited State   3:      Singlet-A      6.7265 eV  184.32 nm  f=0.0006  <S**2>=0.000
      13 -> 15        -0.12927
      13 -> 16         0.63451
      13 -> 18        -0.22981
      13 -> 20        -0.12395

 Excited State   4:      Singlet-A      7.0286 eV  176.40 nm  f=0.0003  <S**2>=0.000
       9 -> 14         0.12928
      10 -> 14        -0.15261
      11 -> 14         0.67347

 Excited State   5:      Singlet-A      7.2132 eV  171.88 nm  f=0.0168  <S**2>=0.000
      12 -> 14         0.58248
      13 -> 17        -0.38602

 Excited State   6:      Singlet-A      7.9890 eV  155.19 nm  f=0.0001  <S**2>=0.000
      12 -> 15        -0.14353
      12 -> 16        -0.12624
      13 -> 16         0.17074
      13 -> 18         0.60157
      13 -> 19        -0.13046
      13 -> 20        -0.10168
      13 -> 22        -0.16582

 Excited State   7:      Singlet-A      8.1328 eV  152.45 nm  f=0.0124  <S**2>=0.000
       9 -> 14         0.35676
      10 -> 14         0.56794
      13 -> 17        -0.12981

 Excited State   8:      Singlet-A      8.2810 eV  149.72 nm  f=0.2492  <S**2>=0.000
      10 -> 14         0.12163
      12 -> 14         0.37080
      13 -> 17         0.54609

 Excited State   9:      Singlet-A      8.5145 eV  145.62 nm  f=0.0027  <S**2>=0.000
      12 -> 15         0.58324
      12 -> 16         0.28209
      12 -> 19        -0.10763
      13 -> 18         0.13458

 Excited State  10:      Singlet-A      8.8332 eV  140.36 nm  f=0.0030  <S**2>=0.000
      12 -> 15        -0.26260
      12 -> 16         0.53843
      13 -> 19        -0.32533

 Excited State  11:      Singlet-A      8.9376 eV  138.72 nm  f=0.0059  <S**2>=0.000
       9 -> 14         0.49981
       9 -> 15        -0.10249
      10 -> 14        -0.33556
      11 -> 14        -0.17139
      11 -> 15         0.16166
      11 -> 17         0.14679

 Excited State  12:      Singlet-A      8.9711 eV  138.20 nm  f=0.0146  <S**2>=0.000
       9 -> 14        -0.23452
       9 -> 15        -0.22796
      10 -> 14         0.10828
      10 -> 15         0.11400
      10 -> 17         0.11388
      11 -> 15         0.42400
      11 -> 16         0.11945
      11 -> 17         0.18808
      11 -> 19        -0.11607
      12 -> 17        -0.11441
      13 -> 20         0.11621
      13 -> 21        -0.15835

 Excited State  13:      Singlet-A      9.0772 eV  136.59 nm  f=0.0178  <S**2>=0.000
       9 -> 14        -0.14516
       9 -> 17        -0.13980
      10 -> 17         0.23619
      11 -> 15        -0.16450
      11 -> 17         0.46420
      12 -> 17        -0.10094
      13 -> 20        -0.17794
      13 -> 21         0.24751

 Excited State  14:      Singlet-A      9.1028 eV  136.20 nm  f=0.0074  <S**2>=0.000
       9 -> 15        -0.10729
      10 -> 17        -0.10513
      11 -> 15         0.22197
      11 -> 17        -0.20988
      13 -> 20        -0.28976
      13 -> 21         0.48777
      13 -> 23         0.11807

 Excited State  15:      Singlet-A      9.1841 eV  135.00 nm  f=0.0329  <S**2>=0.000
       8 -> 15         0.12068
       9 -> 15         0.17962
       9 -> 16        -0.10886
      10 -> 16         0.20955
      11 -> 15         0.18339
      11 -> 16        -0.20323
      11 -> 17         0.14306
      11 -> 18         0.24611
      12 -> 17         0.41136

 The electronic state is 1-A.
 Alpha  occ. eigenvalues --   -1.87002  -1.18722  -0.99799  -0.88736  -0.79459
 Alpha  occ. eigenvalues --   -0.74410  -0.73115  -0.60908  -0.55250  -0.53394
 Alpha  occ. eigenvalues --   -0.49854  -0.47774  -0.38495
 Alpha virt. eigenvalues --    0.02337   0.08786   0.10182   0.12168   0.17558
 Alpha virt. eigenvalues --    0.18725   0.20788   0.21434   0.26601   0.27303
 Alpha virt. eigenvalues --    0.30081

 Mulliken charges:
               1
     1  C   -0.071696
     2  C   -1.304769
     3  O    2.164587
     4  C   -1.276843
     5  C   -0.166802
     6  H    0.113659
     7  H    0.231361
     8  H    0.219579
     9  H    0.090925
 Sum of Mulliken charges =   0.00000

 Dipole moment (field-independent basis, Debye):
    X=             -2.4298    Y=             -6.4259    Z=              0.3376  Tot=              6.8782
 N-N= 1.048082891144D+02 E-N=-1.718334223598D+02  KE=-1.504332825464D+01
 Orbital energies and kinetic energies (alpha):
                                 1                 2
   1         O                -1.870021         -1.288325
   2         O                -1.187218         -0.965182
   3         O                -0.997994         -0.784413
   4         O                -0.887356         -0.659127
   5         O                -0.794591         -0.662955
   6         O                -0.744097         -0.585009
   7         O                -0.731147         -0.531479

 Normal termination of Gaussian 09 at Tue Dec 15 17:05:39 2015.
