 Gaussian 09, Revision D.01,
 Gaussian 09:  ES64L-G09RevD.01 24-Apr-2013

 ------------------------------------------------------------
 #P AM1(Input,print) CIS(Singlets,NStates=15) pop(full) force
 ------------------------------------------------------------

 -----------------
 AM1-Reparam Input
 -----------------
 Symbolic Z-matrix:
 Charge =  0 Multiplicity = 1

                         Standard orientation:
 ---------------------------------------------------------------------
 Center     Atomic      Atomic             Coordinates (Angstroms)
 Number     Number       Type             X           Y           Z
 ---------------------------------------------------------------------
      1          6           0       -1.113238    0.442806   -0.004783
      2          6           0       -0.750595   -0.836111    0.021280
      3          8           0        0.627596   -1.017490   -0.014962
      4          6           0        1.104850    0.268298    0.003039
      5          6           0        0.107970    1.210609   -0.013149
      6          1           0        0.178041    2.208215    0.024157
      7          1           0        2.205136    0.340432    0.057520
      8          1           0       -1.369346   -1.803414   -0.005826
      9          1           0       -2.128520    0.881079    0.005513
 ---------------------------------------------------------------------

 SCF Done:  E(RAM1) =   1.75168489386     A.U. after   14 cycles

 Excitation energies and oscillator strengths:

 Excited State   1:      Singlet-A      5.3997 eV  229.61 nm  f=0.3720  <S**2>=0.000
      13 -> 14         0.69559
 This state for optimization and/or second-order correction.
 Total Energy, E(CIS) =   1.95011939332
 Copying the excited state density for this state as the 1-particle RhoCI density.

 Excited State   2:      Singlet-A      6.7849 eV  182.74 nm  f=0.0000  <S**2>=0.000
      13 -> 15         0.66091
      13 -> 16        -0.14947
      13 -> 18         0.13598

 Excited State   3:      Singlet-A      6.9434 eV  178.56 nm  f=0.0016  <S**2>=0.000
      12 -> 14         0.11242
      13 -> 15         0.15625
      13 -> 16         0.64972
      13 -> 17        -0.13389

 Excited State   4:      Singlet-A      6.9731 eV  177.80 nm  f=0.0005  <S**2>=0.000
      12 -> 14         0.69323
      13 -> 16        -0.10866

 Excited State   5:      Singlet-A      8.0832 eV  153.38 nm  f=0.0073  <S**2>=0.000
      11 -> 14         0.69942

 Excited State   6:      Singlet-A      8.6605 eV  143.16 nm  f=0.0001  <S**2>=0.000
      13 -> 17         0.41273
      13 -> 18         0.49965
      13 -> 22        -0.21551

 Excited State   7:      Singlet-A      9.0582 eV  136.88 nm  f=0.0132  <S**2>=0.000
      13 -> 17         0.53318
      13 -> 18        -0.42621

 Excited State   8:      Singlet-A      9.2894 eV  133.47 nm  f=0.0593  <S**2>=0.000
      10 -> 14         0.63800
      12 -> 15        -0.18582
      13 -> 20         0.13055

 Excited State   9:      Singlet-A      9.6329 eV  128.71 nm  f=0.1272  <S**2>=0.000
       9 -> 16        -0.14506
      10 -> 14         0.17430
      11 -> 17         0.11712
      11 -> 18        -0.10466
      12 -> 15         0.48896
      12 -> 16        -0.25861
      12 -> 17         0.14719
      12 -> 18         0.21636

 Excited State  10:      Singlet-A      9.6804 eV  128.08 nm  f=0.0064  <S**2>=0.000
      13 -> 19         0.68280
      13 -> 21         0.10611

 Excited State  11:      Singlet-A     10.2175 eV  121.34 nm  f=0.0490  <S**2>=0.000
       9 -> 15        -0.10430
      10 -> 14         0.13882
      11 -> 15         0.17976
      11 -> 18         0.11750
      12 -> 15         0.37883
      12 -> 16         0.46809
      12 -> 17        -0.16819

 Excited State  12:      Singlet-A     10.5135 eV  117.93 nm  f=0.1978  <S**2>=0.000
       8 -> 15        -0.10230
      11 -> 15        -0.17694
      11 -> 16        -0.30651
      11 -> 17         0.22127
      11 -> 18        -0.11652
      12 -> 15        -0.15660
      12 -> 16         0.34341
      12 -> 17         0.20429
      12 -> 18         0.19224
      12 -> 19        -0.15318

 Excited State  13:      Singlet-A     10.5916 eV  117.06 nm  f=0.0690  <S**2>=0.000
      13 -> 18         0.12684
      13 -> 20        -0.15461
      13 -> 21         0.55561
      13 -> 22         0.30618

 Excited State  14:      Singlet-A     10.7055 eV  115.81 nm  f=0.0657  <S**2>=0.000
      10 -> 14        -0.13709
      11 -> 15         0.22376
      11 -> 16        -0.17759
      13 -> 20         0.57875
      13 -> 22         0.10637

 Excited State  15:      Singlet-A     10.7904 eV  114.90 nm  f=0.0229  <S**2>=0.000
       9 -> 14        -0.10042
      10 -> 15         0.22806
      10 -> 16         0.11387
      13 -> 18         0.16162
      13 -> 21        -0.31653
      13 -> 22         0.52102

 The electronic state is 1-A.
 Alpha  occ. eigenvalues --   -1.89434  -1.17134  -0.90394  -0.80835  -0.77770
 Alpha  occ. eigenvalues --   -0.69370  -0.66503  -0.54945  -0.54019  -0.45688
 Alpha  occ. eigenvalues --   -0.44200  -0.40511  -0.28789
 Alpha virt. eigenvalues --    0.11916   0.18207   0.19033   0.28381   0.29905
 Alpha virt. eigenvalues --    0.31608   0.33064   0.34481   0.37223   0.42455
 Alpha virt. eigenvalues --    0.44939

 Mulliken charges:
               1
     1  C   -0.138806
     2  C   -1.991172
     3  O    3.280268
     4  C   -2.004199
     5  C   -0.198279
     6  H    0.201030
     7  H    0.324659
     8  H    0.329993
     9  H    0.196506
 Sum of Mulliken charges =   0.00000

 Dipole moment (field-independent basis, Debye):
    X=              5.7735    Y=            -10.1601    Z=             -0.2794  Tot=             11.6893
 N-N= 1.034332188577D+02 E-N=-1.687138403369D+02  KE=-1.545739943075D+01
 Orbital energies and kinetic energies (alpha):
                                 1                 2
   1         O                -1.894337         -1.346276
   2         O                -1.171340         -1.067054
   3         O                -0.903941         -0.889220
   4         O                -0.808353         -0.564542
   5         O                -0.777702         -0.673328
   6         O                -0.693700         -0.601150
   7         O                -0.665029         -0.537045

 Normal termination of Gaussian 09 at Tue Dec 15 17:09:41 2015.
