 Gaussian 09, Revision D.01,
 Gaussian 09:  ES64L-G09RevD.01 24-Apr-2013

 ------------------------------------------------------------
 #P AM1(Input,print) CIS(Singlets,NStates=15) pop(full) force
 ------------------------------------------------------------

 -----------------
 AM1-Reparam Input
 -----------------
 Symbolic Z-matrix:
 Charge =  0 Multiplicity = 1

                         Standard orientation:
 ---------------------------------------------------------------------
 Center     Atomic      Atomic             Coordinates (Angstroms)
 Number     Number       Type             X           Y           Z
 ---------------------------------------------------------------------
      1          6           0       -0.947164    0.716686   -0.010814
      2          6           0       -1.014519   -0.569908    0.008926
      3          8           0        0.305405   -1.133132   -0.007615
      4          6           0        1.159974   -0.111578   -0.002272
      5          6           0        0.462598    1.147134    0.014043
      6          1           0        0.936790    2.101913   -0.021668
      7          1           0        2.235390   -0.305277    0.012470
      8          1           0       -1.786927   -1.281373    0.020675
      9          1           0       -1.793824    1.455788   -0.009853
 ---------------------------------------------------------------------

 SCF Done:  E(RAM1) =   2.81943225501     A.U. after   14 cycles

 Excitation energies and oscillator strengths:

 Excited State   1:      Singlet-A      5.1261 eV  241.87 nm  f=0.3526  <S**2>=0.000
      13 -> 14         0.69693
 This state for optimization and/or second-order correction.
 Total Energy, E(CIS) =   3.00781412345
 Copying the excited state density for this state as the 1-particle RhoCI density.

 Excited State   2:      Singlet-A      6.1331 eV  202.15 nm  f=0.0038  <S**2>=0.000
      13 -> 15         0.63223
      13 -> 17         0.26442
      13 -> 18         0.10712

 Excited State   3:      Singlet-A      6.5529 eV  189.20 nm  f=0.0009  <S**2>=0.000
      12 -> 14         0.69003

 Excited State   4:      Singlet-A      6.6711 eV  185.85 nm  f=0.0017  <S**2>=0.000
      11 -> 16         0.10774
      12 -> 14        -0.10377
      13 -> 16         0.63762
      13 -> 19         0.21630

 Excited State   5:      Singlet-A      7.5222 eV  164.83 nm  f=0.0023  <S**2>=0.000
      10 -> 14         0.10592
      11 -> 15         0.10997
      13 -> 15        -0.22078
      13 -> 17         0.46134
      13 -> 19        -0.27806
      13 -> 20         0.28214
      13 -> 21        -0.20144

 Excited State   6:      Singlet-A      7.8110 eV  158.73 nm  f=0.0159  <S**2>=0.000
      10 -> 14         0.15064
      13 -> 15        -0.12253
      13 -> 16        -0.16507
      13 -> 17         0.40727
      13 -> 19         0.39373
      13 -> 20        -0.20411
      13 -> 21         0.23520

 Excited State   7:      Singlet-A      7.9300 eV  156.35 nm  f=0.0005  <S**2>=0.000
      10 -> 14         0.66204
      13 -> 17        -0.17348

 Excited State   8:      Singlet-A      8.3863 eV  147.84 nm  f=0.0011  <S**2>=0.000
      13 -> 16         0.12111
      13 -> 18         0.65791
      13 -> 21         0.13164

 Excited State   9:      Singlet-A      8.6040 eV  144.10 nm  f=0.0603  <S**2>=0.000
      11 -> 14         0.64664
      12 -> 16        -0.14036
      12 -> 17         0.11853

 Excited State  10:      Singlet-A      8.8213 eV  140.55 nm  f=0.0002  <S**2>=0.000
      13 -> 19         0.42367
      13 -> 20         0.52771
      13 -> 21        -0.12082

 Excited State  11:      Singlet-A      9.2481 eV  134.06 nm  f=0.0863  <S**2>=0.000
      13 -> 18        -0.14690
      13 -> 19        -0.13757
      13 -> 20         0.27166
      13 -> 21         0.58503

 Excited State  12:      Singlet-A      9.3586 eV  132.48 nm  f=0.1212  <S**2>=0.000
       8 -> 15         0.10216
      10 -> 17         0.13798
      10 -> 19         0.11442
      11 -> 14        -0.18315
      12 -> 15         0.39519
      12 -> 16        -0.26812
      12 -> 17         0.22343
      12 -> 19        -0.22357
      13 -> 21         0.12833

 Excited State  13:      Singlet-A      9.7130 eV  127.65 nm  f=0.0703  <S**2>=0.000
      11 -> 14         0.11822
      12 -> 15         0.35751
      12 -> 16         0.52698
      12 -> 17         0.11529

 Excited State  14:      Singlet-A      9.8328 eV  126.09 nm  f=0.0062  <S**2>=0.000
       7 -> 15         0.13622
       9 -> 14         0.23895
      11 -> 15         0.60282
      13 -> 15         0.12579

 Excited State  15:      Singlet-A      9.8658 eV  125.67 nm  f=0.0866  <S**2>=0.000
       9 -> 14         0.49398
      10 -> 15        -0.27033
      10 -> 17        -0.18619
      11 -> 15        -0.12167
      12 -> 15         0.16395
      12 -> 16        -0.15561
      12 -> 18         0.14693
      12 -> 19         0.10543

 The electronic state is 1-A.
 Alpha  occ. eigenvalues --   -1.70271  -1.10017  -0.91500  -0.78620  -0.74694
 Alpha  occ. eigenvalues --   -0.65810  -0.62418  -0.53953  -0.49399  -0.43763
 Alpha  occ. eigenvalues --   -0.43183  -0.39249  -0.27383
 Alpha virt. eigenvalues --    0.11492   0.18107   0.20128   0.24549   0.27794
 Alpha virt. eigenvalues --    0.28099   0.29952   0.30798   0.35988   0.44905
 Alpha virt. eigenvalues --    0.48974

 Mulliken charges:
               1
     1  C   -0.046126
     2  C   -1.892666
     3  O    3.212127
     4  C   -1.992285
     5  C   -0.232465
     6  H    0.183400
     7  H    0.315482
     8  H    0.283847
     9  H    0.168686
 Sum of Mulliken charges =   0.00000

 Dipole moment (field-independent basis, Debye):
    X=              2.5925    Y=            -10.4387    Z=             -0.1468  Tot=             10.7568
 N-N= 1.032239022990D+02 E-N=-1.679003881725D+02  KE=-1.470336816479D+01
 Orbital energies and kinetic energies (alpha):
                                 1                 2
   1         O                -1.702711         -1.183072
   2         O                -1.100175         -0.975173
   3         O                -0.915000         -0.843767
   4         O                -0.786198         -0.593665
   5         O                -0.746939         -0.682036
   6         O                -0.658095         -0.556783
   7         O                -0.624180         -0.512545

 Normal termination of Gaussian 09 at Tue Dec 15 17:05:53 2015.
