 Gaussian 09, Revision D.01,
 Gaussian 09:  ES64L-G09RevD.01 24-Apr-2013

 ------------------------------------------------------------
 #P AM1(Input,print) CIS(Singlets,NStates=15) pop(full) force
 ------------------------------------------------------------

 -----------------
 AM1-Reparam Input
 -----------------
 Symbolic Z-matrix:
 Charge =  0 Multiplicity = 1

                         Standard orientation:
 ---------------------------------------------------------------------
 Center     Atomic      Atomic             Coordinates (Angstroms)
 Number     Number       Type             X           Y           Z
 ---------------------------------------------------------------------
      1          6           0       -0.743755    0.928976   -0.008493
      2          6           0       -1.092569   -0.362042   -0.008402
      3          8           0       -0.006767   -1.137432    0.000742
      4          6           0        1.131052   -0.315910   -0.016647
      5          6           0        0.702879    0.929417    0.010949
      6          1           0        1.371381    1.803845    0.032348
      7          1           0        2.052946   -0.811230    0.032611
      8          1           0       -1.994924   -0.820840    0.078009
      9          1           0       -1.360904    1.845042   -0.013350
 ---------------------------------------------------------------------

 SCF Done:  E(RAM1) =   2.71908528764     A.U. after   14 cycles

 Excitation energies and oscillator strengths:

 Excited State   1:      Singlet-A      5.1608 eV  240.24 nm  f=0.3567  <S**2>=0.000
      13 -> 14         0.69618
 This state for optimization and/or second-order correction.
 Total Energy, E(CIS) =   2.90874070020
 Copying the excited state density for this state as the 1-particle RhoCI density.

 Excited State   2:      Singlet-A      5.9833 eV  207.22 nm  f=0.0021  <S**2>=0.000
      10 -> 15         0.10664
      13 -> 15         0.66545
      13 -> 17        -0.14835
      13 -> 19         0.12411

 Excited State   3:      Singlet-A      6.2917 eV  197.06 nm  f=0.0012  <S**2>=0.000
      10 -> 16        -0.11043
      13 -> 16         0.65280
      13 -> 17        -0.15440
      13 -> 19        -0.10924

 Excited State   4:      Singlet-A      6.6791 eV  185.63 nm  f=0.0003  <S**2>=0.000
       9 -> 14         0.11335
      12 -> 14         0.69123

 Excited State   5:      Singlet-A      7.4260 eV  166.96 nm  f=0.0008  <S**2>=0.000
      13 -> 15        -0.10224
      13 -> 17        -0.15271
      13 -> 18         0.55416
      13 -> 20         0.11322
      13 -> 21        -0.35479

 Excited State   6:      Singlet-A      7.6084 eV  162.96 nm  f=0.0099  <S**2>=0.000
      11 -> 14         0.21356
      13 -> 15         0.11276
      13 -> 16         0.16144
      13 -> 17         0.61209
      13 -> 18         0.15230

 Excited State   7:      Singlet-A      7.9090 eV  156.76 nm  f=0.0013  <S**2>=0.000
      11 -> 14         0.66567
      13 -> 17        -0.20989

 Excited State   8:      Singlet-A      8.3580 eV  148.34 nm  f=0.0003  <S**2>=0.000
      13 -> 18        -0.18194
      13 -> 19         0.63278
      13 -> 20         0.12880
      13 -> 21        -0.12000

 Excited State   9:      Singlet-A      8.7882 eV  141.08 nm  f=0.0088  <S**2>=0.000
      13 -> 18         0.34494
      13 -> 19         0.23021
      13 -> 20        -0.19890
      13 -> 21         0.52450

 Excited State  10:      Singlet-A      8.8696 eV  139.78 nm  f=0.0394  <S**2>=0.000
       8 -> 16         0.10818
      10 -> 14         0.58553
      11 -> 17        -0.12891
      12 -> 16        -0.21672
      12 -> 17        -0.14315
      12 -> 18         0.15288

 Excited State  11:      Singlet-A      9.0179 eV  137.49 nm  f=0.0258  <S**2>=0.000
       8 -> 15         0.12426
      10 -> 14        -0.24416
      11 -> 16         0.11148
      11 -> 17        -0.21471
      12 -> 15         0.44475
      12 -> 16        -0.15829
      12 -> 18         0.27375

 Excited State  12:      Singlet-A      9.2850 eV  133.53 nm  f=0.1022  <S**2>=0.000
      13 -> 20         0.64058
      13 -> 21         0.25572

 Excited State  13:      Singlet-A      9.4292 eV  131.49 nm  f=0.2656  <S**2>=0.000
      11 -> 15         0.17930
      11 -> 16         0.21985
      11 -> 17        -0.22714
      12 -> 15        -0.26160
      12 -> 16         0.38689
      12 -> 17        -0.10177
      12 -> 18         0.26609
      12 -> 19        -0.12269

 Excited State  14:      Singlet-A      9.5108 eV  130.36 nm  f=0.0430  <S**2>=0.000
      10 -> 14         0.21891
      11 -> 15        -0.20054
      12 -> 15         0.37100
      12 -> 16         0.44859
      12 -> 17        -0.12103
      12 -> 18        -0.11004

 Excited State  15:      Singlet-A      9.9766 eV  124.27 nm  f=0.2207  <S**2>=0.000
       8 -> 15         0.13941
       8 -> 16        -0.11914
       9 -> 15         0.21118
      10 -> 14         0.18373
      10 -> 15        -0.11806
      11 -> 15         0.23415
      11 -> 18        -0.22421
      11 -> 19         0.23848
      12 -> 17         0.36659
      12 -> 20        -0.11437

 The electronic state is 1-A.
 Alpha  occ. eigenvalues --   -1.76981  -1.13329  -0.95250  -0.79857  -0.75764
 Alpha  occ. eigenvalues --   -0.65816  -0.63755  -0.55162  -0.49562  -0.43957
 Alpha  occ. eigenvalues --   -0.43128  -0.39167  -0.27144
 Alpha virt. eigenvalues --    0.12107   0.17861   0.19070   0.24818   0.26741
 Alpha virt. eigenvalues --    0.28678   0.30522   0.31183   0.46804   0.55437
 Alpha virt. eigenvalues --    0.59995

 Mulliken charges:
               1
     1  C   -0.124603
     2  C   -2.003850
     3  O    3.349185
     4  C   -1.964811
     5  C   -0.047700
     6  H    0.124688
     7  H    0.259199
     8  H    0.276037
     9  H    0.131856
 Sum of Mulliken charges =   0.00000

 Dipole moment (field-independent basis, Debye):
    X=             -0.1706    Y=            -10.8865    Z=              0.4525  Tot=             10.8972
 N-N= 1.039773811346D+02 E-N=-1.690403006193D+02  KE=-1.489881833378D+01
 Orbital energies and kinetic energies (alpha):
                                 1                 2
   1         O                -1.769814         -1.263390
   2         O                -1.133292         -0.986881
   3         O                -0.952496         -0.870704
   4         O                -0.798572         -0.592390
   5         O                -0.757645         -0.693790
   6         O                -0.658162         -0.550617
   7         O                -0.637553         -0.524907

 Normal termination of Gaussian 09 at Tue Dec 15 17:05:26 2015.
