 Gaussian 09, Revision D.01,
 Gaussian 09:  ES64L-G09RevD.01 24-Apr-2013

 ------------------------------------------------------------
 #P AM1(Input,print) CIS(Singlets,NStates=15) pop(full) force
 ------------------------------------------------------------

 -----------------
 AM1-Reparam Input
 -----------------
 Symbolic Z-matrix:
 Charge =  0 Multiplicity = 1

                         Standard orientation:
 ---------------------------------------------------------------------
 Center     Atomic      Atomic             Coordinates (Angstroms)
 Number     Number       Type             X           Y           Z
 ---------------------------------------------------------------------
      1          6           0       -0.771177    0.857452   -0.007565
      2          6           0       -1.028867   -0.432706    0.000097
      3          8           0        0.101544   -1.122845   -0.009403
      4          6           0        1.127116   -0.225692    0.001740
      5          6           0        0.584698    0.984843    0.015259
      6          1           0        1.141704    1.894237   -0.041266
      7          1           0        2.137814   -0.626432    0.017541
      8          1           0       -1.978290   -1.078726    0.041361
      9          1           0       -1.584198    1.690297    0.000396
 ---------------------------------------------------------------------

 SCF Done:  E(RAM1) =   1.76635083291     A.U. after   14 cycles

 Excitation energies and oscillator strengths:

 Excited State   1:      Singlet-A      5.6600 eV  219.05 nm  f=0.3247  <S**2>=0.000
      11 -> 17         0.10308
      13 -> 14         0.68864
 This state for optimization and/or second-order correction.
 Total Energy, E(CIS) =   1.97435168239
 Copying the excited state density for this state as the 1-particle RhoCI density.

 Excited State   2:      Singlet-A      6.8436 eV  181.17 nm  f=0.0010  <S**2>=0.000
      10 -> 15         0.12133
      13 -> 15         0.67846

 Excited State   3:      Singlet-A      7.2474 eV  171.08 nm  f=0.0002  <S**2>=0.000
      12 -> 14         0.69940

 Excited State   4:      Singlet-A      7.4065 eV  167.40 nm  f=0.0026  <S**2>=0.000
      10 -> 16        -0.11642
      13 -> 16         0.66583
      13 -> 17        -0.12212
      13 -> 19         0.12103

 Excited State   5:      Singlet-A      7.7918 eV  159.12 nm  f=0.0060  <S**2>=0.000
      11 -> 14         0.69642

 Excited State   6:      Singlet-A      8.9516 eV  138.50 nm  f=0.0039  <S**2>=0.000
      13 -> 16         0.10472
      13 -> 17         0.63652
      13 -> 18        -0.22041
      13 -> 22        -0.12473

 Excited State   7:      Singlet-A      8.9855 eV  137.98 nm  f=0.0058  <S**2>=0.000
      13 -> 17         0.23352
      13 -> 18         0.59678
      13 -> 19         0.15034
      13 -> 22         0.20523

 Excited State   8:      Singlet-A      9.5752 eV  129.48 nm  f=0.0218  <S**2>=0.000
       8 -> 15        -0.13105
      10 -> 14         0.48595
      11 -> 17        -0.11093
      12 -> 15         0.42877

 Excited State   9:      Singlet-A      9.7017 eV  127.80 nm  f=0.0482  <S**2>=0.000
       8 -> 16         0.10586
      10 -> 14         0.39995
      11 -> 16        -0.12846
      11 -> 17         0.20278
      12 -> 15        -0.32755
      12 -> 16         0.19846
      12 -> 18         0.24910

 Excited State  10:      Singlet-A      9.8424 eV  125.97 nm  f=0.0021  <S**2>=0.000
      13 -> 16        -0.10194
      13 -> 18        -0.18284
      13 -> 19         0.65733

 Excited State  11:      Singlet-A      9.9413 eV  124.72 nm  f=0.1715  <S**2>=0.000
       9 -> 15        -0.12674
      10 -> 14         0.19720
      11 -> 15         0.46423
      11 -> 16         0.13829
      11 -> 17        -0.23319
      12 -> 15        -0.29294
      12 -> 17         0.13072
      12 -> 18        -0.14321

 Excited State  12:      Singlet-A     10.3133 eV  120.22 nm  f=0.1554  <S**2>=0.000
      11 -> 16         0.34066
      11 -> 19         0.11418
      12 -> 16         0.54847
      12 -> 18        -0.10693

 Excited State  13:      Singlet-A     10.6648 eV  116.26 nm  f=0.0568  <S**2>=0.000
       8 -> 15        -0.12786
       9 -> 15        -0.13823
      10 -> 14        -0.18367
      11 -> 15         0.32645
      11 -> 16        -0.14970
      11 -> 18         0.11419
      11 -> 19        -0.19556
      12 -> 15         0.21068
      12 -> 16         0.23606
      12 -> 18         0.25290
      12 -> 20        -0.11122
      13 -> 20        -0.12826

 Excited State  14:      Singlet-A     10.6944 eV  115.93 nm  f=0.0796  <S**2>=0.000
      13 -> 18         0.15629
      13 -> 20         0.57145
      13 -> 22        -0.31426

 Excited State  15:      Singlet-A     10.8905 eV  113.85 nm  f=0.0114  <S**2>=0.000
       6 -> 15        -0.11811
      10 -> 15         0.59263
      13 -> 15        -0.12908
      13 -> 18        -0.11640
      13 -> 20         0.13125
      13 -> 22         0.24231

 The electronic state is 1-A.
 Alpha  occ. eigenvalues --   -1.92650  -1.20423  -0.93027  -0.82148  -0.78241
 Alpha  occ. eigenvalues --   -0.69616  -0.69273  -0.56753  -0.54976  -0.47110
 Alpha  occ. eigenvalues --   -0.42842  -0.41432  -0.30621
 Alpha virt. eigenvalues --    0.12146   0.16700   0.19712   0.26271   0.28430
 Alpha virt. eigenvalues --    0.30818   0.33065   0.35293   0.36743   0.43907
 Alpha virt. eigenvalues --    0.47799

 Mulliken charges:
               1
     1  C   -0.187920
     2  C   -2.019169
     3  O    3.297082
     4  C   -2.019933
     5  C   -0.166023
     6  H    0.209990
     7  H    0.333645
     8  H    0.340834
     9  H    0.211494
 Sum of Mulliken charges =   0.00000

 Dipole moment (field-independent basis, Debye):
    X=              0.4442    Y=            -10.5801    Z=             -0.0696  Tot=             10.5896
 N-N= 1.047329256195D+02 E-N=-1.707916793948D+02  KE=-1.555924506485D+01
 Orbital energies and kinetic energies (alpha):
                                 1                 2
   1         O                -1.926505         -1.405760
   2         O                -1.204227         -1.067407
   3         O                -0.930269         -0.893965
   4         O                -0.821477         -0.560869
   5         O                -0.782407         -0.687505
   6         O                -0.696158         -0.556820
   7         O                -0.692732         -0.591240

 Normal termination of Gaussian 09 at Tue Dec 15 17:09:36 2015.
