 Gaussian 09, Revision D.01,
 Gaussian 09:  ES64L-G09RevD.01 24-Apr-2013

 ------------------------------------------------------------
 #P AM1(Input,print) CIS(Singlets,NStates=15) pop(full) force
 ------------------------------------------------------------

 -----------------
 AM1-Reparam Input
 -----------------
 Symbolic Z-matrix:
 Charge =  0 Multiplicity = 1

                         Standard orientation:
 ---------------------------------------------------------------------
 Center     Atomic      Atomic             Coordinates (Angstroms)
 Number     Number       Type             X           Y           Z
 ---------------------------------------------------------------------
      1          6           0       -0.539353    1.061019   -0.012649
      2          6           0       -1.170045   -0.182549    0.028961
      3          8           0       -0.201308   -1.090727   -0.017120
      4          6           0        1.014732   -0.522020   -0.001889
      5          6           0        0.911592    0.780923   -0.009582
      6          1           0        1.622497    1.557458    0.076031
      7          1           0        1.845513   -1.197540    0.044122
      8          1           0       -2.155868   -0.461706    0.015911
      9          1           0       -1.003236    2.003364   -0.028147
 ---------------------------------------------------------------------

 SCF Done:  E(RAM1) =  -4.49830513217     A.U. after   14 cycles

 Excitation energies and oscillator strengths:

 Excited State   1:      Singlet-A      6.3206 eV  196.16 nm  f=0.2598  <S**2>=0.000
      13 -> 14         0.68756
 This state for optimization and/or second-order correction.
 Total Energy, E(CIS) =  -4.26602805954
 Copying the excited state density for this state as the 1-particle RhoCI density.

 Excited State   2:      Singlet-A      7.5123 eV  165.04 nm  f=0.0041  <S**2>=0.000
      13 -> 15        -0.44083
      13 -> 16         0.52448

 Excited State   3:      Singlet-A      7.5724 eV  163.73 nm  f=0.0045  <S**2>=0.000
      13 -> 15         0.51286
      13 -> 16         0.46154

 Excited State   4:      Singlet-A      7.7443 eV  160.10 nm  f=0.0006  <S**2>=0.000
       9 -> 14        -0.27509
      10 -> 14         0.18719
      11 -> 14        -0.14355
      12 -> 14         0.59561
      13 -> 15         0.10165

 Excited State   5:      Singlet-A      8.6754 eV  142.91 nm  f=0.0048  <S**2>=0.000
       9 -> 14         0.30187
      10 -> 14         0.62408

 Excited State   6:      Singlet-A      8.9890 eV  137.93 nm  f=0.0010  <S**2>=0.000
       9 -> 14         0.34671
      10 -> 14        -0.12178
      11 -> 14         0.44904
      12 -> 14         0.31096
      13 -> 17         0.18370

 Excited State   7:      Singlet-A      9.2949 eV  133.39 nm  f=0.0020  <S**2>=0.000
       9 -> 14         0.41083
      10 -> 14        -0.18912
      11 -> 14        -0.35705
      12 -> 14         0.17640
      12 -> 16         0.12011
      13 -> 17        -0.29679
      13 -> 18        -0.11212

 Excited State   8:      Singlet-A      9.4358 eV  131.40 nm  f=0.0004  <S**2>=0.000
       9 -> 14         0.10487
      13 -> 15         0.11613
      13 -> 17        -0.10502
      13 -> 18         0.66882

 Excited State   9:      Singlet-A      9.9796 eV  124.24 nm  f=0.0017  <S**2>=0.000
      11 -> 14        -0.16440
      12 -> 16         0.36944
      13 -> 17         0.51821

 Excited State  10:      Singlet-A     10.3504 eV  119.79 nm  f=0.0211  <S**2>=0.000
       8 -> 16         0.10457
       9 -> 15         0.28824
       9 -> 18        -0.15710
      10 -> 16         0.37394
      10 -> 21         0.14056
      11 -> 15         0.12132
      12 -> 18         0.36454

 Excited State  11:      Singlet-A     10.4279 eV  118.90 nm  f=0.0817  <S**2>=0.000
      11 -> 15        -0.25870
      12 -> 15        -0.30066
      13 -> 19         0.53961

 Excited State  12:      Singlet-A     10.6173 eV  116.78 nm  f=0.2650  <S**2>=0.000
      12 -> 15         0.56163
      13 -> 19         0.32976

 Excited State  13:      Singlet-A     10.7843 eV  114.97 nm  f=0.7805  <S**2>=0.000
       9 -> 16        -0.14795
      10 -> 15         0.16401
      11 -> 14         0.29292
      12 -> 16         0.45501
      13 -> 17        -0.27737

 Excited State  14:      Singlet-A     10.9870 eV  112.85 nm  f=0.0545  <S**2>=0.000
      10 -> 16         0.20566
      11 -> 16         0.61438
      13 -> 19        -0.13846

 Excited State  15:      Singlet-A     11.0449 eV  112.25 nm  f=0.6429  <S**2>=0.000
       9 -> 15        -0.36193
       9 -> 18        -0.11877
      10 -> 15         0.38653
      10 -> 16         0.19404
      11 -> 15        -0.19939
      11 -> 16        -0.19611
      12 -> 18         0.10668

 The electronic state is 1-A.
 Alpha  occ. eigenvalues --   -3.76411  -1.28572  -0.98869  -0.94153  -0.87441
 Alpha  occ. eigenvalues --   -0.85877  -0.82171  -0.72337  -0.62843  -0.61943
 Alpha  occ. eigenvalues --   -0.61704  -0.57073  -0.47774
 Alpha virt. eigenvalues --   -0.03134   0.04621   0.05064   0.11342   0.13491
 Alpha virt. eigenvalues --    0.16084   0.22058   0.23694   0.35903   0.37584
 Alpha virt. eigenvalues --    0.39346

 Mulliken charges:
               1
     1  C   -0.099453
     2  C   -1.151675
     3  O    2.482857
     4  C   -1.145186
     5  C   -0.054988
     6  H   -0.015450
     7  H    0.006376
     8  H   -0.007515
     9  H   -0.014967
 Sum of Mulliken charges =   0.00000

 Dipole moment (field-independent basis, Debye):
    X=             -1.2120    Y=             -8.8505    Z=             -0.2908  Tot=              8.9378
 N-N= 1.065138838330D+02 E-N=-1.738934304096D+02  KE=-2.178757120897D+01
 Orbital energies and kinetic energies (alpha):
                                 1                 2
   1         O                -3.764114         -3.053455
   2         O                -1.285721         -1.054162
   3         O                -0.988691         -0.715455
   4         O                -0.941530         -0.779978
   5         O                -0.874407         -0.802084
   6         O                -0.858774         -0.625702
   7         O                -0.821714         -0.769731

 Normal termination of Gaussian 09 at Fri Dec 11 13:41:30 2015.
