 Gaussian 09, Revision D.01,
 Gaussian 09:  ES64L-G09RevD.01 24-Apr-2013

 ------------------------------------------------------------
 #P AM1(Input,print) CIS(Singlets,NStates=15) pop(full) force
 ------------------------------------------------------------

 -----------------
 AM1-Reparam Input
 -----------------
 Symbolic Z-matrix:
 Charge =  0 Multiplicity = 1

                         Standard orientation:
 ---------------------------------------------------------------------
 Center     Atomic      Atomic             Coordinates (Angstroms)
 Number     Number       Type             X           Y           Z
 ---------------------------------------------------------------------
      1          6           0        0.700864    0.934248    0.006277
      2          6           0        1.108697   -0.337469   -0.004001
      3          8           0       -0.050307   -1.160973    0.005780
      4          6           0       -1.054767   -0.310436   -0.002874
      5          6           0       -0.677206    0.937314   -0.016136
      6          1           0       -1.415149    1.774369    0.062262
      7          1           0       -2.004087   -0.779762   -0.004379
      8          1           0        2.035659   -0.859894    0.004256
      9          1           0        1.320507    1.811136   -0.007975
 ---------------------------------------------------------------------

 SCF Done:  E(RAM1) =   1.85871637315     A.U. after   14 cycles

 Excitation energies and oscillator strengths:

 Excited State   1:      Singlet-A      5.5895 eV  221.82 nm  f=0.3140  <S**2>=0.000
      13 -> 14         0.68719
 This state for optimization and/or second-order correction.
 Total Energy, E(CIS) =   2.06412589781
 Copying the excited state density for this state as the 1-particle RhoCI density.

 Excited State   2:      Singlet-A      6.3403 eV  195.55 nm  f=0.0036  <S**2>=0.000
      10 -> 15         0.10193
      13 -> 15         0.67840
      13 -> 17         0.12804

 Excited State   3:      Singlet-A      7.1551 eV  173.28 nm  f=0.0039  <S**2>=0.000
      10 -> 16        -0.10422
      13 -> 16         0.67074
      13 -> 19         0.12407

 Excited State   4:      Singlet-A      7.6804 eV  161.43 nm  f=0.0005  <S**2>=0.000
      12 -> 14         0.69923

 Excited State   5:      Singlet-A      8.1807 eV  151.56 nm  f=0.0066  <S**2>=0.000
      11 -> 14         0.68733

 Excited State   6:      Singlet-A      8.3188 eV  149.04 nm  f=0.0000  <S**2>=0.000
      11 -> 14        -0.11016
      13 -> 18         0.64320
      13 -> 21        -0.22631

 Excited State   7:      Singlet-A      8.7771 eV  141.26 nm  f=0.0084  <S**2>=0.000
      10 -> 15        -0.10214
      13 -> 15        -0.11088
      13 -> 17         0.66503

 Excited State   8:      Singlet-A      9.2457 eV  134.10 nm  f=0.0682  <S**2>=0.000
      10 -> 14         0.63817
      11 -> 15        -0.12178
      12 -> 18         0.13993

 Excited State   9:      Singlet-A      9.6376 eV  128.65 nm  f=0.0295  <S**2>=0.000
       9 -> 15         0.19115
      10 -> 14        -0.15726
      11 -> 15        -0.18863
      11 -> 16        -0.19980
      11 -> 17        -0.26279
      12 -> 15         0.36343
      12 -> 16        -0.10655
      12 -> 18         0.28439
      13 -> 14        -0.10983

 Excited State  10:      Singlet-A      9.6706 eV  128.21 nm  f=0.0010  <S**2>=0.000
      10 -> 16         0.14497
      13 -> 19         0.66162

 Excited State  11:      Singlet-A      9.7988 eV  126.53 nm  f=0.1404  <S**2>=0.000
      10 -> 14         0.10752
      11 -> 15         0.50396
      11 -> 17         0.11348
      12 -> 15         0.42468

 Excited State  12:      Singlet-A     10.3005 eV  120.37 nm  f=0.0080  <S**2>=0.000
       7 -> 15        -0.12391
      10 -> 15         0.65255
      13 -> 15        -0.12355

 Excited State  13:      Singlet-A     10.4738 eV  118.38 nm  f=0.1079  <S**2>=0.000
      11 -> 16        -0.19404
      12 -> 16         0.38251
      13 -> 18        -0.15246
      13 -> 20         0.33434
      13 -> 21        -0.35395

 Excited State  14:      Singlet-A     10.4748 eV  118.36 nm  f=0.1191  <S**2>=0.000
      11 -> 16        -0.18888
      12 -> 16         0.43736
      12 -> 19         0.10500
      13 -> 18         0.13396
      13 -> 20        -0.30029
      13 -> 21         0.32057

 Excited State  15:      Singlet-A     10.6690 eV  116.21 nm  f=0.0732  <S**2>=0.000
       8 -> 16         0.10906
       9 -> 15        -0.20225
      10 -> 14        -0.17615
      11 -> 15         0.19641
      11 -> 16        -0.10209
      11 -> 18        -0.13491
      11 -> 19        -0.18663
      12 -> 15        -0.23991
      12 -> 16        -0.23870
      12 -> 18         0.33439
      12 -> 20         0.13335

 The electronic state is 1-A.
 Alpha  occ. eigenvalues --   -2.00568  -1.30186  -1.01982  -0.89849  -0.85710
 Alpha  occ. eigenvalues --   -0.77018  -0.75916  -0.63052  -0.61569  -0.52034
 Alpha  occ. eigenvalues --   -0.50448  -0.49202  -0.36489
 Alpha virt. eigenvalues --    0.05828   0.09970   0.13650   0.19623   0.20874
 Alpha virt. eigenvalues --    0.23713   0.26376   0.28461   0.28639   0.37101
 Alpha virt. eigenvalues --    0.41460

 Mulliken charges:
               1
     1  C   -0.072951
     2  C   -1.867058
     3  O    3.165001
     4  C   -1.878879
     5  C   -0.205519
     6  H    0.165880
     7  H    0.283031
     8  H    0.264097
     9  H    0.146399
 Sum of Mulliken charges =   0.00000

 Dipole moment (field-independent basis, Debye):
    X=             -1.1434    Y=            -11.0377    Z=              0.1917  Tot=             11.0985
 N-N= 1.063955594813D+02 E-N=-1.718578935159D+02  KE=-1.573534930103D+01
 Orbital energies and kinetic energies (alpha):
                                 1                 2
   1         O                -2.005677         -1.387263
   2         O                -1.301859         -1.072752
   3         O                -1.019816         -0.900107
   4         O                -0.898488         -0.583674
   5         O                -0.857097         -0.701506
   6         O                -0.770178         -0.602571
   7         O                -0.759163         -0.557979

 Normal termination of Gaussian 09 at Tue Dec 15 17:09:07 2015.
