 Gaussian 09, Revision D.01,
 Gaussian 09:  ES64L-G09RevD.01 24-Apr-2013

 -------------------------------------------------------
 #P B3LYP/3-21G CIS(Singlets,NStates=15) pop(full) force
 -------------------------------------------------------

 --------
 FuranDFT
 --------
 Symbolic Z-matrix:
 Charge =  0 Multiplicity = 1

                         Standard orientation:
 ---------------------------------------------------------------------
 Center     Atomic      Atomic             Coordinates (Angstroms)
 Number     Number       Type             X           Y           Z
 ---------------------------------------------------------------------
      1          6           0       -1.113238    0.442806   -0.004783
      2          6           0       -0.750595   -0.836111    0.021280
      3          8           0        0.627596   -1.017490   -0.014962
      4          6           0        1.104850    0.268298    0.003039
      5          6           0        0.107970    1.210609   -0.013149
      6          1           0        0.178041    2.208215    0.024157
      7          1           0        2.205136    0.340432    0.057520
      8          1           0       -1.369346   -1.803414   -0.005826
      9          1           0       -2.128520    0.881079    0.005513
 ---------------------------------------------------------------------

 SCF Done:  E(RB3LYP) =  -228.739593326     A.U. after   14 cycles

 Excitation energies and oscillator strengths:

 Excited State   1:      Singlet-A      7.1551 eV  173.28 nm  f=0.2100  <S**2>=0.000
      18 -> 19         0.68326
 This state for optimization and/or second-order correction.
 Total Energy, E(CIS) =  -228.476647248
 Copying the excited state density for this state as the 1-particle RhoCI density.

 Excited State   2:      Singlet-A      7.2721 eV  170.49 nm  f=0.0012  <S**2>=0.000
      17 -> 19         0.51286
      18 -> 20         0.47536

 Excited State   3:      Singlet-A      8.4688 eV  146.40 nm  f=0.0001  <S**2>=0.000
      18 -> 21         0.68408
      18 -> 22        -0.15434

 Excited State   4:      Singlet-A      9.0113 eV  137.59 nm  f=0.0018  <S**2>=0.000
      16 -> 19        -0.32172
      18 -> 21         0.13107
      18 -> 22         0.60389

 Excited State   5:      Singlet-A      9.0411 eV  137.13 nm  f=0.0098  <S**2>=0.000
      16 -> 19         0.61168
      18 -> 22         0.30972

 Excited State   6:      Singlet-A      9.3787 eV  132.20 nm  f=0.0028  <S**2>=0.000
      15 -> 19         0.12224
      17 -> 21        -0.15869
      18 -> 23         0.65412
      18 -> 24         0.10749

 Excited State   7:      Singlet-A      9.5215 eV  130.22 nm  f=0.1936  <S**2>=0.000
      17 -> 19         0.20163
      17 -> 20         0.59702
      18 -> 20        -0.22792

 Excited State   8:      Singlet-A      9.7818 eV  126.75 nm  f=0.0130  <S**2>=0.000
      15 -> 19         0.56301
      17 -> 21         0.39713

 Excited State   9:      Singlet-A      9.8227 eV  126.22 nm  f=0.0782  <S**2>=0.000
      15 -> 19        -0.39100
      17 -> 19        -0.15876
      17 -> 20         0.12716
      17 -> 21         0.46321
      18 -> 20         0.17239
      18 -> 23         0.17143

 Excited State  10:      Singlet-A      9.8689 eV  125.63 nm  f=0.3858  <S**2>=0.000
      17 -> 19        -0.34355
      17 -> 20         0.27814
      17 -> 21        -0.27509
      17 -> 22         0.12345
      18 -> 20         0.37359
      18 -> 23        -0.10243

 Excited State  11:      Singlet-A     10.2465 eV  121.00 nm  f=0.0007  <S**2>=0.000
      14 -> 19         0.47435
      16 -> 20         0.14382
      17 -> 22         0.48021

 Excited State  12:      Singlet-A     10.3056 eV  120.31 nm  f=0.0081  <S**2>=0.000
      14 -> 19        -0.47440
      16 -> 20        -0.12253
      17 -> 21         0.10075
      17 -> 22         0.47881

 Excited State  13:      Singlet-A     10.5748 eV  117.24 nm  f=0.0056  <S**2>=0.000
      18 -> 23        -0.11203
      18 -> 24         0.67598

 Excited State  14:      Singlet-A     10.7545 eV  115.29 nm  f=0.0014  <S**2>=0.000
      13 -> 19         0.26859
      14 -> 19        -0.17811
      15 -> 20         0.12221
      16 -> 20         0.56263
      18 -> 25        -0.22122

 Excited State  15:      Singlet-A     10.7829 eV  114.98 nm  f=0.0083  <S**2>=0.000
      13 -> 19         0.10683
      16 -> 20         0.19322
      17 -> 23        -0.17521
      18 -> 25         0.62435

 The electronic state is 1-A.
 Alpha  occ. eigenvalues --  -19.11651 -10.18036 -10.17939 -10.12862 -10.12187
 Alpha  occ. eigenvalues --   -1.12074  -0.81266  -0.74037  -0.60369  -0.56653
 Alpha  occ. eigenvalues --   -0.54256  -0.44498  -0.44014  -0.41782  -0.39591
 Alpha  occ. eigenvalues --   -0.37141  -0.28180  -0.23302
 Alpha virt. eigenvalues --    0.01831   0.07989   0.12409   0.14015   0.16099
 Alpha virt. eigenvalues --    0.19670   0.20781   0.22937   0.35172   0.42277
 Alpha virt. eigenvalues --    0.45722   0.67981   0.69956   0.70276   0.74866

 Mulliken charges:
               1
     1  C   -0.239347
     2  C    0.079974
     3  O   -0.470792
     4  C    0.089756
     5  C   -0.258147
     6  H    0.190561
     7  H    0.211231
     8  H    0.204359
     9  H    0.192407
 Sum of Mulliken charges =   0.00000

 Dipole moment (field-independent basis, Debye):
    X=             -0.4736    Y=              0.7719    Z=              0.0898  Tot=              0.9100
 Quadrupole moment (field-independent basis, Debye-Ang):
   XX=            -24.8679   YY=            -27.0177   ZZ=            -31.8591
   XY=              1.7298   XZ=              0.1690   YZ=              0.1262

 Normal termination of Gaussian 09 at Tue Dec 15 16:22:11 2015.
