 Gaussian 09, Revision D.01,
 Gaussian 09:  ES64L-G09RevD.01 24-Apr-2013

 -------------------------------------------------------
 #P B3LYP/3-21G CIS(Singlets,NStates=15) pop(full) force
 -------------------------------------------------------

 --------
 FuranDFT
 --------
 Symbolic Z-matrix:
 Charge =  0 Multiplicity = 1

                         Standard orientation:
 ---------------------------------------------------------------------
 Center     Atomic      Atomic             Coordinates (Angstroms)
 Number     Number       Type             X           Y           Z
 ---------------------------------------------------------------------
      1          6           0        0.959612    0.811778    0.014553
      2          6           0        0.988970   -0.599361   -0.004518
      3          8           0       -0.284980   -1.155866    0.008552
      4          6           0       -1.119805   -0.053989   -0.024754
      5          6           0       -0.525720    1.073199    0.000333
      6          1           0       -0.919785    2.022008   -0.017033
      7          1           0       -2.191863   -0.412602    0.069901
      8          1           0        1.864087   -1.278295   -0.035103
      9          1           0        1.709057    1.526061    0.000133
 ---------------------------------------------------------------------

 SCF Done:  E(RB3LYP) =  -228.730632444     A.U. after   14 cycles

 Excitation energies and oscillator strengths:

 Excited State   1:      Singlet-A      7.1765 eV  172.76 nm  f=0.0684  <S**2>=0.000
      17 -> 19         0.48602
      18 -> 19         0.38538
      18 -> 20         0.31121
 This state for optimization and/or second-order correction.
 Total Energy, E(CIS) =  -228.466900537
 Copying the excited state density for this state as the 1-particle RhoCI density.

 Excited State   2:      Singlet-A      7.2894 eV  170.09 nm  f=0.1278  <S**2>=0.000
      17 -> 19        -0.23256
      18 -> 19         0.54723
      18 -> 20        -0.34868

 Excited State   3:      Singlet-A      8.6667 eV  143.06 nm  f=0.0097  <S**2>=0.000
      18 -> 20        -0.11503
      18 -> 21         0.65688
      18 -> 22        -0.16026

 Excited State   4:      Singlet-A      8.8707 eV  139.77 nm  f=0.0472  <S**2>=0.000
      16 -> 19         0.57084
      17 -> 19         0.15159
      17 -> 20         0.24730
      18 -> 20        -0.20021
      18 -> 22         0.16780

 Excited State   5:      Singlet-A      8.9830 eV  138.02 nm  f=0.1303  <S**2>=0.000
      16 -> 19        -0.36944
      17 -> 19         0.22715
      17 -> 20         0.41536
      18 -> 20        -0.27870
      18 -> 21        -0.14174

 Excited State   6:      Singlet-A      9.1804 eV  135.05 nm  f=0.0030  <S**2>=0.000
      16 -> 19        -0.14985
      18 -> 21         0.16224
      18 -> 22         0.65882

 Excited State   7:      Singlet-A      9.3260 eV  132.95 nm  f=0.0013  <S**2>=0.000
      15 -> 19        -0.34535
      18 -> 23         0.59714

 Excited State   8:      Singlet-A      9.4938 eV  130.60 nm  f=0.0038  <S**2>=0.000
      15 -> 19         0.59734
      17 -> 21        -0.14626
      18 -> 23         0.32220

 Excited State   9:      Singlet-A      9.6745 eV  128.16 nm  f=0.0619  <S**2>=0.000
      17 -> 19         0.12833
      17 -> 20        -0.20915
      17 -> 21         0.58651
      18 -> 20        -0.14944
      18 -> 21        -0.10392
      18 -> 23         0.15115

 Excited State  10:      Singlet-A     10.0154 eV  123.79 nm  f=0.3005  <S**2>=0.000
      17 -> 19        -0.24147
      17 -> 20         0.38440
      17 -> 21         0.27932
      17 -> 22        -0.25512
      18 -> 20         0.27950

 Excited State  11:      Singlet-A     10.1835 eV  121.75 nm  f=0.0348  <S**2>=0.000
      14 -> 19         0.17387
      16 -> 20         0.16451
      17 -> 20         0.11870
      17 -> 21         0.15233
      17 -> 22         0.58861
      17 -> 23        -0.10255
      18 -> 24        -0.13092

 Excited State  12:      Singlet-A     10.3988 eV  119.23 nm  f=0.0096  <S**2>=0.000
      14 -> 19         0.57862
      16 -> 20         0.26021
      17 -> 22        -0.22326

 Excited State  13:      Singlet-A     10.5128 eV  117.94 nm  f=0.0030  <S**2>=0.000
      14 -> 19         0.18362
      16 -> 20        -0.13189
      17 -> 22         0.14718
      17 -> 23         0.25842
      17 -> 24        -0.10200
      18 -> 24         0.55939

 Excited State  14:      Singlet-A     10.6023 eV  116.94 nm  f=0.0128  <S**2>=0.000
      12 -> 19        -0.10290
      14 -> 19        -0.27549
      15 -> 20        -0.16821
      16 -> 20         0.56237
      18 -> 24         0.21069

 Excited State  15:      Singlet-A     10.6323 eV  116.61 nm  f=0.0079  <S**2>=0.000
      17 -> 23         0.60674
      17 -> 24        -0.12214
      18 -> 24        -0.26500
      18 -> 25         0.15693

 The electronic state is 1-A.
 Alpha  occ. eigenvalues --  -19.11183 -10.18664 -10.17351 -10.13416 -10.11974
 Alpha  occ. eigenvalues --   -1.11365  -0.80649  -0.74153  -0.60630  -0.56487
 Alpha  occ. eigenvalues --   -0.54250  -0.44909  -0.44151  -0.42064  -0.38502
 Alpha  occ. eigenvalues --   -0.36709  -0.27682  -0.23663
 Alpha virt. eigenvalues --    0.01819   0.07686   0.12869   0.14181   0.15946
 Alpha virt. eigenvalues --    0.19195   0.20024   0.22829   0.34809   0.41202
 Alpha virt. eigenvalues --    0.46020   0.65428   0.69637   0.69805   0.75569

 Mulliken charges:
               1
     1  C   -0.249593
     2  C    0.072153
     3  O   -0.472543
     4  C    0.107002
     5  C   -0.263750
     6  H    0.194830
     7  H    0.207698
     8  H    0.211627
     9  H    0.192575
 Sum of Mulliken charges =   0.00000

 Dipole moment (field-independent basis, Debye):
    X=              0.2414    Y=              0.8757    Z=             -0.0010  Tot=              0.9084
 Quadrupole moment (field-independent basis, Debye-Ang):
   XX=            -24.0191   YY=            -27.7018   ZZ=            -31.8524
   XY=             -0.8249   XZ=             -0.2654   YZ=             -0.0220

 Normal termination of Gaussian 09 at Tue Dec 15 16:28:09 2015.
