 Gaussian 09, Revision D.01,
 Gaussian 09:  ES64L-G09RevD.01 24-Apr-2013

 ------------------------------------------------------------
 #P AM1(Input,print) CIS(Singlets,NStates=15) pop(full) force
 ------------------------------------------------------------

 -----------------
 AM1-Reparam Input
 -----------------
 Symbolic Z-matrix:
 Charge =  0 Multiplicity = 1

                         Standard orientation:
 ---------------------------------------------------------------------
 Center     Atomic      Atomic             Coordinates (Angstroms)
 Number     Number       Type             X           Y           Z
 ---------------------------------------------------------------------
      1          6           0       -0.771177    0.857452   -0.007565
      2          6           0       -1.028867   -0.432706    0.000097
      3          8           0        0.101544   -1.122845   -0.009403
      4          6           0        1.127116   -0.225692    0.001740
      5          6           0        0.584698    0.984843    0.015259
      6          1           0        1.141704    1.894237   -0.041266
      7          1           0        2.137814   -0.626432    0.017541
      8          1           0       -1.978290   -1.078726    0.041361
      9          1           0       -1.584198    1.690297    0.000396
 ---------------------------------------------------------------------

 SCF Done:  E(RAM1) =   2.08040255360     A.U. after   13 cycles

 Excitation energies and oscillator strengths:

 Excited State   1:      Singlet-A      5.5736 eV  222.45 nm  f=0.3159  <S**2>=0.000
      11 -> 17         0.10307
      13 -> 14         0.69053
 This state for optimization and/or second-order correction.
 Total Energy, E(CIS) =   2.28522767814
 Copying the excited state density for this state as the 1-particle RhoCI density.

 Excited State   2:      Singlet-A      6.6726 eV  185.81 nm  f=0.0052  <S**2>=0.000
      10 -> 15         0.11679
      13 -> 15         0.64886
      13 -> 17         0.19616
      13 -> 18         0.12249

 Excited State   3:      Singlet-A      7.0132 eV  176.79 nm  f=0.0014  <S**2>=0.000
      12 -> 14         0.64951
      13 -> 16         0.22230

 Excited State   4:      Singlet-A      7.0865 eV  174.96 nm  f=0.0051  <S**2>=0.000
      12 -> 14        -0.25008
      13 -> 16         0.60273
      13 -> 17         0.10473
      13 -> 18        -0.16940

 Excited State   5:      Singlet-A      7.5520 eV  164.17 nm  f=0.0063  <S**2>=0.000
      11 -> 14         0.69733

 Excited State   6:      Singlet-A      8.1299 eV  152.50 nm  f=0.0022  <S**2>=0.000
      13 -> 15        -0.13153
      13 -> 17         0.17410
      13 -> 18         0.42019
      13 -> 19         0.27407
      13 -> 20         0.32600
      13 -> 21        -0.25848

 Excited State   7:      Singlet-A      8.4565 eV  146.61 nm  f=0.0151  <S**2>=0.000
      10 -> 16         0.10721
      13 -> 15        -0.15074
      13 -> 17         0.61518
      13 -> 19        -0.21892

 Excited State   8:      Singlet-A      8.9888 eV  137.93 nm  f=0.0902  <S**2>=0.000
      10 -> 14         0.67920

 Excited State   9:      Singlet-A      9.0539 eV  136.94 nm  f=0.0019  <S**2>=0.000
      10 -> 16         0.12637
      13 -> 16        -0.17142
      13 -> 17         0.14753
      13 -> 18        -0.38594
      13 -> 19         0.50902

 Excited State  10:      Singlet-A      9.4102 eV  131.75 nm  f=0.0219  <S**2>=0.000
       9 -> 15         0.11536
      11 -> 15         0.21904
      11 -> 16         0.22714
      11 -> 17         0.30689
      12 -> 15        -0.27476
      12 -> 16         0.13772
      12 -> 18        -0.27758
      12 -> 19        -0.17176
      12 -> 20        -0.13127
      13 -> 14        -0.10348

 Excited State  11:      Singlet-A      9.5770 eV  129.46 nm  f=0.0266  <S**2>=0.000
      13 -> 18        -0.32887
      13 -> 19        -0.31251
      13 -> 20         0.45005
      13 -> 21        -0.28033

 Excited State  12:      Singlet-A      9.7083 eV  127.71 nm  f=0.1577  <S**2>=0.000
      11 -> 15         0.39469
      11 -> 17         0.14344
      11 -> 18         0.10685
      12 -> 15         0.49957
      12 -> 17         0.14771

 Excited State  13:      Singlet-A      9.9848 eV  124.17 nm  f=0.1371  <S**2>=0.000
      11 -> 16        -0.35769
      11 -> 18         0.13874
      11 -> 19        -0.11730
      12 -> 16         0.50330
      12 -> 17         0.15732
      12 -> 19         0.13679

 Excited State  14:      Singlet-A     10.0662 eV  123.17 nm  f=0.0557  <S**2>=0.000
      10 -> 15         0.17630
      13 -> 20         0.38424
      13 -> 21         0.54765

 Excited State  15:      Singlet-A     10.2133 eV  121.39 nm  f=0.0067  <S**2>=0.000
       7 -> 15        -0.10964
      10 -> 15         0.57062
      10 -> 16         0.14761
      10 -> 17         0.11658
      12 -> 16         0.12161
      13 -> 15        -0.13657
      13 -> 21        -0.16652

 The electronic state is 1-A.
 Alpha  occ. eigenvalues --   -1.95666  -1.22844  -0.96308  -0.82321  -0.78767
 Alpha  occ. eigenvalues --   -0.67971  -0.66816  -0.55032  -0.53640  -0.44279
 Alpha  occ. eigenvalues --   -0.42174  -0.41038  -0.29819
 Alpha virt. eigenvalues --    0.12227   0.17449   0.20137   0.25114   0.27478
 Alpha virt. eigenvalues --    0.28506   0.30319   0.31746   0.37068   0.45843
 Alpha virt. eigenvalues --    0.50466

 Mulliken charges:
               1
     1  C   -0.233334
     2  C   -2.011309
     3  O    3.186302
     4  C   -2.007841
     5  C   -0.208722
     6  H    0.258801
     7  H    0.370114
     8  H    0.379781
     9  H    0.266208
 Sum of Mulliken charges =   0.00000

 Dipole moment (field-independent basis, Debye):
    X=              0.3474    Y=            -10.0201    Z=             -0.0652  Tot=             10.0264
 N-N= 1.052838724901D+02 E-N=-1.713185736688D+02  KE=-1.555485701738D+01
 Orbital energies and kinetic energies (alpha):
                                 1                 2
   1         O                -1.956661         -1.422480
   2         O                -1.228438         -1.082409
   3         O                -0.963075         -0.876986
   4         O                -0.823211         -0.592913
   5         O                -0.787669         -0.674073
   6         O                -0.679715         -0.570512
   7         O                -0.668161         -0.540277

 Normal termination of Gaussian 09 at Tue Dec 15 17:07:16 2015.
