 Gaussian 09, Revision D.01,
 Gaussian 09:  ES64L-G09RevD.01 24-Apr-2013

 ------------------------------------------------------------
 #P AM1(Input,print) CIS(Singlets,NStates=15) pop(full) force
 ------------------------------------------------------------

 -----------------
 AM1-Reparam Input
 -----------------
 Symbolic Z-matrix:
 Charge =  0 Multiplicity = 1

                         Standard orientation:
 ---------------------------------------------------------------------
 Center     Atomic      Atomic             Coordinates (Angstroms)
 Number     Number       Type             X           Y           Z
 ---------------------------------------------------------------------
      1          6           0        0.867254    0.750367   -0.006659
      2          6           0        1.031277   -0.573175    0.003733
      3          8           0       -0.267478   -1.103384   -0.017968
      4          6           0       -1.161435   -0.142458    0.039961
      5          6           0       -0.452088    1.109645   -0.021723
      6          1           0       -0.915346    2.034524    0.000670
      7          1           0       -2.163544   -0.350638   -0.026643
      8          1           0        1.785176   -1.221629    0.023659
      9          1           0        1.723492    1.498536    0.054184
 ---------------------------------------------------------------------

 SCF Done:  E(RAM1) =  0.392886913471E-01 A.U. after   14 cycles

 Excitation energies and oscillator strengths:

 Excited State   1:      Singlet-A      4.2091 eV  294.56 nm  f=0.1164  <S**2>=0.000
      12 -> 15         0.16851
      13 -> 14         0.66937
 This state for optimization and/or second-order correction.
 Total Energy, E(CIS) =  0.193972063910
 Copying the excited state density for this state as the 1-particle RhoCI density.

 Excited State   2:      Singlet-A      4.4166 eV  280.72 nm  f=0.0027  <S**2>=0.000
      13 -> 15        -0.14211
      13 -> 16         0.67333

 Excited State   3:      Singlet-A      4.9281 eV  251.59 nm  f=0.0209  <S**2>=0.000
      12 -> 14        -0.36390
      13 -> 15         0.58301
      13 -> 16         0.14232

 Excited State   4:      Singlet-A      5.5044 eV  225.25 nm  f=0.0004  <S**2>=0.000
      12 -> 17         0.13890
      13 -> 17         0.55920
      13 -> 20         0.27168
      13 -> 21        -0.14629
      13 -> 22         0.17401

 Excited State   5:      Singlet-A      6.0351 eV  205.44 nm  f=0.0079  <S**2>=0.000
       7 -> 16        -0.16464
      12 -> 15        -0.13766
      12 -> 16         0.63517

 Excited State   6:      Singlet-A      6.1514 eV  201.55 nm  f=0.1223  <S**2>=0.000
      11 -> 14         0.15985
      12 -> 14        -0.34444
      12 -> 18        -0.11787
      12 -> 19        -0.11390
      13 -> 15        -0.21360
      13 -> 18         0.36138
      13 -> 19         0.21203
      13 -> 23        -0.19092

 Excited State   7:      Singlet-A      6.1815 eV  200.57 nm  f=0.1918  <S**2>=0.000
      12 -> 14         0.43153
      12 -> 16        -0.12481
      12 -> 18        -0.11405
      13 -> 15         0.25605
      13 -> 18         0.29527
      13 -> 19         0.18169
      13 -> 23        -0.16267

 Excited State   8:      Singlet-A      6.5503 eV  189.28 nm  f=0.0365  <S**2>=0.000
      10 -> 14        -0.25186
      11 -> 14         0.51560
      11 -> 15         0.20120
      12 -> 15        -0.25715
      13 -> 19        -0.13171

 Excited State   9:      Singlet-A      6.6299 eV  187.01 nm  f=0.0017  <S**2>=0.000
      10 -> 14        -0.11344
      13 -> 18        -0.35016
      13 -> 19         0.51544
      13 -> 21         0.16795
      13 -> 23         0.12608

 Excited State  10:      Singlet-A      6.6732 eV  185.79 nm  f=0.1118  <S**2>=0.000
      11 -> 14         0.21013
      12 -> 15         0.60365
      12 -> 16         0.14417
      13 -> 14        -0.13866

 Excited State  11:      Singlet-A      7.2831 eV  170.24 nm  f=0.0004  <S**2>=0.000
      10 -> 14         0.49830
      10 -> 15        -0.25302
      11 -> 14         0.26202
      12 -> 17         0.12495
      12 -> 19         0.10496
      13 -> 17        -0.12183
      13 -> 19         0.11826
      13 -> 20         0.12551

 Excited State  12:      Singlet-A      7.3128 eV  169.55 nm  f=0.0009  <S**2>=0.000
       7 -> 16        -0.10321
      12 -> 17        -0.23724
      12 -> 18         0.40185
      12 -> 22        -0.10651
      12 -> 23        -0.12454
      13 -> 17         0.22524
      13 -> 19         0.12389
      13 -> 22        -0.30460
      13 -> 24         0.19749

 Excited State  13:      Singlet-A      7.4398 eV  166.65 nm  f=0.0089  <S**2>=0.000
       9 -> 15        -0.11201
      10 -> 14         0.17853
      12 -> 18        -0.20225
      12 -> 19        -0.15437
      12 -> 23         0.11727
      13 -> 17         0.20395
      13 -> 19        -0.19983
      13 -> 20        -0.11091
      13 -> 21         0.44554
      13 -> 22        -0.14393
      13 -> 24        -0.13038

 Excited State  14:      Singlet-A      7.5508 eV  164.20 nm  f=0.0067  <S**2>=0.000
      12 -> 17         0.16462
      12 -> 19         0.31082
      12 -> 20         0.10319
      12 -> 21         0.14641
      13 -> 18         0.23136
      13 -> 20         0.27322
      13 -> 21         0.17125
      13 -> 22        -0.22269
      13 -> 23         0.30470

 Excited State  15:      Singlet-A      7.6771 eV  161.50 nm  f=0.0014  <S**2>=0.000
      10 -> 14        -0.11710
      11 -> 15        -0.11097
      12 -> 17         0.30663
      12 -> 18         0.14899
      12 -> 19        -0.12840
      12 -> 20        -0.11948
      12 -> 21        -0.16112
      12 -> 22         0.10985
      13 -> 17        -0.13698
      13 -> 18        -0.18482
      13 -> 20         0.21662
      13 -> 21         0.10342
      13 -> 22        -0.26872
      13 -> 23        -0.24677

 The electronic state is 1-A.
 Alpha  occ. eigenvalues --   -1.57830  -1.24454  -1.10672  -0.83865  -0.81373
 Alpha  occ. eigenvalues --   -0.69386  -0.60813  -0.58411  -0.51914  -0.49830
 Alpha  occ. eigenvalues --   -0.48680  -0.40391  -0.33632
 Alpha virt. eigenvalues --    0.02438   0.06595   0.08810   0.13901   0.15404
 Alpha virt. eigenvalues --    0.16432   0.17511   0.19071   0.19416   0.21055
 Alpha virt. eigenvalues --    0.22499

 Mulliken charges:
               1
     1  C   -0.175643
     2  C   -0.114050
     3  O   -0.075695
     4  C   -0.085257
     5  C   -0.231404
     6  H    0.155589
     7  H    0.187937
     8  H    0.185043
     9  H    0.153480
 Sum of Mulliken charges =   0.00000

 Dipole moment (field-independent basis, Debye):
    X=             -0.0086    Y=              0.3098    Z=              0.0433  Tot=              0.3129
 N-N= 1.039073816921D+02 E-N=-1.716893215953D+02  KE=-1.662185782779D+01
 Orbital energies and kinetic energies (alpha):
                                 1                 2
   1         O                -1.578303         -1.321746
   2         O                -1.244540         -1.056149
   3         O                -1.106724         -0.967367
   4         O                -0.838650         -0.735375
   5         O                -0.813726         -0.704215
   6         O                -0.693863         -0.606465
   7         O                -0.608126         -0.490592

 Normal termination of Gaussian 09 at Tue Dec 15 16:30:29 2015.
