 Gaussian 09, Revision D.01,
 Gaussian 09:  ES64L-G09RevD.01 24-Apr-2013

 -------------------------------------------------------
 #P B3LYP/3-21G CIS(Singlets,NStates=15) pop(full) force
 -------------------------------------------------------

 --------
 FuranDFT
 --------
 Symbolic Z-matrix:
 Charge =  0 Multiplicity = 1

                         Standard orientation:
 ---------------------------------------------------------------------
 Center     Atomic      Atomic             Coordinates (Angstroms)
 Number     Number       Type             X           Y           Z
 ---------------------------------------------------------------------
      1          6           0        0.210344    1.215219    0.000537
      2          6           0        1.154654    0.153317    0.005513
      3          8           0        0.507579   -1.068729   -0.020091
      4          6           0       -0.798119   -0.745271    0.028571
      5          6           0       -1.090367    0.497913   -0.007144
      6          1           0       -2.018436    1.049665   -0.014923
      7          1           0       -1.467395   -1.591341   -0.012691
      8          1           0        2.158500    0.144025    0.042539
      9          1           0        0.407627    2.220422   -0.019058
 ---------------------------------------------------------------------

 SCF Done:  E(RB3LYP) =  -228.728866566     A.U. after   14 cycles

 Excitation energies and oscillator strengths:

 Excited State   1:      Singlet-A      7.1829 eV  172.61 nm  f=0.0932  <S**2>=0.000
      17 -> 19         0.44519
      18 -> 19         0.44994
      18 -> 20         0.28208
 This state for optimization and/or second-order correction.
 Total Energy, E(CIS) =  -228.464899543
 Copying the excited state density for this state as the 1-particle RhoCI density.

 Excited State   2:      Singlet-A      7.3390 eV  168.94 nm  f=0.1096  <S**2>=0.000
      17 -> 19        -0.28579
      18 -> 19         0.49882
      18 -> 20        -0.38504

 Excited State   3:      Singlet-A      8.7721 eV  141.34 nm  f=0.0006  <S**2>=0.000
      16 -> 19        -0.12173
      18 -> 21         0.68864

 Excited State   4:      Singlet-A      8.8882 eV  139.49 nm  f=0.0140  <S**2>=0.000
      16 -> 19         0.66599
      18 -> 20         0.10548
      18 -> 21         0.12099

 Excited State   5:      Singlet-A      9.0758 eV  136.61 nm  f=0.2095  <S**2>=0.000
      16 -> 19         0.17127
      17 -> 19         0.31229
      17 -> 20         0.44719
      18 -> 20        -0.35517

 Excited State   6:      Singlet-A      9.4992 eV  130.52 nm  f=0.0014  <S**2>=0.000
      15 -> 19         0.33041
      18 -> 22         0.58760
      18 -> 23        -0.15042

 Excited State   7:      Singlet-A      9.6631 eV  128.31 nm  f=0.0022  <S**2>=0.000
      15 -> 19         0.60890
      18 -> 22        -0.32600

 Excited State   8:      Singlet-A      9.9049 eV  125.18 nm  f=0.0103  <S**2>=0.000
      17 -> 21         0.65087
      18 -> 22        -0.13622
      18 -> 23        -0.16538

 Excited State   9:      Singlet-A     10.0840 eV  122.95 nm  f=0.3340  <S**2>=0.000
      17 -> 19        -0.23673
      17 -> 20         0.44427
      17 -> 21         0.18979
      18 -> 20         0.27720
      18 -> 23         0.24338

 Excited State  10:      Singlet-A     10.1668 eV  121.95 nm  f=0.0903  <S**2>=0.000
      17 -> 19         0.12292
      17 -> 20        -0.18998
      17 -> 21         0.12607
      18 -> 20        -0.14110
      18 -> 22         0.10072
      18 -> 23         0.57544
      18 -> 24         0.17047

 Excited State  11:      Singlet-A     10.4186 eV  119.00 nm  f=0.0045  <S**2>=0.000
      14 -> 19         0.48408
      16 -> 20         0.45697
      17 -> 22         0.15442

 Excited State  12:      Singlet-A     10.5913 eV  117.06 nm  f=0.0001  <S**2>=0.000
      18 -> 23        -0.18962
      18 -> 24         0.65942

 Excited State  13:      Singlet-A     10.6823 eV  116.07 nm  f=0.0148  <S**2>=0.000
      16 -> 20        -0.13157
      17 -> 22         0.63870
      18 -> 25        -0.16954

 Excited State  14:      Singlet-A     10.7261 eV  115.59 nm  f=0.0002  <S**2>=0.000
      14 -> 19         0.47971
      15 -> 20         0.16218
      16 -> 20        -0.46543

 Excited State  15:      Singlet-A     10.9053 eV  113.69 nm  f=0.0082  <S**2>=0.000
      17 -> 22         0.18761
      18 -> 23         0.10419
      18 -> 25         0.65708

 The electronic state is 1-A.
 Alpha  occ. eigenvalues --  -19.11610 -10.17469 -10.16777 -10.12986 -10.12131
 Alpha  occ. eigenvalues --   -1.12956  -0.80806  -0.74839  -0.61075  -0.57360
 Alpha  occ. eigenvalues --   -0.54835  -0.45607  -0.44877  -0.42674  -0.39022
 Alpha  occ. eigenvalues --   -0.36553  -0.27792  -0.23382
 Alpha virt. eigenvalues --    0.01923   0.08056   0.13518   0.16017   0.18787
 Alpha virt. eigenvalues --    0.19483   0.20759   0.23130   0.34669   0.42182
 Alpha virt. eigenvalues --    0.46160   0.66604   0.69896   0.70356   0.74843

 Mulliken charges:
               1
     1  C   -0.254193
     2  C    0.055897
     3  O   -0.480487
     4  C    0.112369
     5  C   -0.242409
     6  H    0.193816
     7  H    0.210653
     8  H    0.215407
     9  H    0.188947
 Sum of Mulliken charges =   0.00000

 Dipole moment (field-independent basis, Debye):
    X=             -0.3268    Y=              0.7958    Z=              0.0143  Tot=              0.8604
 Quadrupole moment (field-independent basis, Debye-Ang):
   XX=            -24.5600   YY=            -27.3003   ZZ=            -31.6716
   XY=              1.3790   XZ=              0.1837   YZ=             -0.0402

 Normal termination of Gaussian 09 at Tue Dec 15 16:17:13 2015.
