 Gaussian 09, Revision D.01,
 Gaussian 09:  ES64L-G09RevD.01 24-Apr-2013

 ------------------------------------------------------------
 #P AM1(Input,print) CIS(Singlets,NStates=15) pop(full) force
 ------------------------------------------------------------

 -----------------
 AM1-Reparam Input
 -----------------
 Symbolic Z-matrix:
 Charge =  0 Multiplicity = 1

                         Standard orientation:
 ---------------------------------------------------------------------
 Center     Atomic      Atomic             Coordinates (Angstroms)
 Number     Number       Type             X           Y           Z
 ---------------------------------------------------------------------
      1          6           0        0.699464    0.957538   -0.011056
      2          6           0        1.134713   -0.301575   -0.003416
      3          8           0        0.025016   -1.146156   -0.012566
      4          6           0       -1.088091   -0.362235    0.026599
      5          6           0       -0.773046    0.941971    0.004832
      6          1           0       -1.398015    1.705741   -0.031000
      7          1           0       -2.025956   -0.964620   -0.042853
      8          1           0        2.075277   -0.823505    0.056105
      9          1           0        1.310319    1.837434    0.016522
 ---------------------------------------------------------------------

 SCF Done:  E(RAM1) =   2.85457217108     A.U. after   13 cycles

 Excitation energies and oscillator strengths:

 Excited State   1:      Singlet-A      5.0552 eV  245.26 nm  f=0.3507  <S**2>=0.000
      13 -> 14         0.69622
 This state for optimization and/or second-order correction.
 Total Energy, E(CIS) =   3.04034619362
 Copying the excited state density for this state as the 1-particle RhoCI density.

 Excited State   2:      Singlet-A      6.0313 eV  205.57 nm  f=0.0009  <S**2>=0.000
      11 -> 15         0.11274
      13 -> 15         0.65716
      13 -> 17         0.15863
      13 -> 18         0.14448

 Excited State   3:      Singlet-A      6.4580 eV  191.99 nm  f=0.0025  <S**2>=0.000
      11 -> 16        -0.10684
      12 -> 14        -0.12103
      13 -> 16         0.63089
      13 -> 17         0.12908
      13 -> 18        -0.21496

 Excited State   4:      Singlet-A      6.5670 eV  188.80 nm  f=0.0003  <S**2>=0.000
       9 -> 14         0.10251
      12 -> 14         0.68574
      13 -> 16         0.11993

 Excited State   5:      Singlet-A      7.3872 eV  167.84 nm  f=0.0053  <S**2>=0.000
      13 -> 15        -0.16429
      13 -> 17         0.39315
      13 -> 18         0.39103
      13 -> 19        -0.25978
      13 -> 20        -0.25202

 Excited State   6:      Singlet-A      7.7392 eV  160.20 nm  f=0.0256  <S**2>=0.000
      10 -> 14         0.25652
      13 -> 16        -0.18258
      13 -> 17         0.49068
      13 -> 18        -0.26326
      13 -> 19         0.20146
      13 -> 20         0.17745

 Excited State   7:      Singlet-A      7.9019 eV  156.91 nm  f=0.0010  <S**2>=0.000
      10 -> 14         0.64874
      13 -> 17        -0.23100

 Excited State   8:      Singlet-A      8.3295 eV  148.85 nm  f=0.0001  <S**2>=0.000
      13 -> 16         0.11686
      13 -> 18         0.40432
      13 -> 19         0.53189
      13 -> 20         0.14933

 Excited State   9:      Singlet-A      8.5919 eV  144.30 nm  f=0.0856  <S**2>=0.000
      11 -> 14         0.67226
      12 -> 15        -0.10247

 Excited State  10:      Singlet-A      9.0534 eV  136.95 nm  f=0.0151  <S**2>=0.000
      13 -> 18         0.18416
      13 -> 19        -0.30287
      13 -> 20         0.57134
      13 -> 21         0.19319

 Excited State  11:      Singlet-A      9.1406 eV  135.64 nm  f=0.1130  <S**2>=0.000
       8 -> 15         0.13363
      10 -> 17        -0.13592
      12 -> 15         0.50161
      12 -> 16        -0.27302
      12 -> 17         0.11851
      12 -> 18         0.22969
      12 -> 19        -0.11787

 Excited State  12:      Singlet-A      9.4702 eV  130.92 nm  f=0.0679  <S**2>=0.000
      13 -> 20        -0.20910
      13 -> 21         0.66278

 Excited State  13:      Singlet-A      9.6263 eV  128.80 nm  f=0.0926  <S**2>=0.000
      10 -> 15         0.20426
      10 -> 17         0.11525
      11 -> 14         0.15683
      12 -> 15         0.35701
      12 -> 16         0.45295
      12 -> 18        -0.15889
      12 -> 19         0.14973

 Excited State  14:      Singlet-A      9.8044 eV  126.46 nm  f=0.0998  <S**2>=0.000
       9 -> 16        -0.13913
      10 -> 15        -0.16769
      10 -> 16        -0.21953
      10 -> 17        -0.22956
      10 -> 18         0.10885
      12 -> 15        -0.11195
      12 -> 16         0.35548
      12 -> 17         0.21955
      12 -> 18         0.12504
      12 -> 19        -0.28124
      12 -> 20        -0.11457

 Excited State  15:      Singlet-A      9.8826 eV  125.46 nm  f=0.0033  <S**2>=0.000
       7 -> 15        -0.14653
       9 -> 14        -0.10350
      11 -> 15         0.63523
      11 -> 17         0.10722
      13 -> 15        -0.13814

 The electronic state is 1-A.
 Alpha  occ. eigenvalues --   -1.71370  -1.11425  -0.92669  -0.79920  -0.74886
 Alpha  occ. eigenvalues --   -0.66525  -0.63236  -0.53996  -0.50041  -0.44121
 Alpha  occ. eigenvalues --   -0.43381  -0.39543  -0.27396
 Alpha virt. eigenvalues --    0.11199   0.17022   0.19008   0.25290   0.27415
 Alpha virt. eigenvalues --    0.28864   0.30281   0.31568   0.35814   0.44771
 Alpha virt. eigenvalues --    0.48878

 Mulliken charges:
               1
     1  C   -0.134467
     2  C   -1.915416
     3  O    3.210848
     4  C   -1.926820
     5  C   -0.172097
     6  H    0.179634
     7  H    0.291457
     8  H    0.288153
     9  H    0.178706
 Sum of Mulliken charges =   0.00000

 Dipole moment (field-independent basis, Debye):
    X=              0.1000    Y=            -10.9420    Z=             -0.3498  Tot=             10.9481
 N-N= 1.038487848443D+02 E-N=-1.688511397345D+02  KE=-1.476708514173D+01
 Orbital energies and kinetic energies (alpha):
                                 1                 2
   1         O                -1.713697         -1.197945
   2         O                -1.114250         -0.984058
   3         O                -0.926691         -0.849633
   4         O                -0.799200         -0.606324
   5         O                -0.748858         -0.672919
   6         O                -0.665249         -0.569998
   7         O                -0.632363         -0.518563

 Normal termination of Gaussian 09 at Tue Dec 15 17:06:04 2015.
