 Gaussian 09, Revision D.01,
 Gaussian 09:  ES64L-G09RevD.01 24-Apr-2013

 ------------------------------------------------------------
 #P AM1(Input,print) CIS(Singlets,NStates=15) pop(full) force
 ------------------------------------------------------------

 -----------------
 AM1-Reparam Input
 -----------------
 Symbolic Z-matrix:
 Charge =  0 Multiplicity = 1

                         Standard orientation:
 ---------------------------------------------------------------------
 Center     Atomic      Atomic             Coordinates (Angstroms)
 Number     Number       Type             X           Y           Z
 ---------------------------------------------------------------------
      1          6           0       -0.197900    1.156390    0.043568
      2          6           0       -1.108520    0.162563   -0.029677
      3          8           0       -0.565897   -1.014703   -0.009038
      4          6           0        0.806026   -0.773399    0.040957
      5          6           0        1.094403    0.493035   -0.035791
      6          1           0        2.056486    1.014981   -0.046533
      7          1           0        1.469283   -1.654014   -0.007324
      8          1           0       -2.224715    0.233390    0.020765
      9          1           0       -0.337938    2.291729   -0.008945
 ---------------------------------------------------------------------

 SCF Done:  E(RAM1) =   2.61649684532     A.U. after   13 cycles

 Excitation energies and oscillator strengths:

 Excited State   1:      Singlet-A      4.9033 eV  252.86 nm  f=0.3521  <S**2>=0.000
      13 -> 14         0.69931
 This state for optimization and/or second-order correction.
 Total Energy, E(CIS) =   2.79668985362
 Copying the excited state density for this state as the 1-particle RhoCI density.

 Excited State   2:      Singlet-A      5.7248 eV  216.57 nm  f=0.0007  <S**2>=0.000
      13 -> 15         0.66473
      13 -> 16        -0.10683
      13 -> 17         0.12257
      13 -> 19        -0.10893

 Excited State   3:      Singlet-A      6.2464 eV  198.49 nm  f=0.0004  <S**2>=0.000
      12 -> 14         0.69981

 Excited State   4:      Singlet-A      6.3039 eV  196.68 nm  f=0.0023  <S**2>=0.000
      13 -> 15         0.12253
      13 -> 16         0.66679

 Excited State   5:      Singlet-A      7.4678 eV  166.02 nm  f=0.0049  <S**2>=0.000
      10 -> 14        -0.18112
      11 -> 14         0.50730
      13 -> 17         0.43041

 Excited State   6:      Singlet-A      7.4748 eV  165.87 nm  f=0.0033  <S**2>=0.000
      10 -> 14         0.13028
      11 -> 14        -0.42637
      13 -> 16         0.11428
      13 -> 17         0.51427

 Excited State   7:      Singlet-A      8.5171 eV  145.57 nm  f=0.1214  <S**2>=0.000
      10 -> 14         0.65120
      11 -> 14         0.21877

 Excited State   8:      Singlet-A      8.7449 eV  141.78 nm  f=0.0080  <S**2>=0.000
      10 -> 15        -0.18496
      13 -> 18         0.64111
      13 -> 19         0.13296

 Excited State   9:      Singlet-A      8.8925 eV  139.43 nm  f=0.1378  <S**2>=0.000
       8 -> 16        -0.10070
      12 -> 15         0.55144
      12 -> 16        -0.22929
      12 -> 17         0.25881

 Excited State  10:      Singlet-A      9.2538 eV  133.98 nm  f=0.0022  <S**2>=0.000
      10 -> 16        -0.17815
      11 -> 16        -0.10387
      13 -> 18        -0.12160
      13 -> 19         0.64051

 Excited State  11:      Singlet-A      9.4383 eV  131.36 nm  f=0.0613  <S**2>=0.000
      10 -> 15        -0.10905
      11 -> 15         0.32148
      11 -> 16         0.12603
      11 -> 18        -0.18641
      12 -> 15         0.33073
      12 -> 16         0.28257
      12 -> 17        -0.29086
      12 -> 18        -0.11724

 Excited State  12:      Singlet-A      9.7108 eV  127.68 nm  f=0.1477  <S**2>=0.000
       8 -> 16         0.11493
      10 -> 15        -0.14375
      11 -> 16        -0.26264
      11 -> 18         0.11086
      12 -> 16         0.48781
      12 -> 17         0.29681

 Excited State  13:      Singlet-A      9.8032 eV  126.47 nm  f=0.0051  <S**2>=0.000
       7 -> 15         0.13522
      10 -> 15         0.53712
      11 -> 15         0.30335
      12 -> 17         0.10785
      13 -> 15         0.11420
      13 -> 18         0.19322

 Excited State  14:      Singlet-A     10.2119 eV  121.41 nm  f=0.0245  <S**2>=0.000
       8 -> 15         0.17490
       8 -> 16        -0.12948
       9 -> 15        -0.25019
       9 -> 16        -0.12132
      10 -> 15        -0.21929
      11 -> 15         0.31236
      11 -> 16        -0.16903
      11 -> 17        -0.14862
      11 -> 19        -0.19323
      12 -> 15        -0.13439
      12 -> 16        -0.15849
      12 -> 17         0.11896
      12 -> 18        -0.16951

 Excited State  15:      Singlet-A     10.3444 eV  119.86 nm  f=0.0116  <S**2>=0.000
       8 -> 16         0.13325
       9 -> 14         0.25984
      10 -> 16         0.45314
      11 -> 16         0.31278
      12 -> 17         0.14460
      13 -> 16        -0.10427
      13 -> 19         0.15060

 The electronic state is 1-A.
 Alpha  occ. eigenvalues --   -1.85361  -1.12687  -0.87223  -0.79067  -0.73910
 Alpha  occ. eigenvalues --   -0.66320  -0.63785  -0.54393  -0.53652  -0.44855
 Alpha  occ. eigenvalues --   -0.44190  -0.40733  -0.28502
 Alpha virt. eigenvalues --    0.09394   0.15575   0.17993   0.25100   0.27620
 Alpha virt. eigenvalues --    0.30021   0.36083   0.40969   0.49778   0.57632
 Alpha virt. eigenvalues --    0.61191

 Mulliken charges:
               1
     1  C   -0.260524
     2  C   -2.024565
     3  O    3.422234
     4  C   -1.970315
     5  C   -0.125519
     6  H    0.180791
     7  H    0.279898
     8  H    0.301620
     9  H    0.196381
 Sum of Mulliken charges =   0.00000

 Dipole moment (field-independent basis, Debye):
    X=             -5.6023    Y=             -9.9614    Z=             -0.2954  Tot=             11.4325
 N-N= 1.042048065512D+02 E-N=-1.701487874824D+02  KE=-1.433426018391D+01
 Orbital energies and kinetic energies (alpha):
                                 1                 2
   1         O                -1.853612         -1.266536
   2         O                -1.126871         -0.970373
   3         O                -0.872228         -0.793772
   4         O                -0.790672         -0.515274
   5         O                -0.739097         -0.627338
   6         O                -0.663195         -0.519635
   7         O                -0.637855         -0.499959

 Normal termination of Gaussian 09 at Tue Dec 15 17:07:43 2015.
