 Gaussian 09, Revision D.01,
 Gaussian 09:  ES64L-G09RevD.01 24-Apr-2013

 ------------------------------------------------------------
 #P AM1(Input,print) CIS(Singlets,NStates=15) pop(full) force
 ------------------------------------------------------------

 -----------------
 AM1-Reparam Input
 -----------------
 Symbolic Z-matrix:
 Charge =  0 Multiplicity = 1

                         Standard orientation:
 ---------------------------------------------------------------------
 Center     Atomic      Atomic             Coordinates (Angstroms)
 Number     Number       Type             X           Y           Z
 ---------------------------------------------------------------------
      1          6           0       -0.876845    0.810863    0.003037
      2          6           0       -1.038661   -0.488756    0.018427
      3          8           0        0.198093   -1.086035   -0.031322
      4          6           0        1.112108   -0.203469    0.036920
      5          6           0        0.596026    1.014068   -0.009220
      6          1           0        1.077561    1.972741   -0.017671
      7          1           0        2.108694   -0.511949   -0.013008
      8          1           0       -1.906568   -1.134547    0.030369
      9          1           0       -1.620199    1.565802   -0.044097
 ---------------------------------------------------------------------

 SCF Done:  E(RAM1) =   2.57287689086     A.U. after   13 cycles

 Excitation energies and oscillator strengths:

 Excited State   1:      Singlet-A      5.0278 eV  246.60 nm  f=0.3557  <S**2>=0.000
      13 -> 14         0.69745
 This state for optimization and/or second-order correction.
 Total Energy, E(CIS) =   2.75764491618
 Copying the excited state density for this state as the 1-particle RhoCI density.

 Excited State   2:      Singlet-A      5.9285 eV  209.13 nm  f=0.0024  <S**2>=0.000
      13 -> 15         0.67088
      13 -> 17         0.14245

 Excited State   3:      Singlet-A      6.4226 eV  193.04 nm  f=0.0021  <S**2>=0.000
      13 -> 16         0.64815
      13 -> 17         0.12517
      13 -> 18         0.18697

 Excited State   4:      Singlet-A      6.4560 eV  192.05 nm  f=0.0000  <S**2>=0.000
       9 -> 14        -0.11794
      12 -> 14         0.69297

 Excited State   5:      Singlet-A      7.4175 eV  167.15 nm  f=0.0002  <S**2>=0.000
      13 -> 16        -0.16955
      13 -> 18         0.61848
      13 -> 20        -0.11261
      13 -> 21         0.23006

 Excited State   6:      Singlet-A      7.8891 eV  157.16 nm  f=0.0089  <S**2>=0.000
      10 -> 14        -0.32549
      11 -> 14         0.54178
      13 -> 17        -0.28876

 Excited State   7:      Singlet-A      8.0887 eV  153.28 nm  f=0.0041  <S**2>=0.000
      10 -> 14        -0.15249
      11 -> 14         0.26344
      13 -> 15        -0.12907
      13 -> 17         0.59961
      13 -> 19        -0.11101

 Excited State   8:      Singlet-A      8.6956 eV  142.58 nm  f=0.0001  <S**2>=0.000
      13 -> 16        -0.11363
      13 -> 17         0.10204
      13 -> 19         0.67106

 Excited State   9:      Singlet-A      8.8123 eV  140.69 nm  f=0.0921  <S**2>=0.000
      10 -> 14         0.56986
      11 -> 14         0.33705
      12 -> 16         0.14071

 Excited State  10:      Singlet-A      9.0632 eV  136.80 nm  f=0.0980  <S**2>=0.000
      12 -> 15         0.57630
      12 -> 16        -0.21979
      12 -> 18        -0.23668

 Excited State  11:      Singlet-A      9.2711 eV  133.73 nm  f=0.0128  <S**2>=0.000
       9 -> 14         0.10496
      13 -> 18         0.24294
      13 -> 20         0.48168
      13 -> 21        -0.43327

 Excited State  12:      Singlet-A      9.4727 eV  130.89 nm  f=0.0295  <S**2>=0.000
       9 -> 14         0.10451
       9 -> 15         0.17584
      10 -> 14        -0.14486
      10 -> 15        -0.12935
      10 -> 17        -0.10192
      11 -> 14        -0.10065
      11 -> 15         0.17591
      11 -> 17         0.14845
      12 -> 15         0.29564
      12 -> 16         0.36495
      12 -> 17         0.10006
      12 -> 18         0.28276

 Excited State  13:      Singlet-A      9.5371 eV  130.00 nm  f=0.0086  <S**2>=0.000
       9 -> 14         0.64883
      12 -> 14         0.11134
      13 -> 20        -0.18788

 Excited State  14:      Singlet-A      9.7024 eV  127.79 nm  f=0.0851  <S**2>=0.000
       9 -> 14         0.17632
      12 -> 16         0.12290
      13 -> 20         0.42640
      13 -> 21         0.48479

 Excited State  15:      Singlet-A      9.7609 eV  127.02 nm  f=0.0939  <S**2>=0.000
       9 -> 15        -0.11528
       9 -> 16         0.10381
      10 -> 16         0.11388
      11 -> 15        -0.11407
      11 -> 16        -0.23979
      11 -> 17        -0.14297
      12 -> 16         0.45264
      12 -> 18        -0.27633
      12 -> 19         0.12447
      13 -> 20        -0.12517
      13 -> 21        -0.10440

 The electronic state is 1-A.
 Alpha  occ. eigenvalues --   -1.77958  -1.16058  -0.98607  -0.82529  -0.76826
 Alpha  occ. eigenvalues --   -0.67935  -0.66424  -0.56813  -0.49541  -0.45798
 Alpha  occ. eigenvalues --   -0.45234  -0.40356  -0.28432
 Alpha virt. eigenvalues --    0.10053   0.16298   0.18315   0.25442   0.26228
 Alpha virt. eigenvalues --    0.28376   0.30657   0.31298   0.41764   0.50330
 Alpha virt. eigenvalues --    0.55841

 Mulliken charges:
               1
     1  C   -0.013582
     2  C   -1.904516
     3  O    3.229668
     4  C   -1.938189
     5  C   -0.169984
     6  H    0.132958
     7  H    0.283029
     8  H    0.262444
     9  H    0.118172
 Sum of Mulliken charges =   0.00000

 Dipole moment (field-independent basis, Debye):
    X=              1.8576    Y=             -9.7434    Z=             -0.8752  Tot=              9.9575
 N-N= 1.047203716100D+02 E-N=-1.701241672108D+02  KE=-1.512059878742D+01
 Orbital energies and kinetic energies (alpha):
                                 1                 2
   1         O                -1.779581         -1.290105
   2         O                -1.160582         -1.001337
   3         O                -0.986069         -0.880620
   4         O                -0.825286         -0.618410
   5         O                -0.768264         -0.702748
   6         O                -0.679351         -0.550908
   7         O                -0.664243         -0.533251

 Normal termination of Gaussian 09 at Tue Dec 15 17:06:22 2015.
