 Gaussian 09, Revision D.01,
 Gaussian 09:  ES64L-G09RevD.01 24-Apr-2013

 ------------------------------------------------------------
 #P AM1(Input,print) CIS(Singlets,NStates=15) pop(full) force
 ------------------------------------------------------------

 -----------------
 AM1-Reparam Input
 -----------------
 Symbolic Z-matrix:
 Charge =  0 Multiplicity = 1

                         Standard orientation:
 ---------------------------------------------------------------------
 Center     Atomic      Atomic             Coordinates (Angstroms)
 Number     Number       Type             X           Y           Z
 ---------------------------------------------------------------------
      1          6           0       -0.684561    0.942479   -0.004022
      2          6           0       -1.128426   -0.256752    0.028697
      3          8           0       -0.062078   -1.183638   -0.026626
      4          6           0        1.134487   -0.371953    0.024121
      5          6           0        0.738963    0.954621   -0.025195
      6          1           0        1.430802    1.758637    0.020651
      7          1           0        2.086086   -0.898317    0.043721
      8          1           0       -2.030648   -0.814098   -0.001215
      9          1           0       -1.352394    1.812515    0.008243
 ---------------------------------------------------------------------

 SCF Done:  E(RAM1) =  0.263773198985E-01 A.U. after   13 cycles

 Excitation energies and oscillator strengths:

 Excited State   1:      Singlet-A      4.4550 eV  278.30 nm  f=0.0977  <S**2>=0.000
      12 -> 15         0.17454
      13 -> 14         0.67456
 This state for optimization and/or second-order correction.
 Total Energy, E(CIS) =  0.190097331149
 Copying the excited state density for this state as the 1-particle RhoCI density.

 Excited State   2:      Singlet-A      5.1902 eV  238.88 nm  f=0.0007  <S**2>=0.000
      13 -> 16         0.68881

 Excited State   3:      Singlet-A      5.2401 eV  236.61 nm  f=0.0011  <S**2>=0.000
      12 -> 14        -0.47598
      13 -> 15         0.51235

 Excited State   4:      Singlet-A      5.8125 eV  213.31 nm  f=0.0017  <S**2>=0.000
       7 -> 16        -0.17046
      12 -> 16         0.55216
      12 -> 22        -0.14862
      13 -> 18        -0.29253
      13 -> 22        -0.16368

 Excited State   5:      Singlet-A      5.8780 eV  210.93 nm  f=0.0001  <S**2>=0.000
       7 -> 16        -0.13225
      12 -> 16         0.33378
      12 -> 18         0.14596
      13 -> 17         0.13731
      13 -> 18         0.43035
      13 -> 22         0.27600
      13 -> 23         0.12123

 Excited State   6:      Singlet-A      6.2188 eV  199.37 nm  f=0.3372  <S**2>=0.000
      11 -> 16        -0.14294
      12 -> 14         0.47237
      13 -> 15         0.46293

 Excited State   7:      Singlet-A      6.4026 eV  193.65 nm  f=0.0001  <S**2>=0.000
      12 -> 19         0.21128
      12 -> 23        -0.10051
      12 -> 24         0.10518
      13 -> 17         0.44793
      13 -> 18        -0.10401
      13 -> 19        -0.24410
      13 -> 22        -0.18258
      13 -> 23         0.23039
      13 -> 24        -0.14932

 Excited State   8:      Singlet-A      6.4708 eV  191.60 nm  f=0.0038  <S**2>=0.000
      11 -> 14         0.10977
      13 -> 17         0.40728
      13 -> 18        -0.15471
      13 -> 19         0.47194
      13 -> 20        -0.11519

 Excited State   9:      Singlet-A      6.6352 eV  186.86 nm  f=0.1051  <S**2>=0.000
      12 -> 15         0.66599
      13 -> 14        -0.15946

 Excited State  10:      Singlet-A      7.0015 eV  177.08 nm  f=0.0031  <S**2>=0.000
      10 -> 14         0.53528
      10 -> 15         0.20465
      11 -> 14         0.30523
      12 -> 17        -0.11039
      12 -> 18         0.12726

 Excited State  11:      Singlet-A      7.0513 eV  175.83 nm  f=0.0019  <S**2>=0.000
       7 -> 24        -0.10349
      10 -> 14        -0.17260
      12 -> 17        -0.34725
      12 -> 18         0.36003
      12 -> 19        -0.28634
      12 -> 20         0.13963
      13 -> 18        -0.19221
      13 -> 19        -0.11013
      13 -> 22         0.12467

 Excited State  12:      Singlet-A      7.3293 eV  169.16 nm  f=0.0005  <S**2>=0.000
       9 -> 14        -0.10350
       9 -> 15         0.12443
      10 -> 14        -0.27693
      10 -> 15        -0.10428
      11 -> 14         0.54411
      11 -> 15        -0.13319
      13 -> 19        -0.14125

 Excited State  13:      Singlet-A      7.4714 eV  165.95 nm  f=0.0023  <S**2>=0.000
      10 -> 14        -0.12971
      11 -> 14         0.13167
      12 -> 17        -0.22597
      12 -> 19         0.31223
      12 -> 21        -0.11211
      12 -> 22         0.13032
      12 -> 23        -0.16830
      13 -> 17        -0.14315
      13 -> 19         0.25487
      13 -> 20         0.15303
      13 -> 21        -0.24144
      13 -> 24        -0.19796

 Excited State  14:      Singlet-A      7.5533 eV  164.15 nm  f=0.0093  <S**2>=0.000
      12 -> 20        -0.17002
      13 -> 18        -0.26657
      13 -> 19        -0.13625
      13 -> 20        -0.22718
      13 -> 22         0.46642
      13 -> 23         0.15558

 Excited State  15:      Singlet-A      7.6333 eV  162.43 nm  f=0.0006  <S**2>=0.000
       9 -> 14        -0.19660
      11 -> 15        -0.14981
      12 -> 17         0.30316
      12 -> 18         0.28326
      12 -> 20        -0.16753
      12 -> 22         0.13054
      12 -> 24         0.12493
      13 -> 17        -0.11556
      13 -> 18        -0.12812
      13 -> 19         0.10044
      13 -> 20         0.22675
      13 -> 21         0.14233
      13 -> 24        -0.21768

 The electronic state is 1-A.
 Alpha  occ. eigenvalues --   -1.52462  -1.23019  -1.10224  -0.81863  -0.80449
 Alpha  occ. eigenvalues --   -0.67580  -0.57653  -0.55181  -0.51759  -0.50396
 Alpha  occ. eigenvalues --   -0.49494  -0.40219  -0.35094
 Alpha virt. eigenvalues --    0.02502   0.06832   0.09772   0.13680   0.13951
 Alpha virt. eigenvalues --    0.15349   0.17727   0.18033   0.19037   0.20801
 Alpha virt. eigenvalues --    0.21412

 Mulliken charges:
               1
     1  C   -0.186585
     2  C   -0.066941
     3  O   -0.152309
     4  C   -0.091753
     5  C   -0.186121
     6  H    0.158072
     7  H    0.192887
     8  H    0.180655
     9  H    0.152093
 Sum of Mulliken charges =   0.00000

 Dipole moment (field-independent basis, Debye):
    X=              0.1344    Y=              0.6350    Z=              0.0779  Tot=              0.6537
 N-N= 1.029345274631D+02 E-N=-1.702343525961D+02  KE=-1.647409620140D+01
 Orbital energies and kinetic energies (alpha):
                                 1                 2
   1         O                -1.524618         -1.298188
   2         O                -1.230193         -1.036194
   3         O                -1.102236         -0.965397
   4         O                -0.818628         -0.729043
   5         O                -0.804494         -0.699812
   6         O                -0.675804         -0.600237
   7         O                -0.576534         -0.475186

 Normal termination of Gaussian 09 at Tue Dec 15 16:15:29 2015.
