 Gaussian 09, Revision D.01,
 Gaussian 09:  ES64L-G09RevD.01 24-Apr-2013

 ------------------------------------------------------------
 #P AM1(Input,print) CIS(Singlets,NStates=15) pop(full) force
 ------------------------------------------------------------

 -----------------
 AM1-Reparam Input
 -----------------
 Symbolic Z-matrix:
 Charge =  0 Multiplicity = 1

                         Standard orientation:
 ---------------------------------------------------------------------
 Center     Atomic      Atomic             Coordinates (Angstroms)
 Number     Number       Type             X           Y           Z
 ---------------------------------------------------------------------
      1          6           0        0.956267    0.768817   -0.033050
      2          6           0       -0.446032    1.036165    0.027912
      3          8           0       -1.161625   -0.059223   -0.012288
      4          6           0       -0.315899   -1.090225   -0.000004
      5          6           0        1.029584   -0.673188   -0.002364
      6          1           0        1.929279   -1.218888    0.064128
      7          1           0       -0.770907   -2.058547    0.023451
      8          1           0       -0.921401    2.023070    0.013819
      9          1           0        1.712513    1.478739    0.041936
 ---------------------------------------------------------------------

 SCF Done:  E(RAM1) =   1.34938708361     A.U. after   13 cycles

 Excitation energies and oscillator strengths:

 Excited State   1:      Singlet-A      6.1460 eV  201.73 nm  f=0.3281  <S**2>=0.000
      13 -> 14         0.69261
 This state for optimization and/or second-order correction.
 Total Energy, E(CIS) =   1.57524692907
 Copying the excited state density for this state as the 1-particle RhoCI density.

 Excited State   2:      Singlet-A      6.5950 eV  188.00 nm  f=0.0015  <S**2>=0.000
      12 -> 16         0.11873
      13 -> 15         0.64961
      13 -> 17         0.22205

 Excited State   3:      Singlet-A      6.9609 eV  178.12 nm  f=0.0001  <S**2>=0.000
      12 -> 15         0.18152
      13 -> 16         0.63679
      13 -> 18         0.12270
      13 -> 21         0.14598

 Excited State   4:      Singlet-A      7.4761 eV  165.84 nm  f=0.0044  <S**2>=0.000
      11 -> 14         0.68251
      12 -> 14        -0.10404

 Excited State   5:      Singlet-A      8.0601 eV  153.82 nm  f=0.0160  <S**2>=0.000
      10 -> 14         0.21356
      12 -> 15         0.13644
      12 -> 16        -0.13482
      13 -> 15        -0.17216
      13 -> 17         0.60277

 Excited State   6:      Singlet-A      8.2272 eV  150.70 nm  f=0.0643  <S**2>=0.000
      10 -> 14        -0.29513
      12 -> 14         0.57498
      13 -> 17         0.18548
      13 -> 20         0.11218

 Excited State   7:      Singlet-A      8.2506 eV  150.27 nm  f=0.0037  <S**2>=0.000
      10 -> 14         0.13413
      12 -> 15        -0.26215
      13 -> 18         0.31673
      13 -> 22         0.51191

 Excited State   8:      Singlet-A      8.4062 eV  147.49 nm  f=0.0363  <S**2>=0.000
      10 -> 14         0.58214
      12 -> 14         0.33730
      13 -> 17        -0.13788

 Excited State   9:      Singlet-A      8.8419 eV  140.22 nm  f=0.0022  <S**2>=0.000
      12 -> 15         0.50305
      12 -> 17         0.11165
      13 -> 16        -0.15822
      13 -> 18         0.28836
      13 -> 19        -0.11521
      13 -> 21        -0.25119
      13 -> 22         0.13313

 Excited State  10:      Singlet-A      8.9655 eV  138.29 nm  f=0.0004  <S**2>=0.000
      13 -> 18         0.50540
      13 -> 19         0.13840
      13 -> 21         0.22805
      13 -> 22        -0.39054

 Excited State  11:      Singlet-A      9.0912 eV  136.38 nm  f=0.0021  <S**2>=0.000
      12 -> 15         0.25997
      12 -> 16        -0.13309
      13 -> 16        -0.16877
      13 -> 18        -0.18137
      13 -> 20         0.12415
      13 -> 21         0.53770
      13 -> 22         0.10244

 Excited State  12:      Singlet-A      9.2845 eV  133.54 nm  f=0.0463  <S**2>=0.000
      12 -> 16         0.50267
      13 -> 16        -0.12580
      13 -> 19         0.39483
      13 -> 20        -0.13876
      13 -> 22         0.11548

 Excited State  13:      Singlet-A      9.5817 eV  129.40 nm  f=0.0343  <S**2>=0.000
      12 -> 16        -0.37021
      13 -> 15         0.14676
      13 -> 19         0.48304
      13 -> 20        -0.20972
      13 -> 21        -0.16888

 Excited State  14:      Singlet-A      9.8315 eV  126.11 nm  f=0.0737  <S**2>=0.000
       8 -> 15         0.23264
       9 -> 15        -0.13131
       9 -> 16         0.10357
      10 -> 15         0.38092
      10 -> 17         0.24771
      11 -> 15         0.17885
      11 -> 16        -0.30294
      11 -> 18        -0.13349
      13 -> 20        -0.13804

 Excited State  15:      Singlet-A     10.0717 eV  123.10 nm  f=0.1700  <S**2>=0.000
       8 -> 16         0.17697
      10 -> 16         0.13763
      11 -> 15        -0.32426
      11 -> 16        -0.22297
      12 -> 14        -0.12744
      13 -> 19         0.13643
      13 -> 20         0.41750
      13 -> 21        -0.11225

 The electronic state is 1-A.
 Alpha  occ. eigenvalues --   -1.90262  -1.17150  -0.94636  -0.79244  -0.77157
 Alpha  occ. eigenvalues --   -0.67617  -0.61843  -0.50047  -0.48071  -0.41624
 Alpha  occ. eigenvalues --   -0.39364  -0.36553  -0.26445
 Alpha virt. eigenvalues --    0.16350   0.20869   0.22360   0.28449   0.30393
 Alpha virt. eigenvalues --    0.32377   0.32977   0.33047   0.34626   0.42680
 Alpha virt. eigenvalues --    0.48441

 Mulliken charges:
               1
     1  C   -0.056649
     2  C   -1.615726
     3  O    2.801361
     4  C   -1.581569
     5  C   -0.022131
     6  H    0.064853
     7  H    0.159708
     8  H    0.183235
     9  H    0.066919
 Sum of Mulliken charges =   0.00000

 Dipole moment (field-independent basis, Debye):
    X=             -8.9431    Y=             -0.3103    Z=             -0.2276  Tot=              8.9514
 N-N= 1.034745009433D+02 E-N=-1.697795896833D+02  KE=-1.587039250533D+01
 Orbital energies and kinetic energies (alpha):
                                 1                 2
   1         O                -1.902615         -1.405533
   2         O                -1.171495         -1.069210
   3         O                -0.946358         -0.850596
   4         O                -0.792445         -0.649211
   5         O                -0.771566         -0.693342
   6         O                -0.676171         -0.631535
   7         O                -0.618430         -0.534116

 Normal termination of Gaussian 09 at Tue Dec 15 17:07:53 2015.
