 Gaussian 09, Revision D.01,
 Gaussian 09:  ES64L-G09RevD.01 24-Apr-2013

 ------------------------------------------------------------
 #P AM1(Input,print) CIS(Singlets,NStates=15) pop(full) force
 ------------------------------------------------------------

 -----------------
 AM1-Reparam Input
 -----------------
 Symbolic Z-matrix:
 Charge =  0 Multiplicity = 1

                         Standard orientation:
 ---------------------------------------------------------------------
 Center     Atomic      Atomic             Coordinates (Angstroms)
 Number     Number       Type             X           Y           Z
 ---------------------------------------------------------------------
      1          6           0        0.222048    1.174549   -0.022903
      2          6           0        1.125406    0.115966    0.022755
      3          8           0        0.481424   -1.064922   -0.017949
      4          6           0       -0.810911   -0.774028    0.015656
      5          6           0       -1.055215    0.593731   -0.003601
      6          1           0       -1.979509    1.086894    0.028569
      7          1           0       -1.545866   -1.581484    0.001573
      8          1           0        2.236428    0.095079    0.020905
      9          1           0        0.549588    2.257576    0.021105
 ---------------------------------------------------------------------

 SCF Done:  E(RAM1) =   1.70111185875     A.U. after   14 cycles

 Excitation energies and oscillator strengths:

 Excited State   1:      Singlet-A      5.7155 eV  216.93 nm  f=0.3492  <S**2>=0.000
      13 -> 14         0.69142
 This state for optimization and/or second-order correction.
 Total Energy, E(CIS) =   1.91115371209
 Copying the excited state density for this state as the 1-particle RhoCI density.

 Excited State   2:      Singlet-A      7.3108 eV  169.59 nm  f=0.0018  <S**2>=0.000
      12 -> 14         0.65981
      13 -> 15        -0.22086

 Excited State   3:      Singlet-A      7.3620 eV  168.41 nm  f=0.0044  <S**2>=0.000
      12 -> 14         0.22637
      13 -> 15         0.63124
      13 -> 17        -0.14566

 Excited State   4:      Singlet-A      7.5048 eV  165.21 nm  f=0.0003  <S**2>=0.000
      10 -> 15        -0.10885
      13 -> 16         0.66342
      13 -> 18        -0.14232
      13 -> 19        -0.11832

 Excited State   5:      Singlet-A      7.9327 eV  156.30 nm  f=0.0057  <S**2>=0.000
      11 -> 14         0.69465

 Excited State   6:      Singlet-A      9.2185 eV  134.49 nm  f=0.0008  <S**2>=0.000
      10 -> 15        -0.11627
      13 -> 17        -0.31427
      13 -> 18         0.54016
      13 -> 21         0.26259

 Excited State   7:      Singlet-A      9.3262 eV  132.94 nm  f=0.0901  <S**2>=0.000
      10 -> 14         0.63473
      13 -> 17         0.22309
      13 -> 18         0.11488

 Excited State   8:      Singlet-A      9.3657 eV  132.38 nm  f=0.0272  <S**2>=0.000
      10 -> 14        -0.26430
      10 -> 16        -0.14601
      13 -> 17         0.54879
      13 -> 18         0.26916

 Excited State   9:      Singlet-A      9.9620 eV  124.46 nm  f=0.0046  <S**2>=0.000
      10 -> 15        -0.10594
      11 -> 15         0.11002
      13 -> 18        -0.10583
      13 -> 19         0.64007

 Excited State  10:      Singlet-A      9.9707 eV  124.35 nm  f=0.0057  <S**2>=0.000
       8 -> 15        -0.11485
       9 -> 15        -0.10524
      11 -> 15        -0.26282
      11 -> 16        -0.16733
      11 -> 17         0.23022
      11 -> 18         0.11909
      12 -> 15        -0.21871
      12 -> 16         0.27968
      12 -> 17         0.15005
      12 -> 18        -0.23852
      13 -> 19         0.19506

 Excited State  11:      Singlet-A     10.4671 eV  118.45 nm  f=0.1458  <S**2>=0.000
      11 -> 15         0.11293
      11 -> 16         0.20422
      12 -> 15         0.30236
      12 -> 16         0.53635
      12 -> 17        -0.14174

 Excited State  12:      Singlet-A     10.5804 eV  117.18 nm  f=0.1575  <S**2>=0.000
      11 -> 15        -0.41779
      11 -> 17         0.14324
      12 -> 15         0.44863
      12 -> 16        -0.18849
      12 -> 19         0.11569

 Excited State  13:      Singlet-A     10.7755 eV  115.06 nm  f=0.0545  <S**2>=0.000
       8 -> 14        -0.10080
      10 -> 15        -0.11345
      10 -> 16         0.12830
      13 -> 18        -0.19773
      13 -> 20         0.52215
      13 -> 21         0.34125

 Excited State  14:      Singlet-A     10.8760 eV  114.00 nm  f=0.0227  <S**2>=0.000
       8 -> 16         0.18045
       9 -> 15        -0.20699
      11 -> 15        -0.18786
      11 -> 16         0.34669
      11 -> 19        -0.25663
      12 -> 15        -0.20552
      12 -> 17        -0.24386
      13 -> 21         0.13013

 Excited State  15:      Singlet-A     10.9162 eV  113.58 nm  f=0.0348  <S**2>=0.000
       9 -> 14        -0.10704
      10 -> 15         0.42842
      10 -> 16         0.22072
      13 -> 16         0.12683
      13 -> 18         0.15360
      13 -> 19         0.10224
      13 -> 20         0.30422
      13 -> 21        -0.26806

 The electronic state is 1-A.
 Alpha  occ. eigenvalues --   -1.90956  -1.17371  -0.90869  -0.81746  -0.77472
 Alpha  occ. eigenvalues --   -0.69603  -0.67732  -0.55837  -0.54695  -0.46197
 Alpha  occ. eigenvalues --   -0.44542  -0.42558  -0.31442
 Alpha virt. eigenvalues --    0.11084   0.18601   0.18881   0.26666   0.28597
 Alpha virt. eigenvalues --    0.29980   0.32350   0.35692   0.36203   0.44912
 Alpha virt. eigenvalues --    0.48559

 Mulliken charges:
               1
     1  C   -0.131068
     2  C   -2.041491
     3  O    3.289872
     4  C   -2.052969
     5  C   -0.157515
     6  H    0.204027
     7  H    0.347851
     8  H    0.337801
     9  H    0.203491
 Sum of Mulliken charges =   0.00000

 Dipole moment (field-independent basis, Debye):
    X=              4.2640    Y=             -9.4186    Z=             -0.4910  Tot=             10.3505
 N-N= 1.038114213591D+02 E-N=-1.693200608680D+02  KE=-1.548014447409D+01
 Orbital energies and kinetic energies (alpha):
                                 1                 2
   1         O                -1.909562         -1.386915
   2         O                -1.173712         -1.057257
   3         O                -0.908693         -0.877733
   4         O                -0.817460         -0.563909
   5         O                -0.774718         -0.685596
   6         O                -0.696028         -0.596105
   7         O                -0.677317         -0.538391

 Normal termination of Gaussian 09 at Tue Dec 15 17:09:46 2015.
