 Gaussian 09, Revision D.01,
 Gaussian 09:  ES64L-G09RevD.01 24-Apr-2013

 ------------------------------------------------------------
 #P AM1(Input,print) CIS(Singlets,NStates=15) pop(full) force
 ------------------------------------------------------------

 -----------------
 AM1-Reparam Input
 -----------------
 Symbolic Z-matrix:
 Charge =  0 Multiplicity = 1

                         Standard orientation:
 ---------------------------------------------------------------------
 Center     Atomic      Atomic             Coordinates (Angstroms)
 Number     Number       Type             X           Y           Z
 ---------------------------------------------------------------------
      1          6           0       -0.975310    0.715668   -0.009273
      2          6           0       -0.928919   -0.602198   -0.018064
      3          8           0        0.318882   -1.148367    0.018147
      4          6           0        1.166129   -0.012823   -0.013168
      5          6           0        0.405930    1.103118    0.015270
      6          1           0        0.802026    2.164230   -0.016746
      7          1           0        2.195371   -0.198491   -0.022500
      8          1           0       -1.727105   -1.367089   -0.003242
      9          1           0       -1.828327    1.365698    0.048715
 ---------------------------------------------------------------------

 SCF Done:  E(RAM1) =  -3.70096660734     A.U. after   14 cycles

 Excitation energies and oscillator strengths:

 Excited State   1:      Singlet-A      6.6997 eV  185.06 nm  f=0.2380  <S**2>=0.000
      13 -> 14         0.68453
 This state for optimization and/or second-order correction.
 Total Energy, E(CIS) =  -3.45475841181
 Copying the excited state density for this state as the 1-particle RhoCI density.

 Excited State   2:      Singlet-A      7.0631 eV  175.54 nm  f=0.0026  <S**2>=0.000
      11 -> 14        -0.30080
      12 -> 14         0.63239

 Excited State   3:      Singlet-A      7.8351 eV  158.24 nm  f=0.0018  <S**2>=0.000
      13 -> 15         0.69412

 Excited State   4:      Singlet-A      8.1612 eV  151.92 nm  f=0.0058  <S**2>=0.000
       8 -> 14        -0.12364
       9 -> 14        -0.26568
      11 -> 14         0.29029
      12 -> 14         0.13902
      13 -> 16         0.54769

 Excited State   5:      Singlet-A      8.3034 eV  149.32 nm  f=0.0015  <S**2>=0.000
       8 -> 14         0.15710
       9 -> 14         0.30612
      11 -> 14        -0.40384
      12 -> 14        -0.15803
      13 -> 16         0.43220

 Excited State   6:      Singlet-A      8.6951 eV  142.59 nm  f=0.0007  <S**2>=0.000
       8 -> 14         0.18889
       9 -> 14         0.49961
      11 -> 14         0.38770
      12 -> 14         0.22216

 Excited State   7:      Singlet-A      9.2301 eV  134.33 nm  f=0.0136  <S**2>=0.000
       8 -> 14         0.18043
      10 -> 14         0.62228
      13 -> 17        -0.24629

 Excited State   8:      Singlet-A      9.6684 eV  128.24 nm  f=0.0017  <S**2>=0.000
       8 -> 14         0.57580
       9 -> 14        -0.23956
      13 -> 17         0.30273

 Excited State   9:      Singlet-A     10.0506 eV  123.36 nm  f=0.0301  <S**2>=0.000
       8 -> 14        -0.17510
      10 -> 14         0.14950
      12 -> 15         0.43511
      12 -> 16         0.26001
      13 -> 17         0.37285

 Excited State  10:      Singlet-A     10.1121 eV  122.61 nm  f=0.0273  <S**2>=0.000
      11 -> 15        -0.17357
      12 -> 15         0.43554
      12 -> 16        -0.42924
      13 -> 17        -0.20287

 Excited State  11:      Singlet-A     10.1705 eV  121.91 nm  f=0.0002  <S**2>=0.000
      13 -> 18         0.69480

 Excited State  12:      Singlet-A     10.6259 eV  116.68 nm  f=0.0046  <S**2>=0.000
      10 -> 15        -0.36632
      10 -> 16         0.10227
      13 -> 19         0.56151

 Excited State  13:      Singlet-A     10.7850 eV  114.96 nm  f=0.4434  <S**2>=0.000
       9 -> 15         0.23829
      10 -> 14         0.17435
      11 -> 16         0.30190
      12 -> 15        -0.15276
      12 -> 16        -0.32716
      13 -> 17         0.35644

 Excited State  14:      Singlet-A     11.1122 eV  111.58 nm  f=0.1801  <S**2>=0.000
       8 -> 15         0.18925
       8 -> 16         0.18974
       9 -> 15         0.16114
      10 -> 15         0.30610
      10 -> 16         0.37008
      10 -> 19         0.10496
      11 -> 16        -0.20634
      11 -> 18        -0.10972
      12 -> 16        -0.12570
      13 -> 19         0.15178

 Excited State  15:      Singlet-A     11.2746 eV  109.97 nm  f=0.0773  <S**2>=0.000
       8 -> 15        -0.18206
       8 -> 16        -0.18638
      10 -> 15         0.37081
      10 -> 16         0.11727
      11 -> 15         0.31489
      11 -> 16         0.27102
      13 -> 19         0.23103

 The electronic state is 1-A.
 Alpha  occ. eigenvalues --   -3.17950  -1.29554  -1.02633  -0.97896  -0.95938
 Alpha  occ. eigenvalues --   -0.86028  -0.79507  -0.59585  -0.57570  -0.56517
 Alpha  occ. eigenvalues --   -0.55566  -0.50163  -0.44417
 Alpha virt. eigenvalues --   -0.00106   0.07716   0.09475   0.15007   0.16738
 Alpha virt. eigenvalues --    0.19715   0.24151   0.30075   0.40006   0.43504
 Alpha virt. eigenvalues --    0.45354

 Mulliken charges:
               1
     1  C   -0.356115
     2  C   -0.965883
     3  O    2.443396
     4  C   -0.976018
     5  C   -0.322830
     6  H    0.106022
     7  H   -0.014325
     8  H   -0.007622
     9  H    0.093375
 Sum of Mulliken charges =   0.00000

 Dipole moment (field-independent basis, Debye):
    X=              2.6063    Y=            -10.1728    Z=              0.3301  Tot=             10.5066
 N-N= 1.014521643092D+02 E-N=-1.645607805436D+02  KE=-2.107900356430D+01
 Orbital energies and kinetic energies (alpha):
                                 1                 2
   1         O                -3.179497         -2.394656
   2         O                -1.295539         -1.129554
   3         O                -1.026331         -0.913639
   4         O                -0.978962         -0.876212
   5         O                -0.959379         -0.903026
   6         O                -0.860282         -0.811073
   7         O                -0.795066         -0.634296

 Normal termination of Gaussian 09 at Fri Dec 11 13:41:36 2015.
