 Gaussian 09, Revision D.01,
 Gaussian 09:  ES64L-G09RevD.01 24-Apr-2013

 ------------------------------------------------------------
 #P AM1(Input,print) CIS(Singlets,NStates=15) pop(full) force
 ------------------------------------------------------------

 -----------------
 AM1-Reparam Input
 -----------------
 Symbolic Z-matrix:
 Charge =  0 Multiplicity = 1

                         Standard orientation:
 ---------------------------------------------------------------------
 Center     Atomic      Atomic             Coordinates (Angstroms)
 Number     Number       Type             X           Y           Z
 ---------------------------------------------------------------------
      1          6           0        0.924730    0.802116   -0.001519
      2          6           0        0.978904   -0.505533   -0.017753
      3          8           0       -0.216221   -1.150469    0.005277
      4          6           0       -1.100722   -0.163239    0.001189
      5          6           0       -0.573084    1.091656    0.000874
      6          1           0       -1.070051    1.991082   -0.016060
      7          1           0       -2.123968   -0.465702    0.005121
      8          1           0        1.856634   -1.238558    0.028856
      9          1           0        1.688186    1.566931    0.043121
 ---------------------------------------------------------------------

 SCF Done:  E(RAM1) =  0.317457384571E-01 A.U. after   13 cycles

 Excitation energies and oscillator strengths:

 Excited State   1:      Singlet-A      4.6839 eV  264.70 nm  f=0.0508  <S**2>=0.000
      12 -> 15         0.25402
      13 -> 14         0.65328
 This state for optimization and/or second-order correction.
 Total Energy, E(CIS) =  0.203877079470
 Copying the excited state density for this state as the 1-particle RhoCI density.

 Excited State   2:      Singlet-A      5.2021 eV  238.33 nm  f=0.0070  <S**2>=0.000
      12 -> 14        -0.40659
      13 -> 15         0.56802

 Excited State   3:      Singlet-A      5.4308 eV  228.30 nm  f=0.0000  <S**2>=0.000
      13 -> 16         0.66413
      13 -> 19         0.10475
      13 -> 22        -0.13615

 Excited State   4:      Singlet-A      5.8853 eV  210.67 nm  f=0.0014  <S**2>=0.000
      12 -> 18         0.13291
      12 -> 21        -0.15938
      13 -> 17        -0.22283
      13 -> 18         0.47132
      13 -> 20        -0.13626
      13 -> 21        -0.30572
      13 -> 23         0.13706
      13 -> 24         0.10121

 Excited State   5:      Singlet-A      5.9994 eV  206.66 nm  f=0.0058  <S**2>=0.000
       7 -> 16        -0.14031
      12 -> 15        -0.16293
      12 -> 16         0.59325
      12 -> 17        -0.12855
      12 -> 18         0.11298
      12 -> 22        -0.15474
      13 -> 21        -0.11520

 Excited State   6:      Singlet-A      6.1195 eV  202.60 nm  f=0.1227  <S**2>=0.000
      11 -> 17        -0.10938
      12 -> 14         0.32048
      12 -> 15         0.51648
      12 -> 16         0.12409
      13 -> 14        -0.17940
      13 -> 15         0.20557

 Excited State   7:      Singlet-A      6.2850 eV  197.27 nm  f=0.0028  <S**2>=0.000
      11 -> 14        -0.12864
      12 -> 19         0.13314
      13 -> 17         0.58957
      13 -> 18         0.12620
      13 -> 19         0.19537
      13 -> 21        -0.12221
      13 -> 23         0.14023

 Excited State   8:      Singlet-A      6.3690 eV  194.67 nm  f=0.3477  <S**2>=0.000
      12 -> 14         0.40629
      12 -> 15        -0.31192
      12 -> 18        -0.11842
      13 -> 14         0.13720
      13 -> 15         0.31350
      13 -> 21         0.10500

 Excited State   9:      Singlet-A      6.3815 eV  194.29 nm  f=0.0550  <S**2>=0.000
      12 -> 14         0.15073
      12 -> 15        -0.15112
      12 -> 16        -0.20479
      12 -> 18         0.26544
      12 -> 19        -0.21279
      12 -> 21         0.15320
      12 -> 23         0.13437
      12 -> 24         0.10351
      13 -> 15         0.11982
      13 -> 18        -0.21642
      13 -> 19         0.19103
      13 -> 20        -0.12216
      13 -> 21        -0.21643
      13 -> 22         0.14074
      13 -> 23        -0.13280

 Excited State  10:      Singlet-A      6.6368 eV  186.81 nm  f=0.0002  <S**2>=0.000
      12 -> 17         0.59777
      12 -> 20         0.16652
      12 -> 23         0.13295
      13 -> 17        -0.10497
      13 -> 19         0.22516

 Excited State  11:      Singlet-A      7.0369 eV  176.19 nm  f=0.0002  <S**2>=0.000
      10 -> 14         0.35648
      10 -> 15         0.11406
      11 -> 14         0.32054
      11 -> 15         0.46643

 Excited State  12:      Singlet-A      7.2355 eV  171.36 nm  f=0.0026  <S**2>=0.000
       9 -> 14         0.14118
      10 -> 15         0.20607
      11 -> 14         0.47455
      11 -> 15        -0.34818
      12 -> 18        -0.11436
      12 -> 20        -0.10449
      13 -> 20        -0.11967

 Excited State  13:      Singlet-A      7.4012 eV  167.52 nm  f=0.0003  <S**2>=0.000
      10 -> 14        -0.11090
      11 -> 14         0.14369
      11 -> 15        -0.18603
      12 -> 18         0.25818
      12 -> 20         0.24580
      12 -> 23         0.10604
      13 -> 19        -0.32557
      13 -> 20         0.32799
      13 -> 24        -0.11677

 Excited State  14:      Singlet-A      7.5550 eV  164.11 nm  f=0.0003  <S**2>=0.000
      12 -> 18        -0.14682
      12 -> 19         0.25629
      12 -> 20         0.15983
      12 -> 21        -0.10704
      13 -> 16         0.10579
      13 -> 18        -0.19165
      13 -> 19        -0.31171
      13 -> 20        -0.15536
      13 -> 21        -0.16412
      13 -> 22         0.37286
      13 -> 24         0.10257

 Excited State  15:      Singlet-A      7.6375 eV  162.34 nm  f=0.0097  <S**2>=0.000
      10 -> 14         0.17951
      12 -> 18        -0.28136
      12 -> 19        -0.20388
      12 -> 21         0.10745
      13 -> 20         0.37857
      13 -> 21        -0.22825
      13 -> 22         0.19356
      13 -> 23         0.20859

 The electronic state is 1-A.
 Alpha  occ. eigenvalues --   -1.58320  -1.23640  -1.10428  -0.84041  -0.79723
 Alpha  occ. eigenvalues --   -0.68765  -0.61262  -0.56638  -0.52011  -0.50720
 Alpha  occ. eigenvalues --   -0.47819  -0.38818  -0.35503
 Alpha virt. eigenvalues --    0.03879   0.05996   0.10364   0.12543   0.14604
 Alpha virt. eigenvalues --    0.15995   0.17389   0.18194   0.19051   0.20759
 Alpha virt. eigenvalues --    0.22772

 Mulliken charges:
               1
     1  C   -0.196214
     2  C   -0.106362
     3  O   -0.063001
     4  C   -0.099191
     5  C   -0.222452
     6  H    0.162246
     7  H    0.174047
     8  H    0.182190
     9  H    0.168737
 Sum of Mulliken charges =   0.00000

 Dipole moment (field-independent basis, Debye):
    X=              0.1553    Y=              0.2946    Z=              0.0652  Tot=              0.3393
 N-N= 1.035667686708D+02 E-N=-1.711383603789D+02  KE=-1.657796753679D+01
 Orbital energies and kinetic energies (alpha):
                                 1                 2
   1         O                -1.583197         -1.321391
   2         O                -1.236405         -1.052279
   3         O                -1.104278         -0.962550
   4         O                -0.840407         -0.712619
   5         O                -0.797226         -0.715343
   6         O                -0.687649         -0.603698
   7         O                -0.612617         -0.492742

 Normal termination of Gaussian 09 at Tue Dec 15 16:22:15 2015.
