 Gaussian 09, Revision D.01,
 Gaussian 09:  ES64L-G09RevD.01 24-Apr-2013

 ------------------------------------------------------------
 #P AM1(Input,print) CIS(Singlets,NStates=15) pop(full) force
 ------------------------------------------------------------

 -----------------
 AM1-Reparam Input
 -----------------
 Symbolic Z-matrix:
 Charge =  0 Multiplicity = 1

                         Standard orientation:
 ---------------------------------------------------------------------
 Center     Atomic      Atomic             Coordinates (Angstroms)
 Number     Number       Type             X           Y           Z
 ---------------------------------------------------------------------
      1          6           0       -0.635852    0.987878    0.013521
      2          6           0       -1.130008   -0.288040    0.007647
      3          8           0       -0.073227   -1.147976    0.000258
      4          6           0        1.100177   -0.403273   -0.007055
      5          6           0        0.726460    0.910716   -0.029787
      6          1           0        1.488692    1.726728    0.064265
      7          1           0        2.010116   -0.945801    0.059112
      8          1           0       -2.049912   -0.717208   -0.032770
      9          1           0       -1.227742    1.876404    0.001369
 ---------------------------------------------------------------------

 SCF Done:  E(RAM1) =   2.82942424950     A.U. after   13 cycles

 Excitation energies and oscillator strengths:

 Excited State   1:      Singlet-A      5.5576 eV  223.09 nm  f=0.3083  <S**2>=0.000
      13 -> 14         0.68996
 This state for optimization and/or second-order correction.
 Total Energy, E(CIS) =   3.03366264225
 Copying the excited state density for this state as the 1-particle RhoCI density.

 Excited State   2:      Singlet-A      6.8122 eV  182.00 nm  f=0.0111  <S**2>=0.000
      10 -> 16         0.10019
      13 -> 15         0.64282
      13 -> 17        -0.24554

 Excited State   3:      Singlet-A      7.0511 eV  175.84 nm  f=0.0008  <S**2>=0.000
       9 -> 14         0.10952
      12 -> 14         0.57823
      13 -> 16        -0.33685
      13 -> 18         0.11121
      13 -> 21         0.10532

 Excited State   4:      Singlet-A      7.0980 eV  174.68 nm  f=0.0004  <S**2>=0.000
      10 -> 15         0.11485
      12 -> 14         0.36954
      13 -> 16         0.53841
      13 -> 18        -0.16300
      13 -> 19        -0.11791

 Excited State   5:      Singlet-A      7.5936 eV  163.27 nm  f=0.0057  <S**2>=0.000
      10 -> 14         0.23273
      11 -> 14         0.65468

 Excited State   6:      Singlet-A      8.1799 eV  151.57 nm  f=0.0001  <S**2>=0.000
      10 -> 15         0.10995
      13 -> 16         0.11771
      13 -> 18         0.40814
      13 -> 19        -0.21299
      13 -> 20        -0.16156
      13 -> 21         0.46353

 Excited State   7:      Singlet-A      8.2457 eV  150.36 nm  f=0.0136  <S**2>=0.000
      10 -> 16         0.15478
      13 -> 15         0.20082
      13 -> 17         0.63622

 Excited State   8:      Singlet-A      8.7283 eV  142.05 nm  f=0.0933  <S**2>=0.000
      10 -> 14         0.64975
      11 -> 14        -0.22932

 Excited State   9:      Singlet-A      8.8657 eV  139.85 nm  f=0.0008  <S**2>=0.000
      10 -> 15         0.11964
      13 -> 16         0.17361
      13 -> 18         0.23422
      13 -> 19         0.61186

 Excited State  10:      Singlet-A      9.2797 eV  133.61 nm  f=0.0045  <S**2>=0.000
      13 -> 18         0.46730
      13 -> 19        -0.19964
      13 -> 20         0.15565
      13 -> 21        -0.44492

 Excited State  11:      Singlet-A      9.4182 eV  131.64 nm  f=0.0865  <S**2>=0.000
       8 -> 15        -0.10884
       9 -> 16         0.13691
       9 -> 18        -0.11409
      10 -> 15         0.10802
      10 -> 17        -0.11303
      11 -> 15         0.32234
      11 -> 17        -0.31184
      12 -> 15        -0.12546
      12 -> 16         0.15596
      12 -> 17         0.12265
      12 -> 18        -0.23795
      12 -> 19         0.15035
      12 -> 21        -0.14255
      13 -> 14         0.11278

 Excited State  12:      Singlet-A      9.6589 eV  128.36 nm  f=0.0930  <S**2>=0.000
      13 -> 20         0.64681
      13 -> 21         0.21891

 Excited State  13:      Singlet-A      9.8150 eV  126.32 nm  f=0.0242  <S**2>=0.000
      11 -> 16        -0.25261
      11 -> 18         0.10736
      12 -> 15         0.50886
      12 -> 16         0.25519
      12 -> 17        -0.18087
      12 -> 18        -0.10791

 Excited State  14:      Singlet-A      9.8999 eV  125.24 nm  f=0.1579  <S**2>=0.000
      11 -> 15        -0.34722
      12 -> 15        -0.16825
      12 -> 16         0.51372
      12 -> 18        -0.12136
      12 -> 19        -0.12363

 Excited State  15:      Singlet-A     10.1301 eV  122.39 nm  f=0.0103  <S**2>=0.000
       9 -> 14         0.19799
      10 -> 15         0.55294
      10 -> 17        -0.13558
      11 -> 15        -0.14898
      13 -> 16        -0.16448
      13 -> 21        -0.10158

 The electronic state is 1-A.
 Alpha  occ. eigenvalues --   -1.71583  -1.12912  -0.92836  -0.79153  -0.76036
 Alpha  occ. eigenvalues --   -0.66724  -0.63771  -0.54761  -0.50399  -0.43061
 Alpha  occ. eigenvalues --   -0.42427  -0.40679  -0.29746
 Alpha virt. eigenvalues --    0.12003   0.19318   0.19967   0.24066   0.27137
 Alpha virt. eigenvalues --    0.27804   0.29469   0.30729   0.36285   0.45078
 Alpha virt. eigenvalues --    0.49487

 Mulliken charges:
               1
     1  C   -0.141299
     2  C   -1.964879
     3  O    3.224696
     4  C   -1.962654
     5  C   -0.116044
     6  H    0.183555
     7  H    0.297016
     8  H    0.295611
     9  H    0.183998
 Sum of Mulliken charges =   0.00000

 Dipole moment (field-independent basis, Debye):
    X=             -0.5773    Y=            -10.1592    Z=              0.1050  Tot=             10.1762
 N-N= 1.041173580741D+02 E-N=-1.692933237816D+02  KE=-1.480079591893D+01
 Orbital energies and kinetic energies (alpha):
                                 1                 2
   1         O                -1.715825         -1.207810
   2         O                -1.129122         -0.989633
   3         O                -0.928362         -0.848440
   4         O                -0.791530         -0.605436
   5         O                -0.760359         -0.675865
   6         O                -0.667235         -0.578780
   7         O                -0.637708         -0.525559

 Normal termination of Gaussian 09 at Tue Dec 15 17:05:59 2015.
