 Gaussian 09, Revision D.01,
 Gaussian 09:  ES64L-G09RevD.01 24-Apr-2013

 ------------------------------------------------------------
 #P AM1(Input,print) CIS(Singlets,NStates=15) pop(full) force
 ------------------------------------------------------------

 -----------------
 AM1-Reparam Input
 -----------------
 Symbolic Z-matrix:
 Charge =  0 Multiplicity = 1

                         Standard orientation:
 ---------------------------------------------------------------------
 Center     Atomic      Atomic             Coordinates (Angstroms)
 Number     Number       Type             X           Y           Z
 ---------------------------------------------------------------------
      1          6           0       -1.158379    0.268987    0.024399
      2          6           0       -0.594766   -0.916088    0.019218
      3          8           0        0.769663   -0.928633   -0.014536
      4          6           0        1.047387    0.466421   -0.002715
      5          6           0       -0.099143    1.174056   -0.022885
      6          1           0       -0.130116    2.278516    0.031869
      7          1           0        2.082167    0.677807    0.071047
      8          1           0       -1.035090   -1.957870   -0.020945
      9          1           0       -2.244857    0.470356   -0.073788
 ---------------------------------------------------------------------

 SCF Done:  E(RAM1) =   1.78073918713     A.U. after   14 cycles

 Excitation energies and oscillator strengths:

 Excited State   1:      Singlet-A      5.5379 eV  223.88 nm  f=0.3334  <S**2>=0.000
      13 -> 14         0.69129
 This state for optimization and/or second-order correction.
 Total Energy, E(CIS) =   1.98425373535
 Copying the excited state density for this state as the 1-particle RhoCI density.

 Excited State   2:      Singlet-A      6.4788 eV  191.37 nm  f=0.0012  <S**2>=0.000
      10 -> 15         0.11455
      13 -> 15         0.68481

 Excited State   3:      Singlet-A      7.2103 eV  171.95 nm  f=0.0006  <S**2>=0.000
      12 -> 14         0.69973

 Excited State   4:      Singlet-A      7.3252 eV  169.26 nm  f=0.0022  <S**2>=0.000
      10 -> 16        -0.11892
      13 -> 16         0.66749
      13 -> 17        -0.11574

 Excited State   5:      Singlet-A      7.9223 eV  156.50 nm  f=0.0080  <S**2>=0.000
      11 -> 14         0.69791

 Excited State   6:      Singlet-A      8.8360 eV  140.32 nm  f=0.0072  <S**2>=0.000
      13 -> 17         0.49356
      13 -> 18        -0.40681
      13 -> 20        -0.18995
      13 -> 22        -0.16200

 Excited State   7:      Singlet-A      8.9990 eV  137.78 nm  f=0.0039  <S**2>=0.000
      10 -> 16        -0.10147
      13 -> 16         0.11406
      13 -> 17         0.46323
      13 -> 18         0.46788
      13 -> 22         0.16827

 Excited State   8:      Singlet-A      9.3810 eV  132.17 nm  f=0.0387  <S**2>=0.000
       9 -> 15        -0.17733
      10 -> 14         0.48345
      12 -> 15        -0.40918
      13 -> 19        -0.15004

 Excited State   9:      Singlet-A      9.5580 eV  129.72 nm  f=0.0529  <S**2>=0.000
       9 -> 15         0.11239
      10 -> 14         0.40798
      11 -> 16         0.11086
      11 -> 17        -0.14126
      12 -> 15         0.41031
      12 -> 16        -0.16957
      12 -> 18         0.17128
      13 -> 19        -0.10467

 Excited State  10:      Singlet-A      9.6323 eV  128.72 nm  f=0.0001  <S**2>=0.000
      13 -> 18        -0.24892
      13 -> 19         0.26289
      13 -> 20         0.58178

 Excited State  11:      Singlet-A     10.0542 eV  123.32 nm  f=0.1083  <S**2>=0.000
       8 -> 15        -0.11502
      11 -> 15         0.52006
      11 -> 16         0.12844
      11 -> 17        -0.23753
      12 -> 15        -0.17399
      12 -> 18         0.20577
      13 -> 19         0.11056

 Excited State  12:      Singlet-A     10.4166 eV  119.03 nm  f=0.1385  <S**2>=0.000
      10 -> 14         0.21473
      11 -> 16        -0.21702
      11 -> 17         0.12920
      12 -> 16        -0.14131
      12 -> 18        -0.14992
      13 -> 19         0.50251
      13 -> 20        -0.21948

 Excited State  13:      Singlet-A     10.4628 eV  118.50 nm  f=0.1690  <S**2>=0.000
      10 -> 14         0.13515
      11 -> 16         0.19257
      12 -> 16         0.55685
      12 -> 17        -0.15885
      13 -> 19         0.22271
      13 -> 20        -0.10179

 Excited State  14:      Singlet-A     10.5391 eV  117.64 nm  f=0.0166  <S**2>=0.000
       9 -> 15         0.18472
      10 -> 15         0.24728
      11 -> 15         0.27725
      11 -> 16        -0.10555
      11 -> 20         0.13735
      12 -> 15         0.16429
      12 -> 16         0.22625
      12 -> 17         0.17234
      12 -> 18        -0.24263
      13 -> 19        -0.20882
      13 -> 20         0.13848

 Excited State  15:      Singlet-A     10.6076 eV  116.88 nm  f=0.0654  <S**2>=0.000
      10 -> 15         0.43260
      11 -> 15        -0.10855
      13 -> 21         0.49823

 The electronic state is 1-A.
 Alpha  occ. eigenvalues --   -1.89691  -1.18691  -0.91245  -0.80467  -0.78131
 Alpha  occ. eigenvalues --   -0.69214  -0.67041  -0.54962  -0.52829  -0.45205
 Alpha  occ. eigenvalues --   -0.42111  -0.39967  -0.28482
 Alpha virt. eigenvalues --    0.13399   0.17420   0.21337   0.28527   0.30044
 Alpha virt. eigenvalues --    0.32129   0.32180   0.34661   0.38485   0.41875
 Alpha virt. eigenvalues --    0.43692

 Mulliken charges:
               1
     1  C   -0.192166
     2  C   -1.985010
     3  O    3.274599
     4  C   -1.985368
     5  C   -0.139116
     6  H    0.195438
     7  H    0.307474
     8  H    0.325052
     9  H    0.199097
 Sum of Mulliken charges =   0.00000

 Dipole moment (field-independent basis, Debye):
    X=              7.1839    Y=             -9.7289    Z=             -0.2978  Tot=             12.0975
 N-N= 1.037397606869D+02 E-N=-1.692680071932D+02  KE=-1.548934727269D+01
 Orbital energies and kinetic energies (alpha):
                                 1                 2
   1         O                -1.896910         -1.343948
   2         O                -1.186906         -1.079217
   3         O                -0.912446         -0.897993
   4         O                -0.804673         -0.559077
   5         O                -0.781315         -0.679578
   6         O                -0.692136         -0.591197
   7         O                -0.670414         -0.546807

 Normal termination of Gaussian 09 at Tue Dec 15 17:09:41 2015.
