 Gaussian 09, Revision D.01,
 Gaussian 09:  ES64L-G09RevD.01 24-Apr-2013

 ------------------------------------------------------------
 #P AM1(Input,print) CIS(Singlets,NStates=15) pop(full) force
 ------------------------------------------------------------

 -----------------
 AM1-Reparam Input
 -----------------
 Symbolic Z-matrix:
 Charge =  0 Multiplicity = 1

                         Standard orientation:
 ---------------------------------------------------------------------
 Center     Atomic      Atomic             Coordinates (Angstroms)
 Number     Number       Type             X           Y           Z
 ---------------------------------------------------------------------
      1          6           0        0.269649    1.157506   -0.027083
      2          6           0        1.157473    0.128801    0.036511
      3          8           0        0.480125   -1.103581   -0.017696
      4          6           0       -0.879646   -0.711124    0.014942
      5          6           0       -1.066506    0.611417   -0.011165
      6          1           0       -1.941303    1.097651    0.039832
      7          1           0       -1.572960   -1.579756    0.011849
      8          1           0        2.206221    0.002054   -0.027439
      9          1           0        0.581217    2.189097    0.038100
 ---------------------------------------------------------------------

 SCF Done:  E(RAM1) =   1.77267566090     A.U. after   14 cycles

 Excitation energies and oscillator strengths:

 Excited State   1:      Singlet-A      5.3271 eV  232.74 nm  f=0.3574  <S**2>=0.000
      13 -> 14         0.69409
 This state for optimization and/or second-order correction.
 Total Energy, E(CIS) =   1.96844169349
 Copying the excited state density for this state as the 1-particle RhoCI density.

 Excited State   2:      Singlet-A      6.7896 eV  182.61 nm  f=0.0004  <S**2>=0.000
      10 -> 15         0.10834
      13 -> 15         0.67764

 Excited State   3:      Singlet-A      7.0456 eV  175.97 nm  f=0.0013  <S**2>=0.000
      12 -> 14         0.66911
      13 -> 16         0.20090

 Excited State   4:      Singlet-A      7.0900 eV  174.87 nm  f=0.0009  <S**2>=0.000
      12 -> 14        -0.20990
      13 -> 16         0.64119
      13 -> 17        -0.11083
      13 -> 18        -0.11541

 Excited State   5:      Singlet-A      8.0212 eV  154.57 nm  f=0.0078  <S**2>=0.000
      11 -> 14         0.69756

 Excited State   6:      Singlet-A      8.7029 eV  142.46 nm  f=0.0025  <S**2>=0.000
      13 -> 15        -0.10773
      13 -> 17        -0.36770
      13 -> 18         0.53266
      13 -> 22         0.21536

 Excited State   7:      Singlet-A      9.0593 eV  136.86 nm  f=0.0132  <S**2>=0.000
      13 -> 16         0.14064
      13 -> 17         0.57057
      13 -> 18         0.34211

 Excited State   8:      Singlet-A      9.3063 eV  133.23 nm  f=0.0529  <S**2>=0.000
      10 -> 14         0.62178
      12 -> 15         0.13447
      13 -> 19         0.24051

 Excited State   9:      Singlet-A      9.6755 eV  128.14 nm  f=0.0034  <S**2>=0.000
      13 -> 20         0.68874

 Excited State  10:      Singlet-A      9.7978 eV  126.54 nm  f=0.0628  <S**2>=0.000
       9 -> 15         0.14768
       9 -> 16         0.10149
      10 -> 14        -0.11289
      11 -> 16         0.11987
      11 -> 17        -0.14715
      12 -> 15         0.50678
      12 -> 16        -0.20654
      12 -> 17        -0.12337
      12 -> 18         0.23360

 Excited State  11:      Singlet-A     10.1255 eV  122.45 nm  f=0.1069  <S**2>=0.000
      10 -> 14        -0.23704
      13 -> 19         0.64152

 Excited State  12:      Singlet-A     10.3764 eV  119.49 nm  f=0.0955  <S**2>=0.000
      10 -> 14        -0.10127
      11 -> 16         0.19974
      12 -> 16         0.60309
      12 -> 17        -0.17177

 Excited State  13:      Singlet-A     10.4523 eV  118.62 nm  f=0.1918  <S**2>=0.000
      10 -> 14        -0.10700
      11 -> 15        -0.26391
      11 -> 16        -0.23353
      11 -> 17         0.21073
      12 -> 15         0.31633
      12 -> 17         0.18434
      12 -> 18        -0.23047
      12 -> 20         0.13604
      13 -> 21        -0.17220

 Excited State  14:      Singlet-A     10.5744 eV  117.25 nm  f=0.0656  <S**2>=0.000
      11 -> 15        -0.13573
      13 -> 18         0.14929
      13 -> 21         0.56460
      13 -> 22        -0.27516

 Excited State  15:      Singlet-A     10.8172 eV  114.62 nm  f=0.0243  <S**2>=0.000
      10 -> 16        -0.10174
      13 -> 18        -0.17477
      13 -> 21         0.32434
      13 -> 22         0.57747

 The electronic state is 1-A.
 Alpha  occ. eigenvalues --   -1.88937  -1.16960  -0.91381  -0.81018  -0.78339
 Alpha  occ. eigenvalues --   -0.69804  -0.65870  -0.55279  -0.54149  -0.45775
 Alpha  occ. eigenvalues --   -0.43835  -0.40571  -0.28444
 Alpha virt. eigenvalues --    0.11981   0.18869   0.20142   0.28775   0.30349
 Alpha virt. eigenvalues --    0.30801   0.31980   0.34573   0.37299   0.40441
 Alpha virt. eigenvalues --    0.42478

 Mulliken charges:
               1
     1  C   -0.186653
     2  C   -1.982866
     3  O    3.283401
     4  C   -1.982029
     5  C   -0.159660
     6  H    0.199254
     7  H    0.317335
     8  H    0.307672
     9  H    0.203544
 Sum of Mulliken charges =   0.00000

 Dipole moment (field-independent basis, Debye):
    X=              4.5577    Y=            -11.3061    Z=             -0.6365  Tot=             12.2068
 N-N= 1.032600631992D+02 E-N=-1.683054113259D+02  KE=-1.546217906805D+01
 Orbital energies and kinetic energies (alpha):
                                 1                 2
   1         O                -1.889365         -1.321002
   2         O                -1.169597         -1.066554
   3         O                -0.913809         -0.898646
   4         O                -0.810178         -0.572937
   5         O                -0.783386         -0.679738
   6         O                -0.698038         -0.596029
   7         O                -0.658697         -0.535029

 Normal termination of Gaussian 09 at Tue Dec 15 17:09:39 2015.
