 Gaussian 09, Revision D.01,
 Gaussian 09:  ES64L-G09RevD.01 24-Apr-2013

 ------------------------------------------------------------
 #P AM1(Input,print) CIS(Singlets,NStates=15) pop(full) force
 ------------------------------------------------------------

 -----------------
 AM1-Reparam Input
 -----------------
 Symbolic Z-matrix:
 Charge =  0 Multiplicity = 1

                         Standard orientation:
 ---------------------------------------------------------------------
 Center     Atomic      Atomic             Coordinates (Angstroms)
 Number     Number       Type             X           Y           Z
 ---------------------------------------------------------------------
      1          6           0       -0.923480    0.800700    0.007144
      2          6           0       -1.009410   -0.554554   -0.002617
      3          8           0        0.229269   -1.121560    0.003120
      4          6           0        1.170285   -0.149929    0.002709
      5          6           0        0.523621    1.086046   -0.008737
      6          1           0        0.971874    2.054273    0.038401
      7          1           0        2.139677   -0.461506   -0.026468
      8          1           0       -1.856605   -1.193391    0.002057
      9          1           0       -1.655201    1.479529   -0.029949
 ---------------------------------------------------------------------

 SCF Done:  E(RAM1) =   2.03584855934     A.U. after   13 cycles

 Excitation energies and oscillator strengths:

 Excited State   1:      Singlet-A      5.2353 eV  236.82 nm  f=0.3649  <S**2>=0.000
      13 -> 14         0.69659
 This state for optimization and/or second-order correction.
 Total Energy, E(CIS) =   2.22824386792
 Copying the excited state density for this state as the 1-particle RhoCI density.

 Excited State   2:      Singlet-A      6.6442 eV  186.61 nm  f=0.0001  <S**2>=0.000
      12 -> 14         0.69569

 Excited State   3:      Singlet-A      6.8204 eV  181.78 nm  f=0.0134  <S**2>=0.000
      13 -> 15         0.63866
      13 -> 16        -0.12569
      13 -> 17         0.21793
      13 -> 18         0.12960

 Excited State   4:      Singlet-A      6.9006 eV  179.67 nm  f=0.0044  <S**2>=0.000
      13 -> 15         0.17888
      13 -> 16         0.59120
      13 -> 18        -0.31599

 Excited State   5:      Singlet-A      7.8089 eV  158.77 nm  f=0.0015  <S**2>=0.000
      10 -> 14         0.20260
      13 -> 16         0.24218
      13 -> 17         0.19075
      13 -> 18         0.35906
      13 -> 19         0.45476

 Excited State   6:      Singlet-A      7.8248 eV  158.45 nm  f=0.0052  <S**2>=0.000
      10 -> 14         0.67239
      13 -> 18        -0.11156
      13 -> 19        -0.14283

 Excited State   7:      Singlet-A      8.6308 eV  143.65 nm  f=0.1360  <S**2>=0.000
      11 -> 14         0.69638

 Excited State   8:      Singlet-A      8.9340 eV  138.78 nm  f=0.0202  <S**2>=0.000
      11 -> 16         0.15724
      13 -> 15        -0.16928
      13 -> 17         0.61165
      13 -> 19        -0.20272

 Excited State   9:      Singlet-A      9.1594 eV  135.36 nm  f=0.0002  <S**2>=0.000
      11 -> 15         0.14090
      13 -> 16        -0.19334
      13 -> 18        -0.43136
      13 -> 19         0.47029

 Excited State  10:      Singlet-A      9.5575 eV  129.72 nm  f=0.0325  <S**2>=0.000
       9 -> 16         0.10784
      10 -> 15        -0.21714
      10 -> 16        -0.10791
      10 -> 17        -0.15633
      12 -> 15         0.17373
      12 -> 16        -0.32193
      12 -> 17         0.17197
      12 -> 18         0.36778
      12 -> 19         0.23220

 Excited State  11:      Singlet-A      9.7433 eV  127.25 nm  f=0.0161  <S**2>=0.000
      13 -> 18        -0.13534
      13 -> 20         0.66305
      13 -> 21        -0.17315

 Excited State  12:      Singlet-A     10.0923 eV  122.85 nm  f=0.0434  <S**2>=0.000
      10 -> 16        -0.13374
      12 -> 15         0.33250
      12 -> 16         0.24316
      12 -> 17         0.11647
      12 -> 18        -0.10437
      13 -> 20         0.13201
      13 -> 21         0.49101

 Excited State  13:      Singlet-A     10.1044 eV  122.70 nm  f=0.0356  <S**2>=0.000
      10 -> 16         0.15526
      12 -> 15        -0.38816
      12 -> 16        -0.23392
      12 -> 17        -0.13930
      13 -> 20         0.10767
      13 -> 21         0.45260

 Excited State  14:      Singlet-A     10.3471 eV  119.83 nm  f=0.2267  <S**2>=0.000
      10 -> 15        -0.37257
      10 -> 17        -0.16392
      12 -> 15        -0.29553
      12 -> 16         0.38217
      12 -> 19         0.23564

 Excited State  15:      Singlet-A     10.4059 eV  119.15 nm  f=0.0015  <S**2>=0.000
       7 -> 16         0.10997
       9 -> 14         0.19923
      11 -> 15         0.58480
      11 -> 16         0.18621
      11 -> 17         0.13279
      13 -> 16         0.13441
      13 -> 18         0.10534

 The electronic state is 1-A.
 Alpha  occ. eigenvalues --   -1.94314  -1.18817  -0.96718  -0.83090  -0.79426
 Alpha  occ. eigenvalues --   -0.69538  -0.64961  -0.56543  -0.54374  -0.45863
 Alpha  occ. eigenvalues --   -0.44983  -0.42204  -0.30030
 Alpha virt. eigenvalues --    0.09348   0.19043   0.19969   0.25575   0.26300
 Alpha virt. eigenvalues --    0.27664   0.29913   0.31199   0.35670   0.44119
 Alpha virt. eigenvalues --    0.49335

 Mulliken charges:
               1
     1  C   -0.188466
     2  C   -2.016645
     3  O    3.192505
     4  C   -2.011183
     5  C   -0.220766
     6  H    0.258741
     7  H    0.359915
     8  H    0.375392
     9  H    0.250508
 Sum of Mulliken charges =   0.00000

 Dipole moment (field-independent basis, Debye):
    X=              1.6405    Y=             -9.6979    Z=              0.0029  Tot=              9.8357
 N-N= 1.042782289764D+02 E-N=-1.693588548739D+02  KE=-1.550869095801D+01
 Orbital energies and kinetic energies (alpha):
                                 1                 2
   1         O                -1.943144         -1.387662
   2         O                -1.188165         -1.054879
   3         O                -0.967179         -0.867847
   4         O                -0.830897         -0.615791
   5         O                -0.794261         -0.688509
   6         O                -0.695376         -0.572273
   7         O                -0.649608         -0.512856

 Normal termination of Gaussian 09 at Tue Dec 15 17:07:17 2015.
