 Gaussian 09, Revision D.01,
 Gaussian 09:  ES64L-G09RevD.01 24-Apr-2013

 ------------------------------------------------------------
 #P AM1(Input,print) CIS(Singlets,NStates=15) pop(full) force
 ------------------------------------------------------------

 -----------------
 AM1-Reparam Input
 -----------------
 Symbolic Z-matrix:
 Charge =  0 Multiplicity = 1

                         Standard orientation:
 ---------------------------------------------------------------------
 Center     Atomic      Atomic             Coordinates (Angstroms)
 Number     Number       Type             X           Y           Z
 ---------------------------------------------------------------------
      1          6           0       -1.019760    0.708164   -0.025687
      2          6           0       -0.988633   -0.636175    0.046698
      3          8           0        0.370198   -1.136602   -0.036632
      4          6           0        1.185691    0.017817    0.028300
      5          6           0        0.420975    1.089536   -0.014464
      6          1           0        0.751393    2.181483    0.045415
      7          1           0        2.241335   -0.147917    0.023371
      8          1           0       -1.664749   -1.364004    0.025908
      9          1           0       -1.879206    1.347208   -0.010723
 ---------------------------------------------------------------------

 SCF Done:  E(RAM1) =   1.77930360945     A.U. after   14 cycles

 Excitation energies and oscillator strengths:

 Excited State   1:      Singlet-A      5.0489 eV  245.57 nm  f=0.3710  <S**2>=0.000
      13 -> 14         0.69626
 This state for optimization and/or second-order correction.
 Total Energy, E(CIS) =   1.96484852994
 Copying the excited state density for this state as the 1-particle RhoCI density.

 Excited State   2:      Singlet-A      6.6580 eV  186.22 nm  f=0.0031  <S**2>=0.000
      12 -> 14         0.70159

 Excited State   3:      Singlet-A      6.8106 eV  182.04 nm  f=0.0007  <S**2>=0.000
      13 -> 15         0.64857
      13 -> 16        -0.17096
      13 -> 19        -0.14246
      13 -> 20        -0.12001

 Excited State   4:      Singlet-A      7.0597 eV  175.62 nm  f=0.0028  <S**2>=0.000
      13 -> 15         0.18643
      13 -> 16         0.64281
      13 -> 17        -0.15631

 Excited State   5:      Singlet-A      8.0174 eV  154.64 nm  f=0.0068  <S**2>=0.000
      11 -> 14         0.69523

 Excited State   6:      Singlet-A      8.3139 eV  149.13 nm  f=0.0002  <S**2>=0.000
      13 -> 16         0.15125
      13 -> 17         0.48373
      13 -> 18         0.15906
      13 -> 19        -0.37276
      13 -> 22        -0.22017

 Excited State   7:      Singlet-A      8.8232 eV  140.52 nm  f=0.0030  <S**2>=0.000
      13 -> 15         0.12617
      13 -> 17         0.45851
      13 -> 18        -0.19911
      13 -> 19         0.42999
      13 -> 20         0.14236

 Excited State   8:      Singlet-A      9.1407 eV  135.64 nm  f=0.0103  <S**2>=0.000
      10 -> 14         0.49690
      13 -> 18        -0.42850
      13 -> 19        -0.19856

 Excited State   9:      Singlet-A      9.4282 eV  131.50 nm  f=0.0038  <S**2>=0.000
      13 -> 19        -0.20984
      13 -> 20         0.65384

 Excited State  10:      Singlet-A      9.6411 eV  128.60 nm  f=0.0559  <S**2>=0.000
      10 -> 14         0.34470
      12 -> 15         0.25891
      12 -> 16        -0.18136
      12 -> 17         0.21891
      12 -> 19        -0.11864
      13 -> 18         0.38386
      13 -> 19         0.15936

 Excited State  11:      Singlet-A      9.7368 eV  127.34 nm  f=0.1676  <S**2>=0.000
      10 -> 14         0.30554
      11 -> 19        -0.14730
      12 -> 15        -0.30182
      12 -> 16         0.27475
      12 -> 17        -0.14727
      12 -> 19         0.19083
      13 -> 18         0.28637

 Excited State  12:      Singlet-A     10.1593 eV  122.04 nm  f=0.0584  <S**2>=0.000
      13 -> 21         0.63047
      13 -> 22        -0.25017

 Excited State  13:      Singlet-A     10.2289 eV  121.21 nm  f=0.1009  <S**2>=0.000
      11 -> 15         0.19150
      11 -> 19        -0.12502
      12 -> 15         0.52546
      12 -> 16         0.22855
      12 -> 17        -0.25681

 Excited State  14:      Singlet-A     10.3977 eV  119.24 nm  f=0.0192  <S**2>=0.000
      13 -> 19        -0.15354
      13 -> 21         0.26417
      13 -> 22         0.60954

 Excited State  15:      Singlet-A     10.6769 eV  116.12 nm  f=0.2169  <S**2>=0.000
       8 -> 16        -0.15076
      10 -> 14        -0.12525
      11 -> 16        -0.20676
      11 -> 17         0.14859
      12 -> 16         0.46214
      12 -> 17         0.32502
      12 -> 19        -0.12885
      12 -> 20         0.13112

 The electronic state is 1-A.
 Alpha  occ. eigenvalues --   -1.88654  -1.15156  -0.92422  -0.80323  -0.78880
 Alpha  occ. eigenvalues --   -0.69765  -0.65504  -0.55863  -0.54982  -0.46446
 Alpha  occ. eigenvalues --   -0.44185  -0.39748  -0.27583
 Alpha virt. eigenvalues --    0.11122   0.19936   0.21808   0.27965   0.29441
 Alpha virt. eigenvalues --    0.29586   0.31480   0.33568   0.36152   0.38875
 Alpha virt. eigenvalues --    0.41298

 Mulliken charges:
               1
     1  C   -0.170371
     2  C   -1.979903
     3  O    3.297158
     4  C   -1.978428
     5  C   -0.207962
     6  H    0.207382
     7  H    0.324674
     8  H    0.304828
     9  H    0.202621
 Sum of Mulliken charges =   0.00000

 Dipole moment (field-independent basis, Debye):
    X=              3.9640    Y=            -11.2180    Z=             -1.0223  Tot=             11.9416
 N-N= 1.028396866279D+02 E-N=-1.675159540707D+02  KE=-1.541459496203D+01
 Orbital energies and kinetic energies (alpha):
                                 1                 2
   1         O                -1.886537         -1.306284
   2         O                -1.151565         -1.038607
   3         O                -0.924221         -0.899115
   4         O                -0.803231         -0.584642
   5         O                -0.788797         -0.691637
   6         O                -0.697647         -0.573905
   7         O                -0.655045         -0.529428

 Normal termination of Gaussian 09 at Tue Dec 15 17:09:42 2015.
