 Gaussian 09, Revision D.01,
 Gaussian 09:  ES64L-G09RevD.01 24-Apr-2013

 ------------------------------------------------------------
 #P AM1(Input,print) CIS(Singlets,NStates=15) pop(full) force
 ------------------------------------------------------------

 -----------------
 AM1-Reparam Input
 -----------------
 Symbolic Z-matrix:
 Charge =  0 Multiplicity = 1

                         Standard orientation:
 ---------------------------------------------------------------------
 Center     Atomic      Atomic             Coordinates (Angstroms)
 Number     Number       Type             X           Y           Z
 ---------------------------------------------------------------------
      1          6           0        0.891225    0.800723    0.015921
      2          6           0        1.016608   -0.509661    0.031629
      3          8           0       -0.214954   -1.150807   -0.014098
      4          6           0       -1.141199   -0.136255   -0.007561
      5          6           0       -0.532356    1.050949   -0.024795
      6          1           0       -1.111574    2.035757    0.060398
      7          1           0       -2.156911   -0.506916    0.075583
      8          1           0        1.919511   -1.151118   -0.050373
      9          1           0        1.662937    1.594196   -0.063994
 ---------------------------------------------------------------------

 SCF Done:  E(RAM1) =  0.201449620969E-01 A.U. after   13 cycles

 Excitation energies and oscillator strengths:

 Excited State   1:      Singlet-A      4.6155 eV  268.63 nm  f=0.0784  <S**2>=0.000
      12 -> 15         0.20380
      13 -> 14         0.66914
 This state for optimization and/or second-order correction.
 Total Energy, E(CIS) =  0.189761489807
 Copying the excited state density for this state as the 1-particle RhoCI density.

 Excited State   2:      Singlet-A      5.1998 eV  238.44 nm  f=0.0034  <S**2>=0.000
      12 -> 14        -0.31779
      13 -> 15         0.46694
      13 -> 16         0.40245

 Excited State   3:      Singlet-A      5.3495 eV  231.77 nm  f=0.0003  <S**2>=0.000
      12 -> 14         0.32013
      13 -> 15        -0.28095
      13 -> 16         0.54563

 Excited State   4:      Singlet-A      5.9268 eV  209.19 nm  f=0.0039  <S**2>=0.000
       7 -> 16        -0.17175
      12 -> 15         0.19453
      12 -> 16         0.60709
      12 -> 22        -0.15287
      13 -> 18        -0.11595

 Excited State   5:      Singlet-A      6.1190 eV  202.62 nm  f=0.0019  <S**2>=0.000
      12 -> 19        -0.14282
      12 -> 21         0.12824
      12 -> 22         0.14356
      13 -> 17         0.20566
      13 -> 18         0.33565
      13 -> 19        -0.29062
      13 -> 21         0.17810
      13 -> 22         0.21996
      13 -> 23        -0.24091
      13 -> 24         0.13273

 Excited State   6:      Singlet-A      6.2679 eV  197.81 nm  f=0.0303  <S**2>=0.000
      12 -> 14         0.14865
      12 -> 18        -0.19626
      12 -> 20         0.14352
      12 -> 23         0.13343
      13 -> 15         0.12781
      13 -> 18         0.35014
      13 -> 19         0.22482
      13 -> 20        -0.18900
      13 -> 22        -0.30130
      13 -> 23        -0.12689

 Excited State   7:      Singlet-A      6.3374 eV  195.64 nm  f=0.3590  <S**2>=0.000
      11 -> 16         0.11067
      12 -> 14         0.47807
      13 -> 15         0.40355
      13 -> 22         0.12115

 Excited State   8:      Singlet-A      6.4583 eV  191.98 nm  f=0.0475  <S**2>=0.000
      12 -> 15         0.43953
      12 -> 16        -0.16196
      13 -> 14        -0.12772
      13 -> 17         0.40131
      13 -> 18        -0.21678

 Excited State   9:      Singlet-A      6.5467 eV  189.38 nm  f=0.0641  <S**2>=0.000
      12 -> 15         0.44698
      12 -> 16        -0.12486
      13 -> 14        -0.13245
      13 -> 17        -0.41205
      13 -> 18         0.16341

 Excited State  10:      Singlet-A      6.9795 eV  177.64 nm  f=0.0006  <S**2>=0.000
      12 -> 17        -0.38598
      12 -> 18         0.40564
      12 -> 20        -0.13344
      12 -> 21         0.13439
      13 -> 19         0.30384
      13 -> 22         0.10893

 Excited State  11:      Singlet-A      7.2293 eV  171.50 nm  f=0.0021  <S**2>=0.000
       9 -> 14         0.15209
      10 -> 14         0.44817
      10 -> 15         0.23795
      11 -> 14        -0.20894
      11 -> 15        -0.11276
      12 -> 17        -0.18469
      12 -> 19        -0.13222
      12 -> 22         0.10193
      13 -> 19        -0.12362
      13 -> 20        -0.15439

 Excited State  12:      Singlet-A      7.3513 eV  168.66 nm  f=0.0021  <S**2>=0.000
       9 -> 14         0.10868
      10 -> 14         0.26372
      10 -> 15         0.17036
      11 -> 14        -0.17325
      11 -> 15         0.10549
      12 -> 17         0.30248
      12 -> 18         0.19703
      12 -> 19         0.11623
      12 -> 20         0.12595
      12 -> 23        -0.14519
      13 -> 17         0.13050
      13 -> 18         0.20179
      13 -> 19         0.18088
      13 -> 20         0.19470

 Excited State  13:      Singlet-A      7.4438 eV  166.56 nm  f=0.0043  <S**2>=0.000
       9 -> 14         0.39841
       9 -> 15        -0.22009
      11 -> 14         0.38810
      11 -> 15        -0.26762
      13 -> 17         0.11339
      13 -> 22        -0.12148

 Excited State  14:      Singlet-A      7.5921 eV  163.31 nm  f=0.0031  <S**2>=0.000
       9 -> 14        -0.13666
      10 -> 14         0.12124
      11 -> 14         0.35206
      11 -> 15         0.20210
      12 -> 17         0.10166
      12 -> 19        -0.21890
      12 -> 20         0.12351
      12 -> 21        -0.10805
      12 -> 22         0.15219
      12 -> 23        -0.12802
      13 -> 18        -0.15637
      13 -> 19         0.19355
      13 -> 20        -0.18702
      13 -> 22         0.13115
      13 -> 24         0.14765

 Excited State  15:      Singlet-A      7.6435 eV  162.21 nm  f=0.0009  <S**2>=0.000
       9 -> 14        -0.20655
      10 -> 14         0.23159
      11 -> 14         0.26819
      12 -> 17        -0.12280
      12 -> 18        -0.15883
      12 -> 19         0.22058
      12 -> 22        -0.20057
      13 -> 17         0.18697
      13 -> 18         0.14798
      13 -> 21        -0.11208
      13 -> 22         0.18595
      13 -> 23         0.14787
      13 -> 24        -0.11144

 The electronic state is 1-A.
 Alpha  occ. eigenvalues --   -1.55716  -1.23287  -1.10112  -0.81388  -0.80595
 Alpha  occ. eigenvalues --   -0.67770  -0.59600  -0.55301  -0.50983  -0.50229
 Alpha  occ. eigenvalues --   -0.49090  -0.39591  -0.35309
 Alpha virt. eigenvalues --    0.03373   0.06636   0.10015   0.13510   0.14324
 Alpha virt. eigenvalues --    0.14824   0.17400   0.17875   0.19065   0.20560
 Alpha virt. eigenvalues --    0.22262

 Mulliken charges:
               1
     1  C   -0.195685
     2  C   -0.090977
     3  O   -0.104557
     4  C   -0.093792
     5  C   -0.213928
     6  H    0.162271
     7  H    0.185586
     8  H    0.185419
     9  H    0.165664
 Sum of Mulliken charges =   0.00000

 Dipole moment (field-independent basis, Debye):
    X=              0.0962    Y=              0.5588    Z=              0.0198  Tot=              0.5673
 N-N= 1.032735031333D+02 E-N=-1.708228072754D+02  KE=-1.650451098112D+01
 Orbital energies and kinetic energies (alpha):
                                 1                 2
   1         O                -1.557158         -1.313667
   2         O                -1.232868         -1.042518
   3         O                -1.101115         -0.961091
   4         O                -0.813876         -0.695057
   5         O                -0.805945         -0.720867
   6         O                -0.677704         -0.600044
   7         O                -0.595999         -0.486831

 Normal termination of Gaussian 09 at Tue Dec 15 16:29:41 2015.
