 Gaussian 09, Revision D.01,
 Gaussian 09:  ES64L-G09RevD.01 24-Apr-2013

 ------------------------------------------------------------
 #P AM1(Input,print) CIS(Singlets,NStates=15) pop(full) force
 ------------------------------------------------------------

 -----------------
 AM1-Reparam Input
 -----------------
 Symbolic Z-matrix:
 Charge =  0 Multiplicity = 1

                         Standard orientation:
 ---------------------------------------------------------------------
 Center     Atomic      Atomic             Coordinates (Angstroms)
 Number     Number       Type             X           Y           Z
 ---------------------------------------------------------------------
      1          6           0        0.760338    0.887249   -0.009021
      2          6           0        1.077972   -0.418550    0.017701
      3          8           0       -0.077139   -1.163490   -0.014097
      4          6           0       -1.145988   -0.238772    0.027431
      5          6           0       -0.613710    0.982587   -0.024102
      6          1           0       -1.233499    1.867463    0.041784
      7          1           0       -2.067250   -0.683119   -0.020846
      8          1           0        1.969513   -0.900513   -0.005957
      9          1           0        1.476681    1.749002    0.025739
 ---------------------------------------------------------------------

 SCF Done:  E(RAM1) =   2.57804507181     A.U. after   13 cycles

 Excitation energies and oscillator strengths:

 Excited State   1:      Singlet-A      5.4691 eV  226.70 nm  f=0.3191  <S**2>=0.000
      13 -> 14         0.69208
 This state for optimization and/or second-order correction.
 Total Energy, E(CIS) =   2.77903133572
 Copying the excited state density for this state as the 1-particle RhoCI density.

 Excited State   2:      Singlet-A      6.6046 eV  187.72 nm  f=0.0045  <S**2>=0.000
      13 -> 15         0.65032
      13 -> 16         0.13247
      13 -> 17        -0.18090

 Excited State   3:      Singlet-A      6.8181 eV  181.84 nm  f=0.0002  <S**2>=0.000
      13 -> 15        -0.13539
      13 -> 16         0.64578
      13 -> 19        -0.16466

 Excited State   4:      Singlet-A      7.0650 eV  175.49 nm  f=0.0011  <S**2>=0.000
       9 -> 14         0.11118
      12 -> 14         0.69445

 Excited State   5:      Singlet-A      7.7101 eV  160.81 nm  f=0.0050  <S**2>=0.000
      11 -> 14         0.69268

 Excited State   6:      Singlet-A      8.0443 eV  154.13 nm  f=0.0001  <S**2>=0.000
      13 -> 17        -0.13816
      13 -> 18         0.59815
      13 -> 21         0.30719

 Excited State   7:      Singlet-A      8.3434 eV  148.60 nm  f=0.0057  <S**2>=0.000
      10 -> 16        -0.12139
      13 -> 15         0.13981
      13 -> 17         0.64450
      13 -> 18         0.12912

 Excited State   8:      Singlet-A      8.9664 eV  138.28 nm  f=0.0823  <S**2>=0.000
      10 -> 14         0.67686

 Excited State   9:      Singlet-A      9.0714 eV  136.68 nm  f=0.0005  <S**2>=0.000
      10 -> 15        -0.11218
      13 -> 16         0.11437
      13 -> 18         0.15523
      13 -> 19         0.62548
      13 -> 21        -0.16645

 Excited State  10:      Singlet-A      9.3905 eV  132.03 nm  f=0.0434  <S**2>=0.000
       9 -> 15        -0.10010
       9 -> 16         0.10158
       9 -> 19        -0.10296
      11 -> 15         0.23830
      11 -> 16         0.20351
      11 -> 17        -0.31503
      12 -> 15        -0.22866
      12 -> 16         0.16475
      12 -> 18         0.34658

 Excited State  11:      Singlet-A      9.6118 eV  128.99 nm  f=0.0120  <S**2>=0.000
      13 -> 18        -0.29302
      13 -> 19         0.23390
      13 -> 20        -0.24133
      13 -> 21         0.52816

 Excited State  12:      Singlet-A      9.8598 eV  125.75 nm  f=0.2024  <S**2>=0.000
      11 -> 15        -0.16698
      11 -> 16        -0.21984
      12 -> 16         0.59551
      12 -> 19        -0.13233

 Excited State  13:      Singlet-A      9.8998 eV  125.24 nm  f=0.0552  <S**2>=0.000
      11 -> 15         0.35297
      11 -> 16        -0.14017
      11 -> 19         0.11558
      12 -> 15         0.51577
      12 -> 17        -0.14348

 Excited State  14:      Singlet-A     10.0066 eV  123.90 nm  f=0.1005  <S**2>=0.000
      10 -> 15         0.11572
      13 -> 20         0.62403
      13 -> 21         0.26260

 Excited State  15:      Singlet-A     10.3261 eV  120.07 nm  f=0.1058  <S**2>=0.000
       8 -> 16        -0.17282
       9 -> 14         0.10302
       9 -> 15        -0.19839
      10 -> 14        -0.12203
      10 -> 15        -0.18150
      11 -> 15         0.12956
      11 -> 16        -0.19106
      11 -> 18         0.26682
      11 -> 19         0.21792
      12 -> 15        -0.17871
      12 -> 16        -0.12352
      12 -> 17        -0.25557
      12 -> 18        -0.10437
      12 -> 20         0.14813

 The electronic state is 1-A.
 Alpha  occ. eigenvalues --   -1.73132  -1.17234  -0.96490  -0.80290  -0.77821
 Alpha  occ. eigenvalues --   -0.67606  -0.64406  -0.55408  -0.50661  -0.43728
 Alpha  occ. eigenvalues --   -0.42454  -0.40541  -0.28857
 Alpha virt. eigenvalues --    0.12440   0.19233   0.19832   0.25519   0.27300
 Alpha virt. eigenvalues --    0.29727   0.31679   0.33135   0.37333   0.46712
 Alpha virt. eigenvalues --    0.50990

 Mulliken charges:
               1
     1  C   -0.088296
     2  C   -1.933050
     3  O    3.235279
     4  C   -1.897467
     5  C   -0.055837
     6  H    0.121416
     7  H    0.235457
     8  H    0.260066
     9  H    0.122431
 Sum of Mulliken charges =   0.00000

 Dipole moment (field-independent basis, Debye):
    X=             -0.5271    Y=            -10.8880    Z=             -0.5802  Tot=             10.9162
 N-N= 1.039889437281D+02 E-N=-1.689723201204D+02  KE=-1.507690324002D+01
 Orbital energies and kinetic energies (alpha):
                                 1                 2
   1         O                -1.731322         -1.221630
   2         O                -1.172338         -1.017068
   3         O                -0.964903         -0.887143
   4         O                -0.802905         -0.609737
   5         O                -0.778211         -0.695313
   6         O                -0.676055         -0.570468
   7         O                -0.644064         -0.529576

 Normal termination of Gaussian 09 at Tue Dec 15 17:06:17 2015.
