 Gaussian 09, Revision D.01,
 Gaussian 09:  ES64L-G09RevD.01 24-Apr-2013

 ------------------------------------------------------------
 #P AM1(Input,print) CIS(Singlets,NStates=15) pop(full) force
 ------------------------------------------------------------

 -----------------
 AM1-Reparam Input
 -----------------
 Symbolic Z-matrix:
 Charge =  0 Multiplicity = 1

                         Standard orientation:
 ---------------------------------------------------------------------
 Center     Atomic      Atomic             Coordinates (Angstroms)
 Number     Number       Type             X           Y           Z
 ---------------------------------------------------------------------
      1          6           0       -0.019172    1.188053   -0.031530
      2          6           0        1.098895    0.359700    0.031743
      3          8           0        0.727362   -0.947149    0.002160
      4          6           0       -0.659023   -0.891027   -0.032035
      5          6           0       -1.176731    0.335006    0.033046
      6          1           0       -2.218232    0.574251    0.032953
      7          1           0       -1.151457   -1.871327   -0.002203
      8          1           0        2.139430    0.634543   -0.023351
      9          1           0       -0.052447    2.289335   -0.032020
 ---------------------------------------------------------------------

 SCF Done:  E(RAM1) =   2.82001678403     A.U. after   14 cycles

 Excitation energies and oscillator strengths:

 Excited State   1:      Singlet-A      5.2586 eV  235.77 nm  f=0.3322  <S**2>=0.000
      13 -> 14         0.69539
 This state for optimization and/or second-order correction.
 Total Energy, E(CIS) =   3.01326800943
 Copying the excited state density for this state as the 1-particle RhoCI density.

 Excited State   2:      Singlet-A      6.3509 eV  195.22 nm  f=0.0013  <S**2>=0.000
      11 -> 15         0.12407
      13 -> 15         0.65746
      13 -> 17         0.15430
      13 -> 18         0.11885

 Excited State   3:      Singlet-A      6.5737 eV  188.61 nm  f=0.0037  <S**2>=0.000
      11 -> 16        -0.10982
      13 -> 16         0.63856
      13 -> 17         0.15870
      13 -> 18        -0.18029

 Excited State   4:      Singlet-A      6.7187 eV  184.54 nm  f=0.0014  <S**2>=0.000
      12 -> 14         0.69118

 Excited State   5:      Singlet-A      7.6896 eV  161.24 nm  f=0.0096  <S**2>=0.000
      10 -> 14         0.19619
      13 -> 15        -0.16355
      13 -> 17         0.42358
      13 -> 18         0.36811
      13 -> 21         0.30380

 Excited State   6:      Singlet-A      7.8814 eV  157.31 nm  f=0.0063  <S**2>=0.000
      10 -> 14         0.62014
      13 -> 18        -0.20442
      13 -> 20         0.12223
      13 -> 21        -0.17859

 Excited State   7:      Singlet-A      8.0575 eV  153.87 nm  f=0.0096  <S**2>=0.000
      10 -> 14        -0.24463
      11 -> 16         0.13039
      13 -> 16        -0.17812
      13 -> 17         0.50737
      13 -> 18        -0.24915
      13 -> 21        -0.23110

 Excited State   8:      Singlet-A      8.5438 eV  145.12 nm  f=0.0925  <S**2>=0.000
      11 -> 14         0.65163
      12 -> 15         0.10978
      13 -> 19         0.16215

 Excited State   9:      Singlet-A      8.5934 eV  144.28 nm  f=0.0091  <S**2>=0.000
      11 -> 14        -0.16868
      13 -> 16         0.10289
      13 -> 18         0.17962
      13 -> 19         0.57609
      13 -> 21        -0.27134

 Excited State  10:      Singlet-A      8.8985 eV  139.33 nm  f=0.0090  <S**2>=0.000
      13 -> 18         0.41005
      13 -> 19        -0.34439
      13 -> 20         0.22124
      13 -> 21        -0.38968

 Excited State  11:      Singlet-A      9.2331 eV  134.28 nm  f=0.0620  <S**2>=0.000
       8 -> 15         0.14833
      10 -> 17         0.18170
      12 -> 15         0.37423
      12 -> 16        -0.23747
      12 -> 18         0.21206
      12 -> 21         0.10346
      13 -> 20         0.30228
      13 -> 21         0.16261

 Excited State  12:      Singlet-A      9.3630 eV  132.42 nm  f=0.0979  <S**2>=0.000
       8 -> 15        -0.10158
      12 -> 15        -0.25916
      12 -> 16         0.11002
      13 -> 20         0.54997
      13 -> 21         0.22688

 Excited State  13:      Singlet-A      9.7095 eV  127.69 nm  f=0.0378  <S**2>=0.000
      11 -> 15         0.19416
      11 -> 16         0.15469
      12 -> 15         0.33604
      12 -> 16         0.44251
      12 -> 18        -0.19383

 Excited State  14:      Singlet-A      9.8361 eV  126.05 nm  f=0.1678  <S**2>=0.000
       9 -> 16        -0.16526
      10 -> 15         0.19172
      10 -> 16         0.23130
      10 -> 17         0.23603
      12 -> 15        -0.19177
      12 -> 16         0.29089
      12 -> 17         0.25199
      12 -> 18         0.13118
      12 -> 19        -0.18703
      12 -> 21         0.14016

 Excited State  15:      Singlet-A      9.8979 eV  125.26 nm  f=0.0211  <S**2>=0.000
      11 -> 15         0.45547
      11 -> 16         0.37089
      11 -> 17         0.11486
      12 -> 15        -0.15331
      12 -> 16        -0.15688
      12 -> 18         0.11844
      13 -> 16         0.11525

 The electronic state is 1-A.
 Alpha  occ. eigenvalues --   -1.70161  -1.11178  -0.90736  -0.78257  -0.74491
 Alpha  occ. eigenvalues --   -0.65956  -0.62493  -0.52044  -0.49155  -0.43159
 Alpha  occ. eigenvalues --   -0.42017  -0.39316  -0.27534
 Alpha virt. eigenvalues --    0.12291   0.18607   0.19577   0.25811   0.27717
 Alpha virt. eigenvalues --    0.29153   0.30304   0.31652   0.36816   0.46379
 Alpha virt. eigenvalues --    0.49441

 Mulliken charges:
               1
     1  C   -0.153168
     2  C   -1.964473
     3  O    3.200596
     4  C   -1.928229
     5  C   -0.095756
     6  H    0.169293
     7  H    0.290395
     8  H    0.309461
     9  H    0.171880
 Sum of Mulliken charges =   0.00000

 Dipole moment (field-independent basis, Debye):
    X=              6.3097    Y=             -8.8388    Z=             -0.0062  Tot=             10.8599
 N-N= 1.035399612318D+02 E-N=-1.685782627104D+02  KE=-1.473168534871D+01
 Orbital energies and kinetic energies (alpha):
                                 1                 2
   1         O                -1.701607         -1.191972
   2         O                -1.111777         -0.994682
   3         O                -0.907365         -0.847741
   4         O                -0.782568         -0.585615
   5         O                -0.744910         -0.675721
   6         O                -0.659562         -0.566291
   7         O                -0.624931         -0.519556

 Normal termination of Gaussian 09 at Tue Dec 15 17:05:55 2015.
