 Gaussian 09, Revision D.01,
 Gaussian 09:  ES64L-G09RevD.01 24-Apr-2013

 ------------------------------------------------------------
 #P AM1(Input,print) CIS(Singlets,NStates=15) pop(full) force
 ------------------------------------------------------------

 -----------------
 AM1-Reparam Input
 -----------------
 Symbolic Z-matrix:
 Charge =  0 Multiplicity = 1

                         Standard orientation:
 ---------------------------------------------------------------------
 Center     Atomic      Atomic             Coordinates (Angstroms)
 Number     Number       Type             X           Y           Z
 ---------------------------------------------------------------------
      1          6           0       -0.580822    0.998465   -0.038253
      2          6           0       -1.094022   -0.221458    0.050986
      3          8           0       -0.151048   -1.125212   -0.037750
      4          6           0        1.033067   -0.491337    0.032976
      5          6           0        0.801596    0.893040    0.012313
      6          1           0        1.655578    1.614624   -0.044816
      7          1           0        1.897739   -1.124745   -0.014281
      8          1           0       -2.165750   -0.502364   -0.007960
      9          1           0       -1.138090    1.941924    0.020924
 ---------------------------------------------------------------------

 SCF Done:  E(RAM1) =   1.37235847156     A.U. after   13 cycles

 Excitation energies and oscillator strengths:

 Excited State   1:      Singlet-A      6.2360 eV  198.82 nm  f=0.2942  <S**2>=0.000
      13 -> 14         0.68288
      13 -> 15         0.11016
 This state for optimization and/or second-order correction.
 Total Energy, E(CIS) =   1.60152812664
 Copying the excited state density for this state as the 1-particle RhoCI density.

 Excited State   2:      Singlet-A      6.3719 eV  194.58 nm  f=0.0100  <S**2>=0.000
      12 -> 15         0.11892
      13 -> 14        -0.11652
      13 -> 15         0.64898
      13 -> 17         0.17001

 Excited State   3:      Singlet-A      6.8900 eV  179.95 nm  f=0.0002  <S**2>=0.000
      12 -> 15        -0.13003
      12 -> 16        -0.13734
      13 -> 16         0.62655
      13 -> 17         0.17434
      13 -> 20         0.11744

 Excited State   4:      Singlet-A      7.6351 eV  162.39 nm  f=0.0021  <S**2>=0.000
      11 -> 14         0.67449
      12 -> 14         0.11996

 Excited State   5:      Singlet-A      7.7615 eV  159.74 nm  f=0.0087  <S**2>=0.000
      10 -> 14        -0.12400
      12 -> 16         0.15590
      13 -> 15        -0.13365
      13 -> 16        -0.16688
      13 -> 17         0.62744

 Excited State   6:      Singlet-A      8.2591 eV  150.12 nm  f=0.0016  <S**2>=0.000
      10 -> 14         0.67213
      13 -> 17         0.13147

 Excited State   7:      Singlet-A      8.2813 eV  149.72 nm  f=0.0020  <S**2>=0.000
      10 -> 14        -0.10516
      12 -> 15        -0.16791
      13 -> 18         0.47095
      13 -> 22         0.45537

 Excited State   8:      Singlet-A      8.5213 eV  145.50 nm  f=0.0693  <S**2>=0.000
      11 -> 14        -0.11975
      12 -> 14         0.64667
      13 -> 19        -0.18187

 Excited State   9:      Singlet-A      8.7458 eV  141.76 nm  f=0.0012  <S**2>=0.000
      12 -> 15         0.37214
      12 -> 16         0.13904
      13 -> 18         0.39165
      13 -> 20         0.21528
      13 -> 21        -0.23568
      13 -> 22        -0.23984

 Excited State  10:      Singlet-A      9.0140 eV  137.55 nm  f=0.0026  <S**2>=0.000
      13 -> 16        -0.11838
      13 -> 18        -0.26234
      13 -> 20         0.50715
      13 -> 21        -0.31113
      13 -> 22         0.16687

 Excited State  11:      Singlet-A      9.0611 eV  136.83 nm  f=0.0036  <S**2>=0.000
      12 -> 15         0.48221
      13 -> 15        -0.12436
      13 -> 16         0.12564
      13 -> 18        -0.20852
      13 -> 22         0.39182

 Excited State  12:      Singlet-A      9.2671 eV  133.79 nm  f=0.0596  <S**2>=0.000
      12 -> 16         0.40297
      13 -> 16         0.11147
      13 -> 19        -0.39631
      13 -> 20         0.12762
      13 -> 21         0.33560

 Excited State  13:      Singlet-A      9.6033 eV  129.11 nm  f=0.0306  <S**2>=0.000
      12 -> 15        -0.11818
      12 -> 16         0.46595
      13 -> 15         0.11724
      13 -> 16         0.15010
      13 -> 19         0.37099
      13 -> 20        -0.15162
      13 -> 21        -0.13118
      13 -> 22         0.12580

 Excited State  14:      Singlet-A      9.6648 eV  128.28 nm  f=0.0416  <S**2>=0.000
       8 -> 15         0.18093
       9 -> 15         0.17769
      10 -> 15         0.31176
      10 -> 17         0.30302
      11 -> 15        -0.12824
      11 -> 16         0.24627
      11 -> 17         0.20576
      11 -> 18        -0.23627

 Excited State  15:      Singlet-A      9.7342 eV  127.37 nm  f=0.1254  <S**2>=0.000
       8 -> 15        -0.10083
      10 -> 15         0.11500
      10 -> 17         0.11119
      11 -> 15         0.62111
      11 -> 21         0.10429

 The electronic state is 1-A.
 Alpha  occ. eigenvalues --   -1.91365  -1.20152  -0.96252  -0.79246  -0.77083
 Alpha  occ. eigenvalues --   -0.67579  -0.63392  -0.50398  -0.47760  -0.40105
 Alpha  occ. eigenvalues --   -0.38633  -0.36905  -0.26197
 Alpha virt. eigenvalues --    0.17518   0.20330   0.22659   0.27395   0.29858
 Alpha virt. eigenvalues --    0.31905   0.33116   0.33416   0.35553   0.42231
 Alpha virt. eigenvalues --    0.48028

 Mulliken charges:
               1
     1  C   -0.053719
     2  C   -1.588799
     3  O    2.805547
     4  C   -1.589338
     5  C   -0.049012
     6  H    0.067277
     7  H    0.157741
     8  H    0.187007
     9  H    0.063296
 Sum of Mulliken charges =   0.00000

 Dipole moment (field-independent basis, Debye):
    X=             -1.6904    Y=             -8.8855    Z=             -1.0777  Tot=              9.1089
 N-N= 1.041858307811D+02 E-N=-1.710019888749D+02  KE=-1.592361631997D+01
 Orbital energies and kinetic energies (alpha):
                                 1                 2
   1         O                -1.913650         -1.420725
   2         O                -1.201524         -1.078463
   3         O                -0.962518         -0.874587
   4         O                -0.792459         -0.628158
   5         O                -0.770833         -0.697356
   6         O                -0.675787         -0.623467
   7         O                -0.633916         -0.554459

 Normal termination of Gaussian 09 at Tue Dec 15 17:08:06 2015.
