 Gaussian 09, Revision D.01,
 Gaussian 09:  ES64L-G09RevD.01 24-Apr-2013

 ------------------------------------------------------------
 #P AM1(Input,print) CIS(Singlets,NStates=15) pop(full) force
 ------------------------------------------------------------

 -----------------
 AM1-Reparam Input
 -----------------
 Symbolic Z-matrix:
 Charge =  0 Multiplicity = 1

                         Standard orientation:
 ---------------------------------------------------------------------
 Center     Atomic      Atomic             Coordinates (Angstroms)
 Number     Number       Type             X           Y           Z
 ---------------------------------------------------------------------
      1          6           0       -0.580822    0.998465   -0.038253
      2          6           0       -1.094022   -0.221458    0.050986
      3          8           0       -0.151048   -1.125212   -0.037750
      4          6           0        1.033067   -0.491337    0.032976
      5          6           0        0.801596    0.893040    0.012313
      6          1           0        1.655578    1.614624   -0.044816
      7          1           0        1.897739   -1.124745   -0.014281
      8          1           0       -2.165750   -0.502364   -0.007960
      9          1           0       -1.138090    1.941924    0.020924
 ---------------------------------------------------------------------

 SCF Done:  E(RAM1) =   1.69844530749     A.U. after   14 cycles

 Excitation energies and oscillator strengths:

 Excited State   1:      Singlet-A      5.5999 eV  221.40 nm  f=0.3168  <S**2>=0.000
      10 -> 17         0.10996
      13 -> 14         0.68998
 This state for optimization and/or second-order correction.
 Total Energy, E(CIS) =   1.90423964918
 Copying the excited state density for this state as the 1-particle RhoCI density.

 Excited State   2:      Singlet-A      6.3730 eV  194.55 nm  f=0.0059  <S**2>=0.000
      11 -> 15         0.11032
      13 -> 15         0.64512
      13 -> 16         0.10030
      13 -> 17         0.20989

 Excited State   3:      Singlet-A      6.8270 eV  181.61 nm  f=0.0017  <S**2>=0.000
      11 -> 16        -0.10879
      13 -> 15        -0.12850
      13 -> 16         0.60940
      13 -> 17         0.19435
      13 -> 19        -0.13334
      13 -> 21        -0.12797

 Excited State   4:      Singlet-A      7.2699 eV  170.54 nm  f=0.0012  <S**2>=0.000
      12 -> 14         0.66735
      13 -> 21        -0.14999

 Excited State   5:      Singlet-A      7.7335 eV  160.32 nm  f=0.0067  <S**2>=0.000
      10 -> 14        -0.18655
      11 -> 16         0.13089
      12 -> 14        -0.13176
      13 -> 16        -0.19758
      13 -> 17         0.43371
      13 -> 19        -0.10460
      13 -> 20        -0.16982
      13 -> 21        -0.37200

 Excited State   6:      Singlet-A      7.9053 eV  156.84 nm  f=0.0151  <S**2>=0.000
      10 -> 14        -0.15298
      12 -> 14         0.12017
      13 -> 15        -0.12868
      13 -> 17         0.40155
      13 -> 19         0.16317
      13 -> 21         0.47156

 Excited State   7:      Singlet-A      8.0240 eV  154.52 nm  f=0.0010  <S**2>=0.000
      10 -> 14         0.64937
      13 -> 17         0.22937

 Excited State   8:      Singlet-A      8.5233 eV  145.46 nm  f=0.0004  <S**2>=0.000
      13 -> 16        -0.14109
      13 -> 18         0.53068
      13 -> 19        -0.34677
      13 -> 20         0.21436

 Excited State   9:      Singlet-A      8.6410 eV  143.48 nm  f=0.0391  <S**2>=0.000
      11 -> 14         0.45763
      13 -> 18         0.28830
      13 -> 19         0.25110
      13 -> 20        -0.32092

 Excited State  10:      Singlet-A      8.6708 eV  142.99 nm  f=0.0563  <S**2>=0.000
      11 -> 14         0.49210
      13 -> 18        -0.30340
      13 -> 19        -0.22346
      13 -> 20         0.29182

 Excited State  11:      Singlet-A      9.1122 eV  136.06 nm  f=0.0813  <S**2>=0.000
      13 -> 19         0.41440
      13 -> 20         0.44443
      13 -> 21        -0.26585

 Excited State  12:      Singlet-A      9.3938 eV  131.98 nm  f=0.0310  <S**2>=0.000
       8 -> 15         0.12598
       9 -> 15         0.13369
      10 -> 15         0.29331
      10 -> 16         0.13132
      10 -> 17         0.31060
      11 -> 15        -0.10201
      12 -> 15        -0.11961
      12 -> 16         0.22396
      12 -> 17         0.12780
      12 -> 18         0.13880
      12 -> 20        -0.10718
      12 -> 21        -0.19011
      13 -> 19        -0.12973
      13 -> 20        -0.10707

 Excited State  13:      Singlet-A      9.5306 eV  130.09 nm  f=0.0080  <S**2>=0.000
      11 -> 15         0.55719
      11 -> 16         0.19193
      11 -> 17         0.15559
      12 -> 15         0.16064
      12 -> 16         0.11151
      13 -> 15        -0.11722
      13 -> 16         0.13463

 Excited State  14:      Singlet-A      9.6487 eV  128.50 nm  f=0.1283  <S**2>=0.000
       8 -> 15        -0.10814
      10 -> 15         0.16874
      11 -> 15        -0.16860
      12 -> 15         0.59235
      12 -> 19         0.14056

 Excited State  15:      Singlet-A      9.9904 eV  124.10 nm  f=0.0040  <S**2>=0.000
      11 -> 15        -0.21226
      11 -> 16         0.58286
      13 -> 15         0.10973
      13 -> 16         0.14393

 The electronic state is 1-A.
 Alpha  occ. eigenvalues --   -1.93030  -1.23323  -0.99750  -0.82350  -0.80065
 Alpha  occ. eigenvalues --   -0.68734  -0.64583  -0.54592  -0.51634  -0.43314
 Alpha  occ. eigenvalues --   -0.42165  -0.41387  -0.29184
 Alpha virt. eigenvalues --    0.12685   0.17089   0.19141   0.23767   0.26268
 Alpha virt. eigenvalues --    0.27844   0.28060   0.29502   0.39086   0.47738
 Alpha virt. eigenvalues --    0.52731

 Mulliken charges:
               1
     1  C   -0.131721
     2  C   -1.961897
     3  O    3.183925
     4  C   -1.969315
     5  C   -0.103621
     6  H    0.180587
     7  H    0.296806
     8  H    0.327241
     9  H    0.177996
 Sum of Mulliken charges =   0.00000

 Dipole moment (field-independent basis, Debye):
    X=             -1.8001    Y=             -9.4899    Z=             -1.2683  Tot=              9.7421
 N-N= 1.045257001697D+02 E-N=-1.703938974517D+02  KE=-1.577840747139D+01
 Orbital energies and kinetic energies (alpha):
                                 1                 2
   1         O                -1.930295         -1.418658
   2         O                -1.233229         -1.103147
   3         O                -0.997502         -0.909540
   4         O                -0.823499         -0.628989
   5         O                -0.800655         -0.698642
   6         O                -0.687336         -0.583542
   7         O                -0.645830         -0.523285

 Normal termination of Gaussian 09 at Tue Dec 15 17:07:05 2015.
