 Gaussian 09, Revision D.01,
 Gaussian 09:  ES64L-G09RevD.01 24-Apr-2013

 -------------------------------------------------------
 #P B3LYP/3-21G CIS(Singlets,NStates=15) pop(full) force
 -------------------------------------------------------

 --------
 FuranDFT
 --------
 Symbolic Z-matrix:
 Charge =  0 Multiplicity = 1

                         Standard orientation:
 ---------------------------------------------------------------------
 Center     Atomic      Atomic             Coordinates (Angstroms)
 Number     Number       Type             X           Y           Z
 ---------------------------------------------------------------------
      1          6           0        0.701226    0.967271    0.040553
      2          6           0        1.125392   -0.316932   -0.018002
      3          8           0        0.007052   -1.142557   -0.010788
      4          6           0       -1.064523   -0.340344    0.037152
      5          6           0       -0.742517    0.901630   -0.041313
      6          1           0       -1.448645    1.775495   -0.029997
      7          1           0       -2.014939   -0.928212    0.013211
      8          1           0        2.024224   -0.811181   -0.003780
      9          1           0        1.265480    1.834602   -0.003475
 ---------------------------------------------------------------------

 SCF Done:  E(RB3LYP) =  -228.735187447     A.U. after   14 cycles

 Excitation energies and oscillator strengths:

 Excited State   1:      Singlet-A      7.4192 eV  167.11 nm  f=0.0765  <S**2>=0.000
      17 -> 19         0.44493
      18 -> 19         0.41258
      18 -> 20         0.33575
 This state for optimization and/or second-order correction.
 Total Energy, E(CIS) =  -228.462535222
 Copying the excited state density for this state as the 1-particle RhoCI density.

 Excited State   2:      Singlet-A      7.6647 eV  161.76 nm  f=0.1431  <S**2>=0.000
      17 -> 19        -0.28919
      18 -> 19         0.54133
      18 -> 20        -0.31366

 Excited State   3:      Singlet-A      8.7116 eV  142.32 nm  f=0.0005  <S**2>=0.000
      18 -> 21         0.69683

 Excited State   4:      Singlet-A      8.9556 eV  138.44 nm  f=0.0057  <S**2>=0.000
      16 -> 19         0.69974

 Excited State   5:      Singlet-A      9.3591 eV  132.47 nm  f=0.0105  <S**2>=0.000
      17 -> 21         0.13756
      18 -> 22         0.66234

 Excited State   6:      Singlet-A      9.4891 eV  130.66 nm  f=0.1700  <S**2>=0.000
      17 -> 19         0.20108
      17 -> 20         0.60285
      18 -> 20        -0.21431

 Excited State   7:      Singlet-A      9.7211 eV  127.54 nm  f=0.0019  <S**2>=0.000
      17 -> 21         0.67635
      18 -> 22        -0.14036

 Excited State   8:      Singlet-A      9.9823 eV  124.20 nm  f=0.1785  <S**2>=0.000
      15 -> 19         0.47081
      17 -> 19        -0.22847
      17 -> 20         0.16200
      18 -> 20         0.27795
      18 -> 23         0.27617

 Excited State   9:      Singlet-A     10.0342 eV  123.56 nm  f=0.2101  <S**2>=0.000
      15 -> 19         0.48159
      17 -> 19         0.22483
      17 -> 20        -0.24513
      18 -> 20        -0.28235
      18 -> 22         0.11221

 Excited State  10:      Singlet-A     10.2179 eV  121.34 nm  f=0.0826  <S**2>=0.000
      15 -> 19        -0.14265
      17 -> 19         0.14900
      18 -> 20        -0.17644
      18 -> 23         0.61060

 Excited State  11:      Singlet-A     10.3944 eV  119.28 nm  f=0.0126  <S**2>=0.000
      17 -> 22         0.67462

 Excited State  12:      Singlet-A     10.6116 eV  116.84 nm  f=0.0046  <S**2>=0.000
      14 -> 19        -0.39884
      16 -> 20         0.55658

 Excited State  13:      Singlet-A     10.6808 eV  116.08 nm  f=0.0026  <S**2>=0.000
      18 -> 23        -0.10626
      18 -> 24         0.68120

 Excited State  14:      Singlet-A     10.9733 eV  112.99 nm  f=0.0017  <S**2>=0.000
      13 -> 19        -0.21810
      14 -> 19         0.51391
      16 -> 20         0.40159
      17 -> 23         0.10078

 Excited State  15:      Singlet-A     11.1792 eV  110.91 nm  f=0.0033  <S**2>=0.000
      13 -> 19         0.15477
      17 -> 23         0.47719
      17 -> 24         0.10936
      18 -> 25         0.46076

 The electronic state is 1-A.
 Alpha  occ. eigenvalues --  -19.10470 -10.17112 -10.17006 -10.12362 -10.12048
 Alpha  occ. eigenvalues --   -1.12662  -0.81018  -0.75610  -0.60859  -0.56984
 Alpha  occ. eigenvalues --   -0.54348  -0.44960  -0.44260  -0.42598  -0.39484
 Alpha  occ. eigenvalues --   -0.36086  -0.27673  -0.23999
 Alpha virt. eigenvalues --    0.02673   0.08610   0.12683   0.15136   0.17804
 Alpha virt. eigenvalues --    0.19278   0.21830   0.23465   0.37044   0.43100
 Alpha virt. eigenvalues --    0.47873   0.67830   0.69638   0.70090   0.75941

 Mulliken charges:
               1
     1  C   -0.260932
     2  C    0.074170
     3  O   -0.490373
     4  C    0.126499
     5  C   -0.252979
     6  H    0.182965
     7  H    0.211458
     8  H    0.219803
     9  H    0.189388
 Sum of Mulliken charges =   0.00000

 Dipole moment (field-independent basis, Debye):
    X=              0.0319    Y=              0.7105    Z=             -0.0055  Tot=              0.7113
 Quadrupole moment (field-independent basis, Debye-Ang):
   XX=            -23.7431   YY=            -27.9855   ZZ=            -31.6055
   XY=              0.0090   XZ=             -0.0050   YZ=             -0.0730

 Normal termination of Gaussian 09 at Tue Dec 15 16:13:48 2015.
