 Gaussian 09, Revision D.01,
 Gaussian 09:  ES64L-G09RevD.01 24-Apr-2013

 ------------------------------------------------------------
 #P AM1(Input,print) CIS(Singlets,NStates=15) pop(full) force
 ------------------------------------------------------------

 -----------------
 AM1-Reparam Input
 -----------------
 Symbolic Z-matrix:
 Charge =  0 Multiplicity = 1

                         Standard orientation:
 ---------------------------------------------------------------------
 Center     Atomic      Atomic             Coordinates (Angstroms)
 Number     Number       Type             X           Y           Z
 ---------------------------------------------------------------------
      1          6           0       -1.020417    0.619512   -0.026118
      2          6           0       -0.891285   -0.654347    0.012216
      3          8           0        0.411707   -1.029125   -0.003098
      4          6           0        1.176884    0.035336   -0.000925
      5          6           0        0.295869    1.087925    0.013852
      6          1           0        0.646310    2.146935   -0.021383
      7          1           0        2.242712   -0.100238    0.002443
      8          1           0       -1.675040   -1.535533   -0.006018
      9          1           0       -1.873945    1.191277    0.055588
 ---------------------------------------------------------------------

 SCF Done:  E(RAM1) =   1.40568236942     A.U. after   13 cycles

 Excitation energies and oscillator strengths:

 Excited State   1:      Singlet-A      5.8950 eV  210.32 nm  f=0.0110  <S**2>=0.000
      11 -> 15         0.12335
      13 -> 14        -0.13985
      13 -> 15         0.66275
      13 -> 17         0.11264
 This state for optimization and/or second-order correction.
 Total Energy, E(CIS) =   1.62231925529
 Copying the excited state density for this state as the 1-particle RhoCI density.

 Excited State   2:      Singlet-A      5.9907 eV  206.96 nm  f=0.2861  <S**2>=0.000
      13 -> 14         0.67836
      13 -> 15         0.13779

 Excited State   3:      Singlet-A      6.5301 eV  189.87 nm  f=0.0013  <S**2>=0.000
      11 -> 16        -0.11195
      13 -> 16         0.64183
      13 -> 17         0.19740

 Excited State   4:      Singlet-A      7.3302 eV  169.14 nm  f=0.0002  <S**2>=0.000
      12 -> 14         0.68434
      13 -> 22        -0.10209

 Excited State   5:      Singlet-A      7.4312 eV  166.84 nm  f=0.0089  <S**2>=0.000
      13 -> 15        -0.10622
      13 -> 16        -0.14982
      13 -> 17         0.62425
      13 -> 18        -0.14548
      13 -> 22         0.17347

 Excited State   6:      Singlet-A      8.0088 eV  154.81 nm  f=0.0011  <S**2>=0.000
      11 -> 16         0.10712
      13 -> 16        -0.12874
      13 -> 17         0.20995
      13 -> 18         0.42649
      13 -> 20         0.21869
      13 -> 22        -0.41057

 Excited State   7:      Singlet-A      8.4138 eV  147.36 nm  f=0.0018  <S**2>=0.000
      10 -> 14         0.67839
      11 -> 14         0.10443

 Excited State   8:      Singlet-A      8.6471 eV  143.38 nm  f=0.0371  <S**2>=0.000
      10 -> 14        -0.11543
      11 -> 14         0.54397
      12 -> 15         0.22427
      13 -> 19         0.33465

 Excited State   9:      Singlet-A      8.7229 eV  142.14 nm  f=0.0104  <S**2>=0.000
      11 -> 15        -0.20338
      13 -> 18         0.40800
      13 -> 21         0.45316
      13 -> 22         0.25894

 Excited State  10:      Singlet-A      8.7843 eV  141.14 nm  f=0.0081  <S**2>=0.000
      13 -> 16         0.10291
      13 -> 18        -0.30761
      13 -> 20         0.48599
      13 -> 21         0.33911
      13 -> 22        -0.14753

 Excited State  11:      Singlet-A      9.1502 eV  135.50 nm  f=0.0155  <S**2>=0.000
      11 -> 15         0.46036
      11 -> 16         0.33421
      11 -> 17         0.12101
      13 -> 15        -0.10170
      13 -> 16         0.12880
      13 -> 20        -0.18800
      13 -> 21         0.25224

 Excited State  12:      Singlet-A      9.2210 eV  134.46 nm  f=0.1710  <S**2>=0.000
       8 -> 15         0.17096
      11 -> 14        -0.17535
      11 -> 15        -0.18833
      12 -> 15         0.49938
      12 -> 16        -0.14917
      13 -> 19        -0.15253
      13 -> 20        -0.11370
      13 -> 22        -0.17636

 Excited State  13:      Singlet-A      9.2599 eV  133.89 nm  f=0.0840  <S**2>=0.000
      11 -> 15         0.31952
      11 -> 16        -0.20837
      12 -> 15         0.23079
      13 -> 18         0.13381
      13 -> 20         0.26831
      13 -> 21        -0.21651
      13 -> 22         0.33888

 Excited State  14:      Singlet-A      9.5598 eV  129.69 nm  f=0.0583  <S**2>=0.000
      11 -> 14        -0.18187
      11 -> 15        -0.16587
      11 -> 16         0.41604
      12 -> 16        -0.16518
      13 -> 19         0.33510
      13 -> 20         0.19107
      13 -> 21        -0.10660
      13 -> 22         0.15904

 Excited State  15:      Singlet-A      9.5962 eV  129.20 nm  f=0.0781  <S**2>=0.000
      10 -> 16         0.11481
      11 -> 14        -0.22593
      11 -> 15         0.12852
      11 -> 16        -0.30375
      12 -> 16        -0.21388
      13 -> 19         0.41392
      13 -> 20        -0.17038
      13 -> 21         0.14775
      13 -> 22        -0.11991

 The electronic state is 1-A.
 Alpha  occ. eigenvalues --   -1.91863  -1.21474  -0.97043  -0.80062  -0.77185
 Alpha  occ. eigenvalues --   -0.67318  -0.64216  -0.51237  -0.47723  -0.40822
 Alpha  occ. eigenvalues --   -0.38139  -0.37189  -0.25199
 Alpha virt. eigenvalues --    0.17596   0.19384   0.21714   0.27781   0.30602
 Alpha virt. eigenvalues --    0.31866   0.32811   0.33902   0.35406   0.41652
 Alpha virt. eigenvalues --    0.47793

 Mulliken charges:
               1
     1  C   -0.011621
     2  C   -1.550345
     3  O    2.807662
     4  C   -1.581295
     5  C   -0.136464
     6  H    0.070894
     7  H    0.175895
     8  H    0.159112
     9  H    0.066161
 Sum of Mulliken charges =   0.00000

 Dipole moment (field-independent basis, Debye):
    X=              2.8817    Y=             -8.6722    Z=             -0.1217  Tot=              9.1393
 N-N= 1.045389765373D+02 E-N=-1.715217924253D+02  KE=-1.595539007806D+01
 Orbital energies and kinetic energies (alpha):
                                 1                 2
   1         O                -1.918629         -1.425577
   2         O                -1.214739         -1.085528
   3         O                -0.970427         -0.878503
   4         O                -0.800620         -0.631873
   5         O                -0.771855         -0.700237
   6         O                -0.673178         -0.620545
   7         O                -0.642157         -0.559483

 Normal termination of Gaussian 09 at Tue Dec 15 17:07:58 2015.
