 Gaussian 09, Revision D.01,
 Gaussian 09:  ES64L-G09RevD.01 24-Apr-2013

 -------------------------------------------------------
 #P B3LYP/3-21G CIS(Singlets,NStates=15) pop(full) force
 -------------------------------------------------------

 --------
 FuranDFT
 --------
 Symbolic Z-matrix:
 Charge =  0 Multiplicity = 1

                         Standard orientation:
 ---------------------------------------------------------------------
 Center     Atomic      Atomic             Coordinates (Angstroms)
 Number     Number       Type             X           Y           Z
 ---------------------------------------------------------------------
      1          6           0        0.070270    1.220215    0.033094
      2          6           0        1.095662    0.248151    0.007007
      3          8           0        0.629743   -0.973439   -0.014514
      4          6           0       -0.702132   -0.852046    0.007143
      5          6           0       -1.140103    0.409482   -0.025611
      6          1           0       -2.147956    0.807186   -0.000010
      7          1           0       -1.313116   -1.781554    0.064889
      8          1           0        2.230622    0.359411   -0.013713
      9          1           0        0.250327    2.247660   -0.064854
 ---------------------------------------------------------------------

 SCF Done:  E(RB3LYP) =  -228.732182329     A.U. after   14 cycles

 Excitation energies and oscillator strengths:

 Excited State   1:      Singlet-A      7.1549 eV  173.29 nm  f=0.0205  <S**2>=0.000
      17 -> 19        -0.44451
      18 -> 19        -0.20427
      18 -> 20         0.50243
 This state for optimization and/or second-order correction.
 Total Energy, E(CIS) =  -228.469245324
 Copying the excited state density for this state as the 1-particle RhoCI density.

 Excited State   2:      Singlet-A      7.2945 eV  169.97 nm  f=0.2043  <S**2>=0.000
      17 -> 19        -0.18904
      18 -> 19         0.65112
      18 -> 20         0.11007

 Excited State   3:      Singlet-A      8.5044 eV  145.79 nm  f=0.0015  <S**2>=0.000
      18 -> 21         0.69327

 Excited State   4:      Singlet-A      8.9451 eV  138.61 nm  f=0.0053  <S**2>=0.000
      16 -> 19         0.66331
      18 -> 22        -0.19841

 Excited State   5:      Singlet-A      9.0967 eV  136.30 nm  f=0.0002  <S**2>=0.000
      16 -> 19         0.20622
      18 -> 22         0.65741

 Excited State   6:      Singlet-A      9.2740 eV  133.69 nm  f=0.2518  <S**2>=0.000
      16 -> 25        -0.10683
      17 -> 19         0.30793
      17 -> 20         0.50734
      18 -> 20         0.29961

 Excited State   7:      Singlet-A      9.5170 eV  130.28 nm  f=0.0042  <S**2>=0.000
      17 -> 21        -0.15078
      18 -> 23         0.65446

 Excited State   8:      Singlet-A      9.8624 eV  125.71 nm  f=0.3880  <S**2>=0.000
      17 -> 19        -0.32018
      17 -> 20         0.42837
      17 -> 21        -0.20475
      18 -> 20        -0.29773

 Excited State   9:      Singlet-A      9.9009 eV  125.23 nm  f=0.0577  <S**2>=0.000
      17 -> 19        -0.12827
      17 -> 20         0.10885
      17 -> 21         0.62522
      17 -> 22         0.10616
      18 -> 20        -0.11786
      18 -> 23         0.16567

 Excited State  10:      Singlet-A     10.1626 eV  122.00 nm  f=0.0133  <S**2>=0.000
      14 -> 19         0.41252
      15 -> 19         0.19670
      16 -> 20         0.50257

 Excited State  11:      Singlet-A     10.2051 eV  121.49 nm  f=0.0304  <S**2>=0.000
      14 -> 19        -0.11368
      15 -> 19         0.62934
      16 -> 20        -0.15739
      18 -> 24        -0.17207

 Excited State  12:      Singlet-A     10.3158 eV  120.19 nm  f=0.0058  <S**2>=0.000
      15 -> 19         0.17623
      17 -> 21        -0.10731
      18 -> 24         0.66287

 Excited State  13:      Singlet-A     10.4624 eV  118.50 nm  f=0.0019  <S**2>=0.000
      14 -> 19         0.17623
      15 -> 19        -0.10033
      16 -> 20        -0.19394
      17 -> 21        -0.12745
      17 -> 22         0.62463

 Excited State  14:      Singlet-A     10.5127 eV  117.94 nm  f=0.0041  <S**2>=0.000
      14 -> 19         0.51978
      16 -> 20        -0.37705
      17 -> 22        -0.26187

 Excited State  15:      Singlet-A     11.0002 eV  112.71 nm  f=0.0013  <S**2>=0.000
      17 -> 23         0.69634

 The electronic state is 1-A.
 Alpha  occ. eigenvalues --  -19.12802 -10.18376 -10.17569 -10.12794 -10.12618
 Alpha  occ. eigenvalues --   -1.16388  -0.80705  -0.75110  -0.61497  -0.55701
 Alpha  occ. eigenvalues --   -0.54647  -0.46819  -0.44709  -0.41258  -0.40475
 Alpha  occ. eigenvalues --   -0.36153  -0.27995  -0.22849
 Alpha virt. eigenvalues --    0.02532   0.07307   0.12687   0.15024   0.16581
 Alpha virt. eigenvalues --    0.19007   0.22611   0.24217   0.34236   0.42143
 Alpha virt. eigenvalues --    0.46199   0.68679   0.69841   0.72029   0.74383

 Mulliken charges:
               1
     1  C   -0.260007
     2  C    0.105013
     3  O   -0.490670
     4  C    0.100601
     5  C   -0.249352
     6  H    0.192331
     7  H    0.209104
     8  H    0.204931
     9  H    0.188048
 Sum of Mulliken charges =   0.00000

 Dipole moment (field-independent basis, Debye):
    X=             -0.3364    Y=              0.5129    Z=             -0.0214  Tot=              0.6137
 Quadrupole moment (field-independent basis, Debye-Ang):
   XX=            -24.9108   YY=            -27.1773   ZZ=            -31.8954
   XY=              1.7331   XZ=             -0.1722   YZ=             -0.3585

 Normal termination of Gaussian 09 at Tue Dec 15 16:28:55 2015.
