 Gaussian 09, Revision D.01,
 Gaussian 09:  ES64L-G09RevD.01 24-Apr-2013

 ------------------------------------------------------------
 #P AM1(Input,print) CIS(Singlets,NStates=15) pop(full) force
 ------------------------------------------------------------

 -----------------
 AM1-Reparam Input
 -----------------
 Symbolic Z-matrix:
 Charge =  0 Multiplicity = 1

                         Standard orientation:
 ---------------------------------------------------------------------
 Center     Atomic      Atomic             Coordinates (Angstroms)
 Number     Number       Type             X           Y           Z
 ---------------------------------------------------------------------
      1          6           0       -1.115220    0.506248    0.010032
      2          6           0       -0.781567   -0.769679   -0.008981
      3          8           0        0.554626   -1.039254   -0.005218
      4          6           0        1.133608    0.197050    0.015542
      5          6           0        0.174769    1.171781   -0.010840
      6          1           0        0.351075    2.265793    0.005408
      7          1           0        2.262143    0.197772   -0.014644
      8          1           0       -1.455427   -1.702582    0.031262
      9          1           0       -2.064344    0.920648   -0.014796
 ---------------------------------------------------------------------

 SCF Done:  E(RAM1) =   1.10602050778     A.U. after   14 cycles

 Excitation energies and oscillator strengths:

 Excited State   1:      Singlet-A      5.4756 eV  226.43 nm  f=0.2090  <S**2>=0.000
      12 -> 16        -0.11451
      13 -> 14         0.68100
 This state for optimization and/or second-order correction.
 Total Energy, E(CIS) =   1.30724359287
 Copying the excited state density for this state as the 1-particle RhoCI density.

 Excited State   2:      Singlet-A      6.4102 eV  193.42 nm  f=0.0021  <S**2>=0.000
      13 -> 15         0.53626
      13 -> 16         0.36732
      13 -> 17         0.18184
      13 -> 18        -0.15076

 Excited State   3:      Singlet-A      6.6693 eV  185.90 nm  f=0.0006  <S**2>=0.000
      13 -> 15        -0.18238
      13 -> 17         0.63779
      13 -> 19        -0.17758
      13 -> 21        -0.11575

 Excited State   4:      Singlet-A      6.8570 eV  180.81 nm  f=0.0187  <S**2>=0.000
      12 -> 14         0.38856
      13 -> 15        -0.30657
      13 -> 16         0.48606

 Excited State   5:      Singlet-A      7.2609 eV  170.76 nm  f=0.0001  <S**2>=0.000
       9 -> 14         0.12020
      11 -> 14         0.69230

 Excited State   6:      Singlet-A      8.0462 eV  154.09 nm  f=0.2807  <S**2>=0.000
      12 -> 14         0.55702
      13 -> 15         0.22955
      13 -> 16        -0.27799
      13 -> 18         0.13714

 Excited State   7:      Singlet-A      8.0771 eV  153.50 nm  f=0.0181  <S**2>=0.000
      10 -> 14        -0.19751
      12 -> 14        -0.13220
      12 -> 15         0.11235
      13 -> 16         0.12761
      13 -> 18         0.49471
      13 -> 19        -0.32553
      13 -> 23         0.10963
      13 -> 24        -0.13411

 Excited State   8:      Singlet-A      8.1301 eV  152.50 nm  f=0.0042  <S**2>=0.000
      10 -> 14         0.64559
      13 -> 18         0.13251
      13 -> 19        -0.10855

 Excited State   9:      Singlet-A      8.5449 eV  145.10 nm  f=0.0018  <S**2>=0.000
      12 -> 15        -0.29341
      12 -> 16        -0.14063
      12 -> 17         0.10300
      13 -> 18        -0.10098
      13 -> 19        -0.33532
      13 -> 20         0.46730
      13 -> 23         0.11111

 Excited State  10:      Singlet-A      8.6288 eV  143.69 nm  f=0.0060  <S**2>=0.000
      12 -> 15         0.39000
      12 -> 16         0.15006
      12 -> 17         0.47422
      13 -> 18        -0.16816
      13 -> 20         0.12085

 Excited State  11:      Singlet-A      8.7017 eV  142.48 nm  f=0.1133  <S**2>=0.000
       9 -> 15         0.10413
      11 -> 15         0.10816
      12 -> 15        -0.33413
      12 -> 16         0.48215
      12 -> 17         0.16746
      13 -> 14         0.12347
      13 -> 20        -0.13174

 Excited State  12:      Singlet-A      8.7708 eV  141.36 nm  f=0.0107  <S**2>=0.000
      12 -> 15         0.18142
      12 -> 16         0.32127
      12 -> 17        -0.31271
      13 -> 18         0.13689
      13 -> 19         0.17828
      13 -> 20         0.41132

 Excited State  13:      Singlet-A      8.8557 eV  140.01 nm  f=0.0165  <S**2>=0.000
       9 -> 15         0.17617
       9 -> 16        -0.23533
      10 -> 14         0.16786
      10 -> 16        -0.10039
      11 -> 15        -0.36301
      11 -> 16         0.44816

 Excited State  14:      Singlet-A      9.2785 eV  133.63 nm  f=0.0015  <S**2>=0.000
      12 -> 15        -0.19420
      12 -> 16        -0.14336
      12 -> 17         0.27581
      13 -> 18         0.30299
      13 -> 19         0.36748
      13 -> 20         0.11151
      13 -> 21        -0.28664

 Excited State  15:      Singlet-A      9.3085 eV  133.19 nm  f=0.0000  <S**2>=0.000
       9 -> 14         0.13996
      12 -> 17         0.14289
      13 -> 17         0.13662
      13 -> 18         0.14994
      13 -> 19         0.15161
      13 -> 20         0.14769
      13 -> 21         0.58249
      13 -> 22        -0.11046

 The electronic state is 1-A.
 Alpha  occ. eigenvalues --   -1.81629  -1.19353  -0.97020  -0.87286  -0.79437
 Alpha  occ. eigenvalues --   -0.73033  -0.71200  -0.58840  -0.55076  -0.52295
 Alpha  occ. eigenvalues --   -0.49129  -0.46748  -0.37248
 Alpha virt. eigenvalues --    0.04128   0.09774   0.10075   0.10898   0.18565
 Alpha virt. eigenvalues --    0.19200   0.21175   0.22032   0.27255   0.27345
 Alpha virt. eigenvalues --    0.28436

 Mulliken charges:
               1
     1  C   -0.109126
     2  C   -1.241480
     3  O    2.107220
     4  C   -1.232409
     5  C   -0.146276
     6  H    0.110259
     7  H    0.201221
     8  H    0.212659
     9  H    0.097932
 Sum of Mulliken charges =   0.00000

 Dipole moment (field-independent basis, Debye):
    X=              3.3129    Y=             -6.8700    Z=             -0.0614  Tot=              7.6273
 N-N= 1.041102665342D+02 E-N=-1.709086903803D+02  KE=-1.493391921908D+01
 Orbital energies and kinetic energies (alpha):
                                 1                 2
   1         O                -1.816285         -1.236438
   2         O                -1.193528         -0.979643
   3         O                -0.970196         -0.812615
   4         O                -0.872860         -0.619334
   5         O                -0.794371         -0.658702
   6         O                -0.730334         -0.592950
   7         O                -0.711999         -0.513978

 Normal termination of Gaussian 09 at Tue Dec 15 17:05:30 2015.
