 Gaussian 09, Revision D.01,
 Gaussian 09:  ES64L-G09RevD.01 24-Apr-2013

 ------------------------------------------------------------
 #P AM1(Input,print) CIS(Singlets,NStates=15) pop(full) force
 ------------------------------------------------------------

 -----------------
 AM1-Reparam Input
 -----------------
 Symbolic Z-matrix:
 Charge =  0 Multiplicity = 1

                         Standard orientation:
 ---------------------------------------------------------------------
 Center     Atomic      Atomic             Coordinates (Angstroms)
 Number     Number       Type             X           Y           Z
 ---------------------------------------------------------------------
      1          6           0       -0.684561    0.942479   -0.004022
      2          6           0       -1.128426   -0.256752    0.028697
      3          8           0       -0.062078   -1.183638   -0.026626
      4          6           0        1.134487   -0.371953    0.024121
      5          6           0        0.738963    0.954621   -0.025195
      6          1           0        1.430802    1.758637    0.020651
      7          1           0        2.086086   -0.898317    0.043721
      8          1           0       -2.030648   -0.814098   -0.001215
      9          1           0       -1.352394    1.812515    0.008243
 ---------------------------------------------------------------------

 SCF Done:  E(RAM1) =   1.15813845287     A.U. after   14 cycles

 Excitation energies and oscillator strengths:

 Excited State   1:      Singlet-A      5.3990 eV  229.64 nm  f=0.1685  <S**2>=0.000
      12 -> 15         0.16639
      13 -> 14         0.67094
 This state for optimization and/or second-order correction.
 Total Energy, E(CIS) =   1.35654655469
 Copying the excited state density for this state as the 1-particle RhoCI density.

 Excited State   2:      Singlet-A      6.1481 eV  201.66 nm  f=0.0421  <S**2>=0.000
      12 -> 14        -0.18887
      13 -> 15         0.53484
      13 -> 16        -0.33847
      13 -> 17        -0.16812
      13 -> 18        -0.11314

 Excited State   3:      Singlet-A      6.3041 eV  196.67 nm  f=0.0223  <S**2>=0.000
      12 -> 14        -0.16128
      13 -> 15         0.35466
      13 -> 16         0.50999
      13 -> 17         0.20318
      13 -> 18         0.15207

 Excited State   4:      Singlet-A      6.7312 eV  184.19 nm  f=0.0003  <S**2>=0.000
      13 -> 16        -0.26884
      13 -> 17         0.61400
      13 -> 21         0.12404

 Excited State   5:      Singlet-A      7.3573 eV  168.52 nm  f=0.0007  <S**2>=0.000
       9 -> 14         0.11501
      11 -> 14         0.67787
      11 -> 15        -0.13346

 Excited State   6:      Singlet-A      7.6777 eV  161.49 nm  f=0.0007  <S**2>=0.000
       9 -> 15        -0.14737
      10 -> 14         0.47247
      10 -> 15         0.11006
      11 -> 14         0.11091
      11 -> 15         0.41495
      13 -> 18         0.18585

 Excited State   7:      Singlet-A      7.8595 eV  157.75 nm  f=0.0118  <S**2>=0.000
      10 -> 14        -0.11326
      11 -> 15        -0.16177
      12 -> 14        -0.13436
      13 -> 16        -0.15744
      13 -> 18         0.58920
      13 -> 20         0.15937

 Excited State   8:      Singlet-A      7.8839 eV  157.26 nm  f=0.2108  <S**2>=0.000
      12 -> 14         0.62356
      13 -> 15         0.21694
      13 -> 18         0.11708

 Excited State   9:      Singlet-A      8.1061 eV  152.95 nm  f=0.0133  <S**2>=0.000
       9 -> 15         0.10547
      10 -> 14         0.49523
      10 -> 15        -0.13902
      11 -> 15        -0.44449

 Excited State  10:      Singlet-A      8.1602 eV  151.94 nm  f=0.0682  <S**2>=0.000
      12 -> 15         0.36734
      12 -> 16        -0.11937
      12 -> 17        -0.11925
      13 -> 19         0.41337
      13 -> 20        -0.32719
      13 -> 24         0.11184

 Excited State  11:      Singlet-A      8.2279 eV  150.69 nm  f=0.1714  <S**2>=0.000
      12 -> 15         0.53687
      13 -> 14        -0.12806
      13 -> 19        -0.28710
      13 -> 20         0.23965

 Excited State  12:      Singlet-A      8.6498 eV  143.34 nm  f=0.0093  <S**2>=0.000
      12 -> 16         0.51647
      12 -> 17         0.35282
      12 -> 18         0.13188
      13 -> 20        -0.11627
      13 -> 22        -0.20521

 Excited State  13:      Singlet-A      8.8565 eV  139.99 nm  f=0.0039  <S**2>=0.000
       7 -> 16        -0.10576
      12 -> 16         0.29296
      12 -> 17        -0.35542
      13 -> 19         0.30721
      13 -> 20         0.39098

 Excited State  14:      Singlet-A      9.0859 eV  136.46 nm  f=0.0015  <S**2>=0.000
      12 -> 17         0.17773
      13 -> 19         0.11843
      13 -> 21         0.56257
      13 -> 22         0.33067

 Excited State  15:      Singlet-A      9.4373 eV  131.38 nm  f=0.0976  <S**2>=0.000
       9 -> 16        -0.18609
      10 -> 16        -0.13191
      10 -> 17         0.12646
      10 -> 20         0.12136
      11 -> 16         0.56520
      11 -> 19        -0.17107
      12 -> 17         0.10081

 The electronic state is 1-A.
 Alpha  occ. eigenvalues --   -1.77715  -1.19298  -0.98308  -0.86226  -0.80558
 Alpha  occ. eigenvalues --   -0.73410  -0.69831  -0.59892  -0.56710  -0.50900
 Alpha  occ. eigenvalues --   -0.48789  -0.46590  -0.36977
 Alpha virt. eigenvalues --    0.04350   0.07128   0.10920   0.11898   0.18351
 Alpha virt. eigenvalues --    0.18758   0.19793   0.22284   0.24522   0.27570
 Alpha virt. eigenvalues --    0.28334

 Mulliken charges:
               1
     1  C   -0.163059
     2  C   -1.154804
     3  O    2.075044
     4  C   -1.205025
     5  C   -0.129416
     6  H    0.105592
     7  H    0.184732
     8  H    0.168017
     9  H    0.118919
 Sum of Mulliken charges =   0.00000

 Dipole moment (field-independent basis, Debye):
    X=             -0.6613    Y=             -7.7672    Z=             -0.4214  Tot=              7.8066
 N-N= 1.037235014145D+02 E-N=-1.701519741218D+02  KE=-1.487469263216D+01
 Orbital energies and kinetic energies (alpha):
                                 1                 2
   1         O                -1.777148         -1.189884
   2         O                -1.192975         -0.973442
   3         O                -0.983078         -0.842850
   4         O                -0.862256         -0.612374
   5         O                -0.805582         -0.668788
   6         O                -0.734103         -0.594954
   7         O                -0.698311         -0.510192

 Normal termination of Gaussian 09 at Tue Dec 15 17:05:33 2015.
