 Gaussian 09, Revision D.01,
 Gaussian 09:  ES64L-G09RevD.01 24-Apr-2013

 ------------------------------------------------------------
 #P AM1(Input,print) CIS(Singlets,NStates=15) pop(full) force
 ------------------------------------------------------------

 -----------------
 AM1-Reparam Input
 -----------------
 Symbolic Z-matrix:
 Charge =  0 Multiplicity = 1

                         Standard orientation:
 ---------------------------------------------------------------------
 Center     Atomic      Atomic             Coordinates (Angstroms)
 Number     Number       Type             X           Y           Z
 ---------------------------------------------------------------------
      1          6           0       -1.032729    0.572104    0.000414
      2          6           0       -0.867807   -0.779098    0.021517
      3          8           0        0.523989   -1.052383   -0.018254
      4          6           0        1.173568    0.160036    0.029286
      5          6           0        0.178627    1.165936   -0.031989
      6          1           0        0.403013    2.173500    0.036660
      7          1           0        2.222840    0.172623    0.001934
      8          1           0       -1.443409   -1.672987   -0.025621
      9          1           0       -2.084308    1.032058    0.017688
 ---------------------------------------------------------------------

 SCF Done:  E(RAM1) =   1.78897350668     A.U. after   14 cycles

 Excitation energies and oscillator strengths:

 Excited State   1:      Singlet-A      5.8184 eV  213.09 nm  f=0.2944  <S**2>=0.000
      13 -> 14         0.68220
 This state for optimization and/or second-order correction.
 Total Energy, E(CIS) =   2.00279605404
 Copying the excited state density for this state as the 1-particle RhoCI density.

 Excited State   2:      Singlet-A      7.0472 eV  175.93 nm  f=0.0091  <S**2>=0.000
      13 -> 15         0.67913
      13 -> 17        -0.12601

 Excited State   3:      Singlet-A      7.4213 eV  167.06 nm  f=0.0001  <S**2>=0.000
      10 -> 15         0.13044
      13 -> 16         0.66269
      13 -> 19         0.16103

 Excited State   4:      Singlet-A      7.8919 eV  157.10 nm  f=0.0024  <S**2>=0.000
      11 -> 14        -0.11801
      12 -> 14         0.68876

 Excited State   5:      Singlet-A      8.1078 eV  152.92 nm  f=0.0032  <S**2>=0.000
      10 -> 14         0.11166
      11 -> 14         0.68023
      12 -> 14         0.11565

 Excited State   6:      Singlet-A      8.7063 eV  142.41 nm  f=0.0005  <S**2>=0.000
      10 -> 15         0.10101
      13 -> 17        -0.22185
      13 -> 18         0.59860
      13 -> 22         0.23311

 Excited State   7:      Singlet-A      9.1398 eV  135.65 nm  f=0.0803  <S**2>=0.000
      10 -> 14         0.66563
      11 -> 14        -0.10193
      12 -> 17        -0.10397

 Excited State   8:      Singlet-A      9.2842 eV  133.54 nm  f=0.0115  <S**2>=0.000
      10 -> 16         0.21378
      13 -> 17         0.61304
      13 -> 18         0.20294

 Excited State   9:      Singlet-A      9.7466 eV  127.21 nm  f=0.2616  <S**2>=0.000
       9 -> 16        -0.12017
      10 -> 14        -0.12488
      11 -> 15         0.28628
      11 -> 18        -0.24797
      12 -> 15         0.38929
      12 -> 17        -0.25773
      12 -> 18         0.11645
      13 -> 14         0.15853

 Excited State  10:      Singlet-A      9.9189 eV  125.00 nm  f=0.0049  <S**2>=0.000
      10 -> 15        -0.30275
      13 -> 18         0.12879
      13 -> 19         0.58915

 Excited State  11:      Singlet-A     10.3512 eV  119.78 nm  f=0.0129  <S**2>=0.000
      11 -> 15        -0.38758
      11 -> 16         0.13103
      11 -> 19         0.10708
      12 -> 15         0.27611
      12 -> 16         0.42545
      12 -> 19         0.13683

 Excited State  12:      Singlet-A     10.4578 eV  118.56 nm  f=0.0232  <S**2>=0.000
      10 -> 15         0.46603
      11 -> 15        -0.15276
      11 -> 16         0.20219
      12 -> 15        -0.12200
      12 -> 16        -0.16443
      13 -> 16        -0.16514
      13 -> 17         0.10691
      13 -> 19         0.25933
      13 -> 20        -0.10264

 Excited State  13:      Singlet-A     10.5210 eV  117.84 nm  f=0.1139  <S**2>=0.000
      10 -> 15        -0.30517
      11 -> 15        -0.23834
      11 -> 16         0.36615
      11 -> 19         0.12559
      12 -> 16        -0.31705
      12 -> 17        -0.11679

 Excited State  14:      Singlet-A     10.7183 eV  115.67 nm  f=0.0338  <S**2>=0.000
      10 -> 15        -0.16840
      10 -> 16        -0.13252
      13 -> 18        -0.20753
      13 -> 20        -0.40898
      13 -> 21         0.12983
      13 -> 22         0.45475

 Excited State  15:      Singlet-A     10.8668 eV  114.09 nm  f=0.0503  <S**2>=0.000
      10 -> 16         0.34887
      11 -> 15        -0.11877
      11 -> 18        -0.10039
      12 -> 15         0.11354
      12 -> 17         0.13868
      12 -> 18        -0.13989
      13 -> 18        -0.11264
      13 -> 20         0.31748
      13 -> 22         0.32258

 The electronic state is 1-A.
 Alpha  occ. eigenvalues --   -1.97832  -1.27876  -0.99342  -0.88774  -0.86159
 Alpha  occ. eigenvalues --   -0.76071  -0.73457  -0.63821  -0.62507  -0.51312
 Alpha  occ. eigenvalues --   -0.51125  -0.49922  -0.38209
 Alpha virt. eigenvalues --    0.05328   0.11818   0.12827   0.19073   0.20694
 Alpha virt. eigenvalues --    0.22789   0.25528   0.27255   0.27565   0.35463
 Alpha virt. eigenvalues --    0.40448

 Mulliken charges:
               1
     1  C   -0.093531
     2  C   -1.877035
     3  O    3.183014
     4  C   -1.915259
     5  C   -0.144344
     6  H    0.151133
     7  H    0.274742
     8  H    0.256116
     9  H    0.165163
 Sum of Mulliken charges =   0.00000

 Dipole moment (field-independent basis, Debye):
    X=              4.5833    Y=             -9.7296    Z=             -0.6600  Tot=             10.7753
 N-N= 1.051861284556D+02 E-N=-1.698288750713D+02  KE=-1.563729407214D+01
 Orbital energies and kinetic energies (alpha):
                                 1                 2
   1         O                -1.978323         -1.345168
   2         O                -1.278764         -1.059615
   3         O                -0.993418         -0.878954
   4         O                -0.887738         -0.593460
   5         O                -0.861590         -0.693724
   6         O                -0.760712         -0.624832
   7         O                -0.734567         -0.546675

 Normal termination of Gaussian 09 at Tue Dec 15 17:09:06 2015.
