 Gaussian 09, Revision D.01,
 Gaussian 09:  ES64L-G09RevD.01 24-Apr-2013

 ------------------------------------------------------------
 #P AM1(Input,print) CIS(Singlets,NStates=15) pop(full) force
 ------------------------------------------------------------

 -----------------
 AM1-Reparam Input
 -----------------
 Symbolic Z-matrix:
 Charge =  0 Multiplicity = 1

                         Standard orientation:
 ---------------------------------------------------------------------
 Center     Atomic      Atomic             Coordinates (Angstroms)
 Number     Number       Type             X           Y           Z
 ---------------------------------------------------------------------
      1          6           0        1.167013   -0.258812   -0.004737
      2          6           0        0.108758   -1.117973   -0.004070
      3          8           0       -1.113809   -0.441459    0.003735
      4          6           0       -0.706110    0.856629    0.002176
      5          6           0        0.623408    0.998950   -0.000937
      6          1           0        1.147896    1.909734    0.006692
      7          1           0       -1.591595    1.537298   -0.015170
      8          1           0       -0.026602   -2.201753    0.001494
      9          1           0        2.222362   -0.586368    0.022516
 ---------------------------------------------------------------------

 SCF Done:  E(RAM1) =   2.86164066523     A.U. after   14 cycles

 Excitation energies and oscillator strengths:

 Excited State   1:      Singlet-A      5.5706 eV  222.57 nm  f=0.3146  <S**2>=0.000
      13 -> 14         0.69235
 This state for optimization and/or second-order correction.
 Total Energy, E(CIS) =   3.06635593420
 Copying the excited state density for this state as the 1-particle RhoCI density.

 Excited State   2:      Singlet-A      6.2743 eV  197.61 nm  f=0.0003  <S**2>=0.000
      11 -> 15         0.13140
      13 -> 15         0.66768
      13 -> 17        -0.11617

 Excited State   3:      Singlet-A      6.6490 eV  186.47 nm  f=0.0008  <S**2>=0.000
      11 -> 16        -0.13586
      13 -> 16         0.65072
      13 -> 17        -0.15885
      13 -> 18         0.13459

 Excited State   4:      Singlet-A      7.1144 eV  174.27 nm  f=0.0001  <S**2>=0.000
      12 -> 14         0.69363

 Excited State   5:      Singlet-A      7.7399 eV  160.19 nm  f=0.0182  <S**2>=0.000
      10 -> 14         0.52756
      11 -> 14        -0.29101
      13 -> 17         0.33767

 Excited State   6:      Singlet-A      7.9233 eV  156.48 nm  f=0.0108  <S**2>=0.000
      10 -> 14        -0.31163
      11 -> 14         0.17486
      13 -> 17         0.57719

 Excited State   7:      Singlet-A      8.1228 eV  152.64 nm  f=0.0001  <S**2>=0.000
      11 -> 16         0.10032
      13 -> 16        -0.11281
      13 -> 18         0.54599
      13 -> 21        -0.38392

 Excited State   8:      Singlet-A      8.7038 eV  142.45 nm  f=0.0610  <S**2>=0.000
      10 -> 14         0.32485
      11 -> 14         0.58535
      12 -> 15        -0.13364

 Excited State   9:      Singlet-A      8.7219 eV  142.15 nm  f=0.0000  <S**2>=0.000
      13 -> 18        -0.13745
      13 -> 19         0.61423
      13 -> 20        -0.15127
      13 -> 21        -0.25074

 Excited State  10:      Singlet-A      9.2096 eV  134.62 nm  f=0.0597  <S**2>=0.000
       8 -> 15        -0.17709
       8 -> 16        -0.13137
      10 -> 17        -0.17636
      12 -> 15         0.47418
      12 -> 16        -0.26723
      12 -> 18        -0.20102
      12 -> 21         0.10002

 Excited State  11:      Singlet-A      9.2489 eV  134.05 nm  f=0.0089  <S**2>=0.000
      11 -> 15        -0.12773
      13 -> 18         0.37303
      13 -> 19         0.30343
      13 -> 20         0.13864
      13 -> 21         0.44662

 Excited State  12:      Singlet-A      9.5282 eV  130.12 nm  f=0.0443  <S**2>=0.000
      10 -> 17         0.13867
      11 -> 15         0.52009
      11 -> 17        -0.14654
      12 -> 15         0.23496
      12 -> 16         0.12799
      13 -> 15        -0.12361
      13 -> 21         0.14207

 Excited State  13:      Singlet-A      9.5551 eV  129.76 nm  f=0.0584  <S**2>=0.000
       9 -> 15         0.11367
      10 -> 15         0.41481
      10 -> 17        -0.20525
      11 -> 15         0.24292
      12 -> 15        -0.29946
      12 -> 16        -0.13898
      13 -> 15        -0.10550
      13 -> 21         0.13157

 Excited State  14:      Singlet-A      9.6055 eV  129.08 nm  f=0.0781  <S**2>=0.000
      11 -> 16         0.12416
      13 -> 20         0.64526
      13 -> 21        -0.16412

 Excited State  15:      Singlet-A      9.8736 eV  125.57 nm  f=0.1538  <S**2>=0.000
       8 -> 16         0.11362
      10 -> 15         0.11899
      10 -> 16         0.13348
      10 -> 17        -0.13089
      11 -> 16        -0.32766
      11 -> 17         0.10326
      12 -> 16         0.47739

 The electronic state is 1-A.
 Alpha  occ. eigenvalues --   -1.70803  -1.13463  -0.90554  -0.78567  -0.74769
 Alpha  occ. eigenvalues --   -0.65937  -0.63098  -0.50967  -0.49803  -0.41569
 Alpha  occ. eigenvalues --   -0.41356  -0.39489  -0.27942
 Alpha virt. eigenvalues --    0.13864   0.17328   0.19373   0.25776   0.28501
 Alpha virt. eigenvalues --    0.29638   0.31284   0.33181   0.36112   0.46040
 Alpha virt. eigenvalues --    0.48417

 Mulliken charges:
               1
     1  C   -0.103322
     2  C   -1.926562
     3  O    3.188834
     4  C   -1.914582
     5  C   -0.137147
     6  H    0.170200
     7  H    0.278371
     8  H    0.276177
     9  H    0.168031
 Sum of Mulliken charges =   0.00000

 Dipole moment (field-independent basis, Debye):
    X=            -10.6664    Y=             -4.0511    Z=              0.0671  Tot=             11.4100
 N-N= 1.040311328606D+02 E-N=-1.693865241986D+02  KE=-1.478611673354D+01
 Orbital energies and kinetic energies (alpha):
                                 1                 2
   1         O                -1.708034         -1.198105
   2         O                -1.134635         -1.015297
   3         O                -0.905539         -0.842079
   4         O                -0.785667         -0.600848
   5         O                -0.747692         -0.655741
   6         O                -0.659375         -0.584541
   7         O                -0.630977         -0.529287

 Normal termination of Gaussian 09 at Tue Dec 15 17:05:51 2015.
