 Gaussian 09, Revision D.01,
 Gaussian 09:  ES64L-G09RevD.01 24-Apr-2013

 -------------------------------------------------------
 #P B3LYP/3-21G CIS(Singlets,NStates=15) pop(full) force
 -------------------------------------------------------

 --------
 FuranDFT
 --------
 Symbolic Z-matrix:
 Charge =  0 Multiplicity = 1

                         Standard orientation:
 ---------------------------------------------------------------------
 Center     Atomic      Atomic             Coordinates (Angstroms)
 Number     Number       Type             X           Y           Z
 ---------------------------------------------------------------------
      1          6           0       -0.520978    1.102256   -0.031309
      2          6           0       -1.158001   -0.172240   -0.009191
      3          8           0       -0.207656   -1.147392    0.007263
      4          6           0        1.042012   -0.528583   -0.022241
      5          6           0        0.868888    0.809823    0.035096
      6          1           0        1.608042    1.564539    0.007360
      7          1           0        1.895582   -1.141840   -0.003126
      8          1           0       -2.203763   -0.517997    0.079096
      9          1           0       -1.030141    2.006900    0.024441
 ---------------------------------------------------------------------

 SCF Done:  E(RB3LYP) =  -228.744834940     A.U. after   14 cycles

 Excitation energies and oscillator strengths:

 Excited State   1:      Singlet-A      6.9622 eV  178.08 nm  f=0.1411  <S**2>=0.000
      17 -> 19        -0.29353
      18 -> 19         0.54071
      18 -> 20        -0.30812
 This state for optimization and/or second-order correction.
 Total Energy, E(CIS) =  -228.488979643
 Copying the excited state density for this state as the 1-particle RhoCI density.

 Excited State   2:      Singlet-A      7.0393 eV  176.13 nm  f=0.0882  <S**2>=0.000
      17 -> 19         0.42188
      18 -> 19         0.41287
      18 -> 20         0.36402

 Excited State   3:      Singlet-A      8.4602 eV  146.55 nm  f=0.0064  <S**2>=0.000
      16 -> 19         0.70061

 Excited State   4:      Singlet-A      8.6528 eV  143.29 nm  f=0.0006  <S**2>=0.000
      18 -> 21         0.39838
      18 -> 22         0.57682

 Excited State   5:      Singlet-A      8.8680 eV  139.81 nm  f=0.0003  <S**2>=0.000
      18 -> 21         0.57321
      18 -> 22        -0.39541

 Excited State   6:      Singlet-A      9.2669 eV  133.79 nm  f=0.3941  <S**2>=0.000
      17 -> 19        -0.37038
      17 -> 20        -0.34282
      18 -> 20         0.41823
      18 -> 23        -0.10130

 Excited State   7:      Singlet-A      9.6146 eV  128.95 nm  f=0.0717  <S**2>=0.000
      15 -> 19         0.14926
      17 -> 20        -0.38195
      17 -> 21         0.10288
      18 -> 23         0.52524

 Excited State   8:      Singlet-A      9.6857 eV  128.01 nm  f=0.1786  <S**2>=0.000
      15 -> 19         0.38472
      17 -> 19        -0.19457
      17 -> 20         0.39835
      18 -> 20         0.20226
      18 -> 23         0.26284

 Excited State   9:      Singlet-A      9.8071 eV  126.42 nm  f=0.0533  <S**2>=0.000
      15 -> 19         0.53786
      16 -> 20        -0.15019
      17 -> 20        -0.18893
      18 -> 23        -0.30907

 Excited State  10:      Singlet-A     10.0570 eV  123.28 nm  f=0.0020  <S**2>=0.000
      17 -> 21         0.38872
      17 -> 22         0.56081
      18 -> 23        -0.13290

 Excited State  11:      Singlet-A     10.2114 eV  121.42 nm  f=0.0044  <S**2>=0.000
      14 -> 19         0.49818
      15 -> 19         0.15796
      16 -> 20         0.41170
      17 -> 21         0.18313

 Excited State  12:      Singlet-A     10.2444 eV  121.03 nm  f=0.0130  <S**2>=0.000
      14 -> 19        -0.16549
      16 -> 20        -0.10210
      17 -> 21         0.52963
      17 -> 22        -0.39769

 Excited State  13:      Singlet-A     10.5136 eV  117.93 nm  f=0.0040  <S**2>=0.000
      14 -> 19        -0.11260
      16 -> 20         0.10643
      17 -> 21         0.10896
      18 -> 24         0.66699

 Excited State  14:      Singlet-A     10.5361 eV  117.68 nm  f=0.0027  <S**2>=0.000
      12 -> 19         0.12253
      14 -> 19        -0.42842
      16 -> 20         0.51221
      18 -> 24        -0.14886

 Excited State  15:      Singlet-A     10.7284 eV  115.57 nm  f=0.0098  <S**2>=0.000
      18 -> 25         0.68523

 The electronic state is 1-A.
 Alpha  occ. eigenvalues --  -19.11349 -10.18407 -10.17319 -10.12610 -10.12382
 Alpha  occ. eigenvalues --   -1.11605  -0.80179  -0.74268  -0.59925  -0.57359
 Alpha  occ. eigenvalues --   -0.54346  -0.45079  -0.44136  -0.42178  -0.40175
 Alpha  occ. eigenvalues --   -0.35773  -0.27831  -0.22689
 Alpha virt. eigenvalues --    0.01254   0.07597   0.13799   0.14226   0.17369
 Alpha virt. eigenvalues --    0.19890   0.21396   0.22440   0.33811   0.41137
 Alpha virt. eigenvalues --    0.46316   0.67988   0.70079   0.70724   0.74441

 Mulliken charges:
               1
     1  C   -0.253070
     2  C    0.087907
     3  O   -0.479952
     4  C    0.078362
     5  C   -0.251578
     6  H    0.191819
     7  H    0.221232
     8  H    0.216537
     9  H    0.188744
 Sum of Mulliken charges =   0.00000

 Dipole moment (field-independent basis, Debye):
    X=              0.1229    Y=              0.6984    Z=              0.1106  Tot=              0.7177
 Quadrupole moment (field-independent basis, Debye-Ang):
   XX=            -23.5029   YY=            -27.9899   ZZ=            -31.8871
   XY=             -0.6909   XZ=             -0.2593   YZ=              0.0455

 Normal termination of Gaussian 09 at Tue Dec 15 16:12:06 2015.
