 Gaussian 09, Revision D.01,
 Gaussian 09:  ES64L-G09RevD.01 24-Apr-2013

 ------------------------------------------------------------
 #P AM1(Input,print) CIS(Singlets,NStates=15) pop(full) force
 ------------------------------------------------------------

 -----------------
 AM1-Reparam Input
 -----------------
 Symbolic Z-matrix:
 Charge =  0 Multiplicity = 1

                         Standard orientation:
 ---------------------------------------------------------------------
 Center     Atomic      Atomic             Coordinates (Angstroms)
 Number     Number       Type             X           Y           Z
 ---------------------------------------------------------------------
      1          6           0       -0.680242    0.948863   -0.013063
      2          6           0       -1.083726   -0.310280    0.007307
      3          8           0       -0.016349   -1.107750    0.006145
      4          6           0        1.040856   -0.382702    0.006055
      5          6           0        0.727086    0.908568   -0.010395
      6          1           0        1.462002    1.801478    0.044368
      7          1           0        2.026513   -0.922641   -0.039495
      8          1           0       -2.094448   -0.811625   -0.032368
      9          1           0       -1.287123    1.808097    0.038915
 ---------------------------------------------------------------------

 SCF Done:  E(RAM1) =   1.08143982900     A.U. after   13 cycles

 Excitation energies and oscillator strengths:

 Excited State   1:      Singlet-A      5.6438 eV  219.68 nm  f=0.2120  <S**2>=0.000
      12 -> 17         0.12530
      13 -> 14         0.68117
 This state for optimization and/or second-order correction.
 Total Energy, E(CIS) =   1.28884409464
 Copying the excited state density for this state as the 1-particle RhoCI density.

 Excited State   2:      Singlet-A      6.4991 eV  190.77 nm  f=0.0034  <S**2>=0.000
      13 -> 15         0.66131
      13 -> 16         0.14729
      13 -> 19        -0.15929

 Excited State   3:      Singlet-A      6.9083 eV  179.47 nm  f=0.0007  <S**2>=0.000
      13 -> 15        -0.13491
      13 -> 16         0.64919
      13 -> 18        -0.12757
      13 -> 21         0.15432

 Excited State   4:      Singlet-A      7.3377 eV  168.97 nm  f=0.0006  <S**2>=0.000
       9 -> 14         0.19999
      11 -> 14         0.66365

 Excited State   5:      Singlet-A      7.3799 eV  168.00 nm  f=0.0010  <S**2>=0.000
      11 -> 14         0.11382
      12 -> 14         0.50798
      13 -> 17        -0.46281

 Excited State   6:      Singlet-A      7.8552 eV  157.84 nm  f=0.0036  <S**2>=0.000
      10 -> 14         0.68173

 Excited State   7:      Singlet-A      8.1426 eV  152.27 nm  f=0.0001  <S**2>=0.000
      12 -> 15        -0.13486
      12 -> 16        -0.10013
      13 -> 16         0.10657
      13 -> 18         0.58589
      13 -> 19        -0.26176
      13 -> 22         0.15156
      13 -> 23        -0.11047

 Excited State   8:      Singlet-A      8.3784 eV  147.98 nm  f=0.2398  <S**2>=0.000
      10 -> 14         0.10254
      11 -> 15         0.10013
      12 -> 14         0.45442
      13 -> 17         0.48414

 Excited State   9:      Singlet-A      8.6209 eV  143.82 nm  f=0.0010  <S**2>=0.000
      12 -> 15         0.63538
      12 -> 16         0.13027
      12 -> 20         0.10822
      13 -> 18         0.16681

 Excited State  10:      Singlet-A      8.8466 eV  140.15 nm  f=0.0010  <S**2>=0.000
      11 -> 17         0.12059
      12 -> 16        -0.20051
      13 -> 18         0.18048
      13 -> 19         0.36083
      13 -> 20         0.47973
      13 -> 23         0.11116

 Excited State  11:      Singlet-A      8.8650 eV  139.86 nm  f=0.0094  <S**2>=0.000
       9 -> 17        -0.19869
      11 -> 15         0.17041
      11 -> 17         0.49423
      12 -> 16        -0.19920
      13 -> 20        -0.31424

 Excited State  12:      Singlet-A      8.9201 eV  138.99 nm  f=0.0375  <S**2>=0.000
       9 -> 15        -0.19534
       9 -> 17         0.12757
      10 -> 15        -0.11221
      11 -> 15         0.38928
      11 -> 16         0.12649
      11 -> 17        -0.34355
      11 -> 20         0.10984
      12 -> 16        -0.23250
      13 -> 20        -0.13050

 Excited State  13:      Singlet-A      8.9548 eV  138.46 nm  f=0.0236  <S**2>=0.000
       9 -> 15        -0.15495
      10 -> 15        -0.10073
      11 -> 15         0.30185
      11 -> 17         0.15245
      12 -> 16         0.42149
      13 -> 19        -0.22611
      13 -> 20         0.21996

 Excited State  14:      Singlet-A      9.2171 eV  134.52 nm  f=0.0560  <S**2>=0.000
       8 -> 15         0.11345
       9 -> 14         0.34610
       9 -> 15        -0.11714
       9 -> 16         0.19891
      10 -> 15        -0.18976
      10 -> 16        -0.16736
      10 -> 19         0.11466
      11 -> 14        -0.10348
      11 -> 15        -0.14269
      11 -> 18        -0.20945
      11 -> 19         0.10236
      12 -> 17        -0.27789
      13 -> 14         0.10846

 Excited State  15:      Singlet-A      9.2440 eV  134.12 nm  f=0.0269  <S**2>=0.000
       9 -> 14         0.54666
       9 -> 16        -0.12610
      10 -> 15         0.10988
      11 -> 14        -0.16324
      11 -> 18         0.13698
      12 -> 17         0.19076
      13 -> 21         0.10900

 The electronic state is 1-A.
 Alpha  occ. eigenvalues --   -1.88040  -1.21403  -1.00550  -0.88732  -0.80158
 Alpha  occ. eigenvalues --   -0.74501  -0.73382  -0.60946  -0.55018  -0.51690
 Alpha  occ. eigenvalues --   -0.49377  -0.48064  -0.38809
 Alpha virt. eigenvalues --    0.03716   0.08996   0.10391   0.12073   0.17487
 Alpha virt. eigenvalues --    0.18346   0.20487   0.21302   0.27093   0.27993
 Alpha virt. eigenvalues --    0.29913

 Mulliken charges:
               1
     1  C   -0.109531
     2  C   -1.284604
     3  O    2.164021
     4  C   -1.278228
     5  C   -0.179626
     6  H    0.129673
     7  H    0.228724
     8  H    0.219587
     9  H    0.109984
 Sum of Mulliken charges =   0.00000

 Dipole moment (field-independent basis, Debye):
    X=              0.1631    Y=             -6.8375    Z=             -0.0530  Tot=              6.8397
 N-N= 1.054829846925D+02 E-N=-1.731000525932D+02  KE=-1.508966427804D+01
 Orbital energies and kinetic energies (alpha):
                                 1                 2
   1         O                -1.880400         -1.307272
   2         O                -1.214025         -0.976269
   3         O                -1.005499         -0.803538
   4         O                -0.887317         -0.642425
   5         O                -0.801576         -0.664951
   6         O                -0.745015         -0.532227
   7         O                -0.733815         -0.589338

 Normal termination of Gaussian 09 at Tue Dec 15 17:05:31 2015.
