 Gaussian 09, Revision D.01,
 Gaussian 09:  ES64L-G09RevD.01 24-Apr-2013

 ------------------------------------------------------------
 #P AM1(Input,print) CIS(Singlets,NStates=15) pop(full) force
 ------------------------------------------------------------

 -----------------
 AM1-Reparam Input
 -----------------
 Symbolic Z-matrix:
 Charge =  0 Multiplicity = 1

                         Standard orientation:
 ---------------------------------------------------------------------
 Center     Atomic      Atomic             Coordinates (Angstroms)
 Number     Number       Type             X           Y           Z
 ---------------------------------------------------------------------
      1          6           0       -0.589631    1.054575   -0.016792
      2          6           0       -1.111765   -0.243624    0.022295
      3          8           0       -0.166484   -1.104616   -0.019738
      4          6           0        1.022811   -0.500155    0.018573
      5          6           0        0.862725    0.830863    0.001271
      6          1           0        1.536019    1.614345    0.031805
      7          1           0        1.917824   -1.073725   -0.032990
      8          1           0       -2.131600   -0.546810    0.034210
      9          1           0       -1.095214    1.993169   -0.027213
 ---------------------------------------------------------------------

 SCF Done:  E(RAM1) =   2.82049628791     A.U. after   13 cycles

 Excitation energies and oscillator strengths:

 Excited State   1:      Singlet-A      5.2158 eV  237.71 nm  f=0.3602  <S**2>=0.000
      13 -> 14         0.69739
 This state for optimization and/or second-order correction.
 Total Energy, E(CIS) =   3.01217481344
 Copying the excited state density for this state as the 1-particle RhoCI density.

 Excited State   2:      Singlet-A      6.4422 eV  192.46 nm  f=0.0007  <S**2>=0.000
       9 -> 14         0.13542
      12 -> 14         0.62610
      13 -> 15         0.25834
      13 -> 17         0.10528

 Excited State   3:      Singlet-A      6.4600 eV  191.93 nm  f=0.0060  <S**2>=0.000
      12 -> 14        -0.28411
      13 -> 15         0.58138
      13 -> 17         0.23098

 Excited State   4:      Singlet-A      6.7394 eV  183.97 nm  f=0.0038  <S**2>=0.000
      13 -> 16         0.62348
      13 -> 18        -0.27485

 Excited State   5:      Singlet-A      7.6697 eV  161.65 nm  f=0.0001  <S**2>=0.000
      13 -> 15        -0.11983
      13 -> 16         0.20599
      13 -> 17         0.14999
      13 -> 18         0.39544
      13 -> 19         0.38945
      13 -> 20        -0.11985
      13 -> 21        -0.27324

 Excited State   6:      Singlet-A      7.8995 eV  156.95 nm  f=0.0067  <S**2>=0.000
      10 -> 14         0.68310

 Excited State   7:      Singlet-A      8.2133 eV  150.96 nm  f=0.0122  <S**2>=0.000
      10 -> 14        -0.13723
      13 -> 15        -0.19978
      13 -> 17         0.61545
      13 -> 18        -0.14755

 Excited State   8:      Singlet-A      8.4654 eV  146.46 nm  f=0.1182  <S**2>=0.000
      11 -> 14         0.68648

 Excited State   9:      Singlet-A      8.6925 eV  142.63 nm  f=0.0010  <S**2>=0.000
       9 -> 14         0.10646
      13 -> 16        -0.16258
      13 -> 18        -0.40041
      13 -> 19         0.52025

 Excited State  10:      Singlet-A      9.1052 eV  136.17 nm  f=0.0084  <S**2>=0.000
      13 -> 18         0.19607
      13 -> 19         0.18631
      13 -> 20         0.54213
      13 -> 21         0.33076

 Excited State  11:      Singlet-A      9.2659 eV  133.81 nm  f=0.0486  <S**2>=0.000
       9 -> 14         0.44579
       9 -> 18         0.10159
      10 -> 17        -0.10981
      12 -> 14        -0.10019
      12 -> 15         0.28338
      12 -> 16        -0.24507
      12 -> 17         0.11669
      12 -> 18         0.20305
      12 -> 19         0.11528

 Excited State  12:      Singlet-A      9.2926 eV  133.42 nm  f=0.0337  <S**2>=0.000
       9 -> 14         0.48144
      12 -> 14        -0.10450
      12 -> 15        -0.29213
      12 -> 16         0.20680
      12 -> 17        -0.10217
      12 -> 18        -0.18527
      13 -> 20         0.12298

 Excited State  13:      Singlet-A      9.4237 eV  131.57 nm  f=0.0719  <S**2>=0.000
       9 -> 14         0.12642
      13 -> 18         0.10803
      13 -> 19         0.14774
      13 -> 20        -0.38181
      13 -> 21         0.53200

 Excited State  14:      Singlet-A      9.5209 eV  130.22 nm  f=0.0352  <S**2>=0.000
       9 -> 15        -0.12231
      10 -> 15         0.20068
      10 -> 17         0.12213
      11 -> 14        -0.10301
      12 -> 15         0.47006
      12 -> 16         0.33857
      12 -> 17         0.13445
      12 -> 18        -0.14809
      12 -> 19        -0.11612

 Excited State  15:      Singlet-A      9.8072 eV  126.42 nm  f=0.0739  <S**2>=0.000
       9 -> 15         0.11409
       9 -> 16        -0.16296
      10 -> 15        -0.28841
      10 -> 16        -0.14732
      10 -> 17        -0.18733
      11 -> 15         0.12213
      12 -> 16         0.44009
      12 -> 19         0.24417

 The electronic state is 1-A.
 Alpha  occ. eigenvalues --   -1.74870  -1.11582  -0.93732  -0.80422  -0.75562
 Alpha  occ. eigenvalues --   -0.67164  -0.65082  -0.55413  -0.48551  -0.45770
 Alpha  occ. eigenvalues --   -0.44118  -0.40521  -0.29576
 Alpha virt. eigenvalues --    0.09720   0.17566   0.18789   0.24201   0.25765
 Alpha virt. eigenvalues --    0.27659   0.28459   0.29162   0.40990   0.49177
 Alpha virt. eigenvalues --    0.54281

 Mulliken charges:
               1
     1  C   -0.176858
     2  C   -2.000063
     3  O    3.219194
     4  C   -1.962400
     5  C   -0.088351
     6  H    0.178552
     7  H    0.317271
     8  H    0.326996
     9  H    0.185659
 Sum of Mulliken charges =   0.00000

 Dipole moment (field-independent basis, Debye):
    X=             -1.3372    Y=             -9.0889    Z=             -0.5897  Tot=              9.2056
 N-N= 1.045946595864D+02 E-N=-1.700692105258D+02  KE=-1.483185873513D+01
 Orbital energies and kinetic energies (alpha):
                                 1                 2
   1         O                -1.748695         -1.263042
   2         O                -1.115823         -0.981108
   3         O                -0.937318         -0.839530
   4         O                -0.804217         -0.604500
   5         O                -0.755620         -0.690116
   6         O                -0.671642         -0.575290
   7         O                -0.650823         -0.522591

 Normal termination of Gaussian 09 at Tue Dec 15 17:06:03 2015.
