 Gaussian 09, Revision D.01,
 Gaussian 09:  ES64L-G09RevD.01 24-Apr-2013

 ------------------------------------------------------------
 #P AM1(Input,print) CIS(Singlets,NStates=15) pop(full) force
 ------------------------------------------------------------

 -----------------
 AM1-Reparam Input
 -----------------
 Symbolic Z-matrix:
 Charge =  0 Multiplicity = 1

                         Standard orientation:
 ---------------------------------------------------------------------
 Center     Atomic      Atomic             Coordinates (Angstroms)
 Number     Number       Type             X           Y           Z
 ---------------------------------------------------------------------
      1          6           0        0.906798    0.776835   -0.013504
      2          6           0        1.034385   -0.574751    0.020855
      3          8           0       -0.305036   -1.109669   -0.002194
      4          6           0       -1.147473   -0.105361   -0.002074
      5          6           0       -0.458687    1.060529   -0.015200
      6          1           0       -0.909003    2.133576    0.071905
      7          1           0       -2.221451   -0.316488    0.014679
      8          1           0        1.834847   -1.276483   -0.028184
      9          1           0        1.725766    1.393239    0.018693
 ---------------------------------------------------------------------

 SCF Done:  E(RAM1) =  -5.44541934365     A.U. after   13 cycles

 Excitation energies and oscillator strengths:

 Excited State   1:      Singlet-A      6.7936 eV  182.50 nm  f=0.3775  <S**2>=0.000
      13 -> 14         0.69410
 This state for optimization and/or second-order correction.
 Total Energy, E(CIS) =  -5.19575973911
 Copying the excited state density for this state as the 1-particle RhoCI density.

 Excited State   2:      Singlet-A      7.1463 eV  173.50 nm  f=0.0013  <S**2>=0.000
      13 -> 15         0.68638

 Excited State   3:      Singlet-A      7.9048 eV  156.85 nm  f=0.0058  <S**2>=0.000
      13 -> 16         0.68406

 Excited State   4:      Singlet-A      8.7677 eV  141.41 nm  f=0.0037  <S**2>=0.000
      11 -> 14         0.11862
      12 -> 14         0.68508

 Excited State   5:      Singlet-A      9.4440 eV  131.28 nm  f=0.0014  <S**2>=0.000
      10 -> 14        -0.15998
      11 -> 14         0.57727
      12 -> 14        -0.13186
      13 -> 17         0.30794
      13 -> 18        -0.10231

 Excited State   6:      Singlet-A      9.5208 eV  130.22 nm  f=0.0034  <S**2>=0.000
      11 -> 14        -0.33061
      13 -> 17         0.53959
      13 -> 18        -0.23792
      13 -> 22        -0.12001

 Excited State   7:      Singlet-A     10.2720 eV  120.70 nm  f=0.0051  <S**2>=0.000
      10 -> 15        -0.17631
      13 -> 17         0.27665
      13 -> 18         0.58187
      13 -> 21         0.14141
      13 -> 22         0.10606

 Excited State   8:      Singlet-A     10.6703 eV  116.20 nm  f=0.0435  <S**2>=0.000
      10 -> 14         0.61205
      11 -> 14         0.16456
      13 -> 19         0.23659

 Excited State   9:      Singlet-A     11.0812 eV  111.89 nm  f=0.0459  <S**2>=0.000
      10 -> 15        -0.12931
      12 -> 15         0.63252
      12 -> 16        -0.10545
      12 -> 18        -0.12544

 Excited State  10:      Singlet-A     11.1801 eV  110.90 nm  f=0.0512  <S**2>=0.000
       9 -> 15         0.18328
      10 -> 15         0.17646
      11 -> 15         0.41215
      11 -> 16         0.12705
      11 -> 18        -0.14382
      12 -> 16        -0.28155
      12 -> 17         0.26161
      13 -> 20         0.16731

 Excited State  11:      Singlet-A     11.3510 eV  109.23 nm  f=0.0746  <S**2>=0.000
      10 -> 15         0.46179
      12 -> 15         0.20318
      12 -> 16         0.14707
      12 -> 17        -0.15177
      13 -> 19        -0.14331
      13 -> 20         0.34659

 Excited State  12:      Singlet-A     11.5307 eV  107.53 nm  f=0.0117  <S**2>=0.000
      10 -> 15        -0.10328
      10 -> 16        -0.22099
      13 -> 18        -0.21425
      13 -> 21         0.57762
      13 -> 22         0.18402

 Excited State  13:      Singlet-A     11.6583 eV  106.35 nm  f=0.0218  <S**2>=0.000
      10 -> 15        -0.33485
      10 -> 16        -0.14351
      13 -> 15        -0.11793
      13 -> 19        -0.10832
      13 -> 20         0.52432
      13 -> 21        -0.16413

 Excited State  14:      Singlet-A     11.8744 eV  104.41 nm  f=0.1072  <S**2>=0.000
      10 -> 14        -0.21740
      11 -> 15         0.12061
      11 -> 16        -0.10123
      12 -> 17        -0.14356
      13 -> 19         0.60544
      13 -> 20         0.14128

 Excited State  15:      Singlet-A     12.1078 eV  102.40 nm  f=0.3344  <S**2>=0.000
      11 -> 15        -0.11657
      11 -> 16         0.52737
      12 -> 16         0.29267
      12 -> 17         0.15570
      12 -> 18        -0.12608

 The electronic state is 1-A.
 Alpha  occ. eigenvalues --   -3.89323  -1.34238  -0.98786  -0.97540  -0.90278
 Alpha  occ. eigenvalues --   -0.89199  -0.80875  -0.66546  -0.65699  -0.55593
 Alpha  occ. eigenvalues --   -0.54820  -0.52707  -0.38657
 Alpha virt. eigenvalues --    0.08030   0.11539   0.15573   0.21831   0.24654
 Alpha virt. eigenvalues --    0.28655   0.29100   0.31336   0.33601   0.39062
 Alpha virt. eigenvalues --    0.44723

 Mulliken charges:
               1
     1  C   -0.015017
     2  C   -1.494827
     3  O    3.116240
     4  C   -1.551461
     5  C   -0.136299
     6  H   -0.000877
     7  H    0.066493
     8  H    0.031280
     9  H   -0.015531
 Sum of Mulliken charges =   0.00000

 Dipole moment (field-independent basis, Debye):
    X=             -3.4733    Y=            -11.3680    Z=             -0.1561  Tot=             11.8878
 N-N= 1.048839194362D+02 E-N=-1.710323483917D+02  KE=-2.334113372922D+01
 Orbital energies and kinetic energies (alpha):
                                 1                 2
   1         O                -3.893229         -3.075536
   2         O                -1.342379         -1.228621
   3         O                -0.987861         -0.996162
   4         O                -0.975404         -0.881838
   5         O                -0.902777         -0.817610
   6         O                -0.891988         -0.830702
   7         O                -0.808749         -0.755735

 Normal termination of Gaussian 09 at Fri Dec 11 13:41:32 2015.
