 Gaussian 09, Revision D.01,
 Gaussian 09:  ES64L-G09RevD.01 24-Apr-2013

 ------------------------------------------------------------
 #P AM1(Input,print) CIS(Singlets,NStates=15) pop(full) force
 ------------------------------------------------------------

 -----------------
 AM1-Reparam Input
 -----------------
 Symbolic Z-matrix:
 Charge =  0 Multiplicity = 1

                         Standard orientation:
 ---------------------------------------------------------------------
 Center     Atomic      Atomic             Coordinates (Angstroms)
 Number     Number       Type             X           Y           Z
 ---------------------------------------------------------------------
      1          6           0       -0.885000    0.851222   -0.017525
      2          6           0       -1.028314   -0.529937    0.024752
      3          8           0        0.176282   -1.125813   -0.025403
      4          6           0        1.140646   -0.185201    0.009596
      5          6           0        0.603293    1.036301    0.004514
      6          1           0        1.084755    1.957468   -0.002401
      7          1           0        2.141008   -0.531214    0.041122
      8          1           0       -1.941124   -1.084861    0.040854
      9          1           0       -1.678640    1.630808   -0.004370
 ---------------------------------------------------------------------

 SCF Done:  E(RAM1) =   1.68326897786     A.U. after   13 cycles

 Excitation energies and oscillator strengths:

 Excited State   1:      Singlet-A      5.1120 eV  242.53 nm  f=0.3582  <S**2>=0.000
      13 -> 14         0.69620
 This state for optimization and/or second-order correction.
 Total Energy, E(CIS) =   1.87113213145
 Copying the excited state density for this state as the 1-particle RhoCI density.

 Excited State   2:      Singlet-A      6.2426 eV  198.61 nm  f=0.0075  <S**2>=0.000
      13 -> 15         0.62983
      13 -> 16         0.17552
      13 -> 17         0.22836

 Excited State   3:      Singlet-A      6.3700 eV  194.64 nm  f=0.0007  <S**2>=0.000
      13 -> 15        -0.17391
      13 -> 16         0.57882
      13 -> 19         0.33335

 Excited State   4:      Singlet-A      6.7677 eV  183.20 nm  f=0.0007  <S**2>=0.000
      12 -> 14         0.67689
      13 -> 18        -0.10167

 Excited State   5:      Singlet-A      7.1058 eV  174.48 nm  f=0.0004  <S**2>=0.000
      12 -> 14         0.17491
      13 -> 16        -0.24111
      13 -> 17         0.18874
      13 -> 18         0.29442
      13 -> 19         0.41982
      13 -> 20        -0.27323
      13 -> 21        -0.15262

 Excited State   6:      Singlet-A      7.7205 eV  160.59 nm  f=0.0150  <S**2>=0.000
      10 -> 14         0.11058
      13 -> 15        -0.20618
      13 -> 17         0.61486
      13 -> 19        -0.19034
      13 -> 20         0.10797

 Excited State   7:      Singlet-A      8.2035 eV  151.14 nm  f=0.0009  <S**2>=0.000
      10 -> 14         0.59062
      13 -> 17        -0.10638
      13 -> 18         0.32231
      13 -> 19        -0.12034

 Excited State   8:      Singlet-A      8.2524 eV  150.24 nm  f=0.0028  <S**2>=0.000
      10 -> 14        -0.31462
      13 -> 16         0.16558
      13 -> 18         0.43443
      13 -> 19        -0.35030
      13 -> 20        -0.20896

 Excited State   9:      Singlet-A      8.4058 eV  147.50 nm  f=0.0114  <S**2>=0.000
      10 -> 14        -0.14076
      13 -> 18         0.30244
      13 -> 19         0.13443
      13 -> 20         0.41987
      13 -> 21         0.42079

 Excited State  10:      Singlet-A      8.5449 eV  145.10 nm  f=0.1140  <S**2>=0.000
      11 -> 14         0.68257
      12 -> 15        -0.10115

 Excited State  11:      Singlet-A      8.8295 eV  140.42 nm  f=0.0762  <S**2>=0.000
      10 -> 14         0.11779
      13 -> 20        -0.42019
      13 -> 21         0.53496

 Excited State  12:      Singlet-A      9.4017 eV  131.87 nm  f=0.1105  <S**2>=0.000
       8 -> 15        -0.12795
       9 -> 19        -0.10663
      10 -> 15         0.14403
      10 -> 17         0.21585
      12 -> 15        -0.12631
      12 -> 16         0.40059
      12 -> 19         0.37046
      12 -> 20        -0.15575
      12 -> 21        -0.13011

 Excited State  13:      Singlet-A      9.7830 eV  126.73 nm  f=0.0293  <S**2>=0.000
      11 -> 15         0.44153
      11 -> 16         0.21775
      11 -> 17         0.10857
      12 -> 15        -0.37364
      12 -> 18         0.10564
      13 -> 16         0.11392

 Excited State  14:      Singlet-A      9.8306 eV  126.12 nm  f=0.0510  <S**2>=0.000
      11 -> 15         0.39396
      11 -> 16         0.12746
      12 -> 15         0.45795
      12 -> 20        -0.10062

 Excited State  15:      Singlet-A     10.0911 eV  122.86 nm  f=0.0081  <S**2>=0.000
       8 -> 15        -0.15563
      12 -> 15        -0.14808
      12 -> 16         0.35584
      12 -> 17        -0.20338
      12 -> 18        -0.29636
      12 -> 19        -0.26786
      12 -> 20         0.22781
      12 -> 21         0.12278

 The electronic state is 1-A.
 Alpha  occ. eigenvalues --   -1.91667  -1.20160  -1.00276  -0.82639  -0.79957
 Alpha  occ. eigenvalues --   -0.69056  -0.63388  -0.55399  -0.51639  -0.45270
 Alpha  occ. eigenvalues --   -0.42998  -0.40748  -0.27502
 Alpha virt. eigenvalues --    0.11187   0.18148   0.19082   0.24920   0.26372
 Alpha virt. eigenvalues --    0.27280   0.28261   0.28820   0.37641   0.46168
 Alpha virt. eigenvalues --    0.51576

 Mulliken charges:
               1
     1  C   -0.149320
     2  C   -1.970174
     3  O    3.188246
     4  C   -1.926820
     5  C   -0.130240
     6  H    0.179402
     7  H    0.304620
     8  H    0.320557
     9  H    0.183730
 Sum of Mulliken charges =   0.00000

 Dipole moment (field-independent basis, Debye):
    X=              1.5196    Y=             -9.7183    Z=             -0.4617  Tot=              9.8472
 N-N= 1.037870637695D+02 E-N=-1.690741256689D+02  KE=-1.571948130813D+01
 Orbital energies and kinetic energies (alpha):
                                 1                 2
   1         O                -1.916671         -1.389517
   2         O                -1.201601         -1.079224
   3         O                -1.002765         -0.915866
   4         O                -0.826395         -0.636628
   5         O                -0.799565         -0.708819
   6         O                -0.690556         -0.573962
   7         O                -0.633877         -0.505745

 Normal termination of Gaussian 09 at Tue Dec 15 17:07:04 2015.
