 Gaussian 09, Revision D.01,
 Gaussian 09:  ES64L-G09RevD.01 24-Apr-2013

 ------------------------------------------------------------
 #P AM1(Input,print) CIS(Singlets,NStates=15) pop(full) force
 ------------------------------------------------------------

 -----------------
 AM1-Reparam Input
 -----------------
 Symbolic Z-matrix:
 Charge =  0 Multiplicity = 1

                         Standard orientation:
 ---------------------------------------------------------------------
 Center     Atomic      Atomic             Coordinates (Angstroms)
 Number     Number       Type             X           Y           Z
 ---------------------------------------------------------------------
      1          6           0       -0.885270    0.787392    0.015701
      2          6           0       -1.065905   -0.472591   -0.015346
      3          8           0        0.213108   -1.146504    0.022311
      4          6           0        1.169657   -0.156108   -0.021829
      5          6           0        0.536669    1.068398   -0.009674
      6          1           0        1.077165    1.969415    0.057703
      7          1           0        2.133243   -0.528447   -0.004625
      8          1           0       -1.874166   -1.175156   -0.029939
      9          1           0       -1.572016    1.543671   -0.014736
 ---------------------------------------------------------------------

 SCF Done:  E(RAM1) =  -3.75039269856     A.U. after   14 cycles

 Excitation energies and oscillator strengths:

 Excited State   1:      Singlet-A      6.3950 eV  193.88 nm  f=0.3666  <S**2>=0.000
      13 -> 14         0.69379
 This state for optimization and/or second-order correction.
 Total Energy, E(CIS) =  -3.51538182201
 Copying the excited state density for this state as the 1-particle RhoCI density.

 Excited State   2:      Singlet-A      7.8838 eV  157.27 nm  f=0.0005  <S**2>=0.000
      12 -> 14         0.67212
      13 -> 15        -0.17311

 Excited State   3:      Singlet-A      8.0893 eV  153.27 nm  f=0.0034  <S**2>=0.000
      12 -> 14         0.18930
      13 -> 15         0.61560
      13 -> 16         0.13722
      13 -> 18         0.16079
      13 -> 19        -0.11370
      13 -> 21        -0.12891

 Excited State   4:      Singlet-A      8.3842 eV  147.88 nm  f=0.0074  <S**2>=0.000
      13 -> 15        -0.12901
      13 -> 16         0.65377
      13 -> 18         0.14183
      13 -> 19         0.11737

 Excited State   5:      Singlet-A      8.8321 eV  140.38 nm  f=0.0054  <S**2>=0.000
      10 -> 14         0.14143
      11 -> 14         0.68059

 Excited State   6:      Singlet-A      9.5702 eV  129.55 nm  f=0.0020  <S**2>=0.000
      10 -> 14         0.46987
      13 -> 17         0.50826

 Excited State   7:      Singlet-A     10.0246 eV  123.68 nm  f=0.0037  <S**2>=0.000
      10 -> 16        -0.10698
      13 -> 15         0.16482
      13 -> 16        -0.10189
      13 -> 19         0.55411
      13 -> 21         0.20012
      13 -> 22         0.30493

 Excited State   8:      Singlet-A     10.1526 eV  122.12 nm  f=0.0188  <S**2>=0.000
      10 -> 15         0.13015
      13 -> 15        -0.13317
      13 -> 16        -0.14936
      13 -> 18         0.65454

 Excited State   9:      Singlet-A     10.5547 eV  117.47 nm  f=0.2702  <S**2>=0.000
      10 -> 14        -0.46177
      11 -> 14         0.10785
      12 -> 15        -0.11329
      12 -> 18        -0.10265
      13 -> 17         0.47371

 Excited State  10:      Singlet-A     11.0462 eV  112.24 nm  f=0.0318  <S**2>=0.000
       9 -> 14        -0.13125
      13 -> 20         0.66149
      13 -> 21         0.11043

 Excited State  11:      Singlet-A     11.1619 eV  111.08 nm  f=0.0009  <S**2>=0.000
       9 -> 14        -0.32469
      13 -> 19        -0.21202
      13 -> 20        -0.15985
      13 -> 21         0.54022

 Excited State  12:      Singlet-A     11.3667 eV  109.08 nm  f=0.0903  <S**2>=0.000
       9 -> 14         0.27241
      12 -> 15         0.43647
      12 -> 16        -0.21487
      12 -> 19        -0.20641
      12 -> 21        -0.12625
      13 -> 21         0.21566

 Excited State  13:      Singlet-A     11.4088 eV  108.67 nm  f=0.0660  <S**2>=0.000
       9 -> 14         0.50096
      12 -> 15        -0.26746
      12 -> 16         0.11813
      12 -> 19         0.12360
      13 -> 21         0.24726
      13 -> 22        -0.15585

 Excited State  14:      Singlet-A     11.5928 eV  106.95 nm  f=0.0004  <S**2>=0.000
       9 -> 14         0.13070
      13 -> 19        -0.32699
      13 -> 22         0.58137

 Excited State  15:      Singlet-A     11.7649 eV  105.38 nm  f=0.0086  <S**2>=0.000
      11 -> 15        -0.31964
      11 -> 19         0.10981
      12 -> 15         0.15928
      12 -> 16         0.54118
      12 -> 18         0.17599

 The electronic state is 1-A.
 Alpha  occ. eigenvalues --   -3.07082  -1.24814  -0.97434  -0.91279  -0.88989
 Alpha  occ. eigenvalues --   -0.87972  -0.79576  -0.67010  -0.63113  -0.57756
 Alpha  occ. eigenvalues --   -0.56523  -0.54121  -0.41597
 Alpha virt. eigenvalues --    0.03184   0.12648   0.12981   0.18399   0.19709
 Alpha virt. eigenvalues --    0.22600   0.23654   0.25171   0.27389   0.31764
 Alpha virt. eigenvalues --    0.37568

 Mulliken charges:
               1
     1  C   -0.191517
     2  C   -1.400993
     3  O    2.663098
     4  C   -1.434654
     5  C   -0.333637
     6  H    0.164773
     7  H    0.190877
     8  H    0.187133
     9  H    0.154920
 Sum of Mulliken charges =   0.00000

 Dipole moment (field-independent basis, Debye):
    X=              1.6240    Y=            -10.5493    Z=              0.5040  Tot=             10.6855
 N-N= 1.055579720272D+02 E-N=-1.725977695451D+02  KE=-2.167363706203D+01
 Orbital energies and kinetic energies (alpha):
                                 1                 2
   1         O                -3.070818         -2.364212
   2         O                -1.248138         -1.123239
   3         O                -0.974342         -0.811459
   4         O                -0.912788         -0.872510
   5         O                -0.889888         -0.814340
   6         O                -0.879721         -0.897054
   7         O                -0.795756         -0.712803

 Normal termination of Gaussian 09 at Fri Dec 11 13:41:17 2015.
