 Gaussian 09, Revision D.01,
 Gaussian 09:  ES64L-G09RevD.01 24-Apr-2013

 ------------------------------------------------------------
 #P AM1(Input,print) CIS(Singlets,NStates=15) pop(full) force
 ------------------------------------------------------------

 -----------------
 AM1-Reparam Input
 -----------------
 Symbolic Z-matrix:
 Charge =  0 Multiplicity = 1

                         Standard orientation:
 ---------------------------------------------------------------------
 Center     Atomic      Atomic             Coordinates (Angstroms)
 Number     Number       Type             X           Y           Z
 ---------------------------------------------------------------------
      1          6           0       -0.743460    0.905586    0.007329
      2          6           0       -1.067291   -0.314285    0.004573
      3          8           0        0.009564   -1.178529    0.003626
      4          6           0        1.093313   -0.336497   -0.019341
      5          6           0        0.704809    0.997165   -0.017738
      6          1           0        1.398201    1.779010    0.077998
      7          1           0        2.038640   -0.796708    0.062001
      8          1           0       -2.043865   -0.840370   -0.004796
      9          1           0       -1.393711    1.774489   -0.013147
 ---------------------------------------------------------------------

 SCF Done:  E(RAM1) =   2.58853033548     A.U. after   14 cycles

 Excitation energies and oscillator strengths:

 Excited State   1:      Singlet-A      5.1922 eV  238.79 nm  f=0.3415  <S**2>=0.000
      13 -> 14         0.69529
 This state for optimization and/or second-order correction.
 Total Energy, E(CIS) =   2.77934126494
 Copying the excited state density for this state as the 1-particle RhoCI density.

 Excited State   2:      Singlet-A      5.9006 eV  210.12 nm  f=0.0010  <S**2>=0.000
      13 -> 15         0.68029
      13 -> 19         0.10399

 Excited State   3:      Singlet-A      6.2602 eV  198.05 nm  f=0.0038  <S**2>=0.000
      13 -> 16         0.65610
      13 -> 17        -0.20050
      13 -> 19        -0.10825

 Excited State   4:      Singlet-A      6.7756 eV  182.99 nm  f=0.0006  <S**2>=0.000
      12 -> 14         0.69936

 Excited State   5:      Singlet-A      7.7175 eV  160.65 nm  f=0.0002  <S**2>=0.000
      13 -> 16         0.14290
      13 -> 17         0.37864
      13 -> 18         0.47461
      13 -> 20        -0.10582
      13 -> 21         0.26480

 Excited State   6:      Singlet-A      7.9288 eV  156.37 nm  f=0.0119  <S**2>=0.000
      10 -> 14        -0.31397
      11 -> 14         0.48460
      13 -> 17         0.25156
      13 -> 18        -0.26664

 Excited State   7:      Singlet-A      8.0944 eV  153.17 nm  f=0.0059  <S**2>=0.000
      10 -> 14         0.20240
      11 -> 14        -0.32745
      13 -> 17         0.48261
      13 -> 18        -0.27112
      13 -> 19        -0.10637

 Excited State   8:      Singlet-A      8.6185 eV  143.86 nm  f=0.0008  <S**2>=0.000
      13 -> 16         0.10018
      13 -> 18        -0.18769
      13 -> 19         0.65720

 Excited State   9:      Singlet-A      8.7588 eV  141.55 nm  f=0.0461  <S**2>=0.000
       8 -> 15         0.13063
      10 -> 14         0.45153
      11 -> 14         0.29254
      12 -> 15        -0.37536
      12 -> 17        -0.11810

 Excited State  10:      Singlet-A      9.1373 eV  135.69 nm  f=0.2113  <S**2>=0.000
      10 -> 14         0.35629
      11 -> 14         0.21960
      12 -> 15         0.48822
      12 -> 16        -0.18077
      12 -> 18         0.10358

 Excited State  11:      Singlet-A      9.4254 eV  131.54 nm  f=0.0016  <S**2>=0.000
      13 -> 18        -0.27932
      13 -> 20        -0.32627
      13 -> 21         0.52614

 Excited State  12:      Singlet-A      9.5007 eV  130.50 nm  f=0.0156  <S**2>=0.000
       9 -> 15         0.16248
      10 -> 15         0.13523
      10 -> 17        -0.10172
      11 -> 15        -0.19057
      11 -> 16        -0.11434
      11 -> 17         0.15516
      11 -> 18        -0.11456
      12 -> 15         0.26577
      12 -> 16         0.35362
      12 -> 17        -0.22917
      12 -> 18        -0.19904
      13 -> 21         0.11741

 Excited State  13:      Singlet-A      9.7963 eV  126.56 nm  f=0.1023  <S**2>=0.000
      11 -> 16        -0.10058
      13 -> 20         0.58851
      13 -> 21         0.32867

 Excited State  14:      Singlet-A      9.9550 eV  124.54 nm  f=0.0220  <S**2>=0.000
       7 -> 15        -0.12036
      10 -> 15         0.45294
      10 -> 16         0.11399
      11 -> 15         0.25085
      11 -> 16         0.35523
      12 -> 16         0.13566
      13 -> 15        -0.10238

 Excited State  15:      Singlet-A      9.9899 eV  124.11 nm  f=0.0982  <S**2>=0.000
      10 -> 15        -0.31210
      11 -> 15        -0.15636
      11 -> 16         0.34486
      11 -> 17        -0.11141
      12 -> 16         0.36237
      12 -> 18         0.14655
      13 -> 20         0.11983

 The electronic state is 1-A.
 Alpha  occ. eigenvalues --   -1.73272  -1.16359  -0.95458  -0.80852  -0.75966
 Alpha  occ. eigenvalues --   -0.67375  -0.64271  -0.53569  -0.49771  -0.43619
 Alpha  occ. eigenvalues --   -0.43224  -0.39531  -0.27112
 Alpha virt. eigenvalues --    0.12374   0.16814   0.19066   0.26481   0.28779
 Alpha virt. eigenvalues --    0.29801   0.32723   0.33605   0.38382   0.48227
 Alpha virt. eigenvalues --    0.51697

 Mulliken charges:
               1
     1  C   -0.041160
     2  C   -1.865303
     3  O    3.215309
     4  C   -1.925513
     5  C   -0.106874
     6  H    0.116820
     7  H    0.250010
     8  H    0.247245
     9  H    0.109467
 Sum of Mulliken charges =   0.00000

 Dipole moment (field-independent basis, Debye):
    X=             -0.4909    Y=            -11.4400    Z=              0.3332  Tot=             11.4553
 N-N= 1.038481572009D+02 E-N=-1.688647995717D+02  KE=-1.504685155469D+01
 Orbital energies and kinetic energies (alpha):
                                 1                 2
   1         O                -1.732723         -1.225565
   2         O                -1.163590         -1.021768
   3         O                -0.954578         -0.883850
   4         O                -0.808525         -0.607905
   5         O                -0.759659         -0.683727
   6         O                -0.673754         -0.560450
   7         O                -0.642715         -0.526054

 Normal termination of Gaussian 09 at Tue Dec 15 17:06:11 2015.
