 Gaussian 09, Revision D.01,
 Gaussian 09:  ES64L-G09RevD.01 24-Apr-2013

 ------------------------------------------------------------
 #P AM1(Input,print) CIS(Singlets,NStates=15) pop(full) force
 ------------------------------------------------------------

 -----------------
 AM1-Reparam Input
 -----------------
 Symbolic Z-matrix:
 Charge =  0 Multiplicity = 1

                         Standard orientation:
 ---------------------------------------------------------------------
 Center     Atomic      Atomic             Coordinates (Angstroms)
 Number     Number       Type             X           Y           Z
 ---------------------------------------------------------------------
      1          6           0        0.233851    1.154702    0.003250
      2          6           0        1.135344    0.102583   -0.003083
      3          8           0        0.513178   -1.038706   -0.012188
      4          6           0       -0.894355   -0.752286    0.020260
      5          6           0       -1.039467    0.578183   -0.021205
      6          1           0       -1.994764    1.099424   -0.005095
      7          1           0       -1.506241   -1.562490    0.034581
      8          1           0        2.247521    0.079366    0.026829
      9          1           0        0.535823    2.194256    0.045854
 ---------------------------------------------------------------------

 SCF Done:  E(RAM1) =   1.70978880505     A.U. after   14 cycles

 Excitation energies and oscillator strengths:

 Excited State   1:      Singlet-A      5.4805 eV  226.23 nm  f=0.3208  <S**2>=0.000
      13 -> 14         0.69213
 This state for optimization and/or second-order correction.
 Total Energy, E(CIS) =   1.91119439571
 Copying the excited state density for this state as the 1-particle RhoCI density.

 Excited State   2:      Singlet-A      6.0820 eV  203.86 nm  f=0.0037  <S**2>=0.000
      11 -> 15         0.11660
      13 -> 15         0.65004
      13 -> 17         0.21312

 Excited State   3:      Singlet-A      6.9805 eV  177.61 nm  f=0.0060  <S**2>=0.000
      11 -> 16        -0.10556
      13 -> 16         0.61929
      13 -> 17         0.14016
      13 -> 20         0.21807

 Excited State   4:      Singlet-A      7.2676 eV  170.60 nm  f=0.0006  <S**2>=0.000
      12 -> 14         0.65796
      13 -> 16        -0.10241
      13 -> 20         0.12592
      13 -> 21         0.11333

 Excited State   5:      Singlet-A      7.6093 eV  162.94 nm  f=0.0142  <S**2>=0.000
      12 -> 14         0.10474
      13 -> 15        -0.18809
      13 -> 17         0.56719
      13 -> 20        -0.29132
      13 -> 21        -0.10232

 Excited State   6:      Singlet-A      7.7336 eV  160.32 nm  f=0.0029  <S**2>=0.000
      11 -> 16         0.11060
      12 -> 14        -0.18417
      13 -> 16        -0.15564
      13 -> 17         0.29084
      13 -> 18         0.15218
      13 -> 20         0.41336
      13 -> 21         0.37473

 Excited State   7:      Singlet-A      8.0762 eV  153.52 nm  f=0.0034  <S**2>=0.000
      10 -> 14         0.67907

 Excited State   8:      Singlet-A      8.5237 eV  145.46 nm  f=0.0017  <S**2>=0.000
      10 -> 14         0.12743
      13 -> 16         0.14275
      13 -> 18         0.59787
      13 -> 19         0.24774
      13 -> 20        -0.14577

 Excited State   9:      Singlet-A      8.6724 eV  142.96 nm  f=0.0001  <S**2>=0.000
      13 -> 18        -0.29195
      13 -> 19         0.55467
      13 -> 21         0.27521

 Excited State  10:      Singlet-A      8.7667 eV  141.43 nm  f=0.0752  <S**2>=0.000
      11 -> 14         0.65493

 Excited State  11:      Singlet-A      9.1635 eV  135.30 nm  f=0.0925  <S**2>=0.000
      13 -> 19        -0.30707
      13 -> 20        -0.36170
      13 -> 21         0.48514

 Excited State  12:      Singlet-A      9.3871 eV  132.08 nm  f=0.0044  <S**2>=0.000
       7 -> 15        -0.14367
      11 -> 15         0.59362
      12 -> 15        -0.23500
      13 -> 15        -0.14652
      13 -> 21        -0.10306

 Excited State  13:      Singlet-A      9.4576 eV  131.09 nm  f=0.0029  <S**2>=0.000
       8 -> 15         0.13967
       9 -> 15         0.17149
      10 -> 15         0.12343
      10 -> 16         0.18105
      10 -> 17         0.24818
      11 -> 14         0.10538
      11 -> 15         0.14166
      12 -> 15         0.37784
      12 -> 16        -0.12529
      12 -> 18         0.11043
      12 -> 20        -0.19707
      12 -> 21        -0.15714

 Excited State  14:      Singlet-A      9.6691 eV  128.23 nm  f=0.1046  <S**2>=0.000
       9 -> 15         0.11465
      10 -> 15         0.41412
      10 -> 17         0.22196
      11 -> 14         0.12587
      11 -> 15        -0.18832
      12 -> 15        -0.37864
      12 -> 17        -0.14274
      12 -> 19        -0.10355

 Excited State  15:      Singlet-A     10.0708 eV  123.11 nm  f=0.1431  <S**2>=0.000
       8 -> 15         0.10602
       8 -> 16        -0.10702
       9 -> 15         0.20631
      10 -> 15         0.20886
      10 -> 19         0.30647
      11 -> 14        -0.14148
      12 -> 15         0.15735
      12 -> 16         0.13876
      12 -> 17        -0.26865
      12 -> 19         0.25243
      12 -> 20         0.19304

 The electronic state is 1-A.
 Alpha  occ. eigenvalues --   -1.91545  -1.22787  -0.99409  -0.82199  -0.80730
 Alpha  occ. eigenvalues --   -0.68803  -0.63555  -0.54819  -0.51590  -0.43167
 Alpha  occ. eigenvalues --   -0.42393  -0.40867  -0.28152
 Alpha virt. eigenvalues --    0.13147   0.16266   0.21607   0.24222   0.27318
 Alpha virt. eigenvalues --    0.28288   0.29558   0.29737   0.36419   0.45212
 Alpha virt. eigenvalues --    0.49936

 Mulliken charges:
               1
     1  C   -0.209751
     2  C   -1.970030
     3  O    3.184362
     4  C   -1.922954
     5  C   -0.037559
     6  H    0.169565
     7  H    0.284268
     8  H    0.317482
     9  H    0.184618
 Sum of Mulliken charges =   0.00000

 Dipole moment (field-independent basis, Debye):
    X=              5.0359    Y=             -9.0792    Z=             -0.1635  Tot=             10.3836
 N-N= 1.040351633844D+02 E-N=-1.694953366908D+02  KE=-1.575510211617D+01
 Orbital energies and kinetic energies (alpha):
                                 1                 2
   1         O                -1.915446         -1.379610
   2         O                -1.227865         -1.106122
   3         O                -0.994094         -0.914643
   4         O                -0.821987         -0.633323
   5         O                -0.807304         -0.704157
   6         O                -0.688031         -0.582482
   7         O                -0.635549         -0.512120

 Normal termination of Gaussian 09 at Tue Dec 15 17:06:55 2015.
