 Gaussian 09, Revision D.01,
 Gaussian 09:  ES64L-G09RevD.01 24-Apr-2013

 ------------------------------------------------------------
 #P AM1(Input,print) CIS(Singlets,NStates=15) pop(full) force
 ------------------------------------------------------------

 -----------------
 AM1-Reparam Input
 -----------------
 Symbolic Z-matrix:
 Charge =  0 Multiplicity = 1

                         Standard orientation:
 ---------------------------------------------------------------------
 Center     Atomic      Atomic             Coordinates (Angstroms)
 Number     Number       Type             X           Y           Z
 ---------------------------------------------------------------------
      1          6           0       -1.019760    0.708164   -0.025687
      2          6           0       -0.988633   -0.636175    0.046698
      3          8           0        0.370198   -1.136602   -0.036632
      4          6           0        1.185691    0.017817    0.028300
      5          6           0        0.420975    1.089536   -0.014464
      6          1           0        0.751393    2.181483    0.045415
      7          1           0        2.241335   -0.147917    0.023371
      8          1           0       -1.664749   -1.364004    0.025908
      9          1           0       -1.879206    1.347208   -0.010723
 ---------------------------------------------------------------------

 SCF Done:  E(RAM1) =   1.83276382642     A.U. after   13 cycles

 Excitation energies and oscillator strengths:

 Excited State   1:      Singlet-A      5.0718 eV  244.46 nm  f=0.3632  <S**2>=0.000
      13 -> 14         0.69530
 This state for optimization and/or second-order correction.
 Total Energy, E(CIS) =   2.01914984013
 Copying the excited state density for this state as the 1-particle RhoCI density.

 Excited State   2:      Singlet-A      6.4062 eV  193.54 nm  f=0.0011  <S**2>=0.000
      13 -> 15         0.64384
      13 -> 16        -0.18427
      13 -> 18        -0.15638
      13 -> 19        -0.11768

 Excited State   3:      Singlet-A      6.5494 eV  189.31 nm  f=0.0050  <S**2>=0.000
      13 -> 15         0.20040
      13 -> 16         0.64424
      13 -> 17        -0.15590

 Excited State   4:      Singlet-A      7.1010 eV  174.60 nm  f=0.0018  <S**2>=0.000
      12 -> 14         0.70112

 Excited State   5:      Singlet-A      7.7147 eV  160.71 nm  f=0.0001  <S**2>=0.000
      13 -> 16         0.14264
      13 -> 17         0.53391
      13 -> 18        -0.36111
      13 -> 22        -0.20471

 Excited State   6:      Singlet-A      8.3109 eV  149.18 nm  f=0.0073  <S**2>=0.000
      10 -> 14        -0.26142
      11 -> 14         0.62069
      13 -> 18         0.16447

 Excited State   7:      Singlet-A      8.6230 eV  143.78 nm  f=0.0029  <S**2>=0.000
      10 -> 14         0.11401
      11 -> 14        -0.16340
      13 -> 15         0.11759
      13 -> 17         0.38687
      13 -> 18         0.51396

 Excited State   8:      Singlet-A      9.0168 eV  137.50 nm  f=0.0653  <S**2>=0.000
      10 -> 14         0.59501
      11 -> 14         0.26072
      13 -> 20        -0.19815

 Excited State   9:      Singlet-A      9.2504 eV  134.03 nm  f=0.0024  <S**2>=0.000
      13 -> 18        -0.12250
      13 -> 19         0.66950

 Excited State  10:      Singlet-A      9.5760 eV  129.47 nm  f=0.0306  <S**2>=0.000
      11 -> 15        -0.11377
      11 -> 18         0.17726
      12 -> 15        -0.29685
      12 -> 16         0.34795
      12 -> 17        -0.33976
      12 -> 18         0.19894

 Excited State  11:      Singlet-A      9.8996 eV  125.24 nm  f=0.0431  <S**2>=0.000
      13 -> 17        -0.11385
      13 -> 18         0.13851
      13 -> 20         0.25819
      13 -> 21         0.45637
      13 -> 22        -0.40460

 Excited State  12:      Singlet-A     10.0281 eV  123.64 nm  f=0.1085  <S**2>=0.000
      10 -> 14         0.13200
      12 -> 15         0.37793
      12 -> 16         0.10344
      12 -> 17        -0.16211
      13 -> 20         0.41258
      13 -> 22         0.28339

 Excited State  13:      Singlet-A     10.0668 eV  123.16 nm  f=0.1244  <S**2>=0.000
      11 -> 15        -0.16253
      11 -> 18         0.10568
      12 -> 15         0.43827
      12 -> 17        -0.14981
      13 -> 20        -0.37751
      13 -> 22        -0.22198

 Excited State  14:      Singlet-A     10.2130 eV  121.40 nm  f=0.0937  <S**2>=0.000
      10 -> 14        -0.11398
      13 -> 20        -0.24526
      13 -> 21         0.49939
      13 -> 22         0.38232

 Excited State  15:      Singlet-A     10.5471 eV  117.55 nm  f=0.1737  <S**2>=0.000
       8 -> 16         0.14170
      11 -> 16         0.29979
      11 -> 17        -0.10364
      12 -> 16         0.47068
      12 -> 17         0.27813
      12 -> 18        -0.12068
      12 -> 19         0.10823

 The electronic state is 1-A.
 Alpha  occ. eigenvalues --   -1.96609  -1.24725  -1.00483  -0.87922  -0.85250
 Alpha  occ. eigenvalues --   -0.76439  -0.72104  -0.63000  -0.61550  -0.51753
 Alpha  occ. eigenvalues --   -0.51492  -0.47562  -0.34029
 Alpha virt. eigenvalues --    0.04769   0.12510   0.13846   0.20285   0.21602
 Alpha virt. eigenvalues --    0.24200   0.24903   0.26460   0.27682   0.33743
 Alpha virt. eigenvalues --    0.37799

 Mulliken charges:
               1
     1  C   -0.110040
     2  C   -1.843734
     3  O    3.175071
     4  C   -1.847259
     5  C   -0.191606
     6  H    0.161693
     7  H    0.271690
     8  H    0.241854
     9  H    0.142331
 Sum of Mulliken charges =   0.00000

 Dipole moment (field-independent basis, Debye):
    X=              3.8785    Y=            -11.0658    Z=             -0.9818  Tot=             11.7668
 N-N= 1.045409211921D+02 E-N=-1.687917512767D+02  KE=-1.556624388589D+01
 Orbital energies and kinetic energies (alpha):
                                 1                 2
   1         O                -1.966086         -1.312867
   2         O                -1.247246         -1.036133
   3         O                -1.004833         -0.896725
   4         O                -0.879217         -0.591082
   5         O                -0.852497         -0.707933
   6         O                -0.764387         -0.590035
   7         O                -0.721035         -0.534788

 Normal termination of Gaussian 09 at Tue Dec 15 17:09:02 2015.
