 Gaussian 09, Revision D.01,
 Gaussian 09:  ES64L-G09RevD.01 24-Apr-2013

 ------------------------------------------------------------
 #P AM1(Input,print) CIS(Singlets,NStates=15) pop(full) force
 ------------------------------------------------------------

 -----------------
 AM1-Reparam Input
 -----------------
 Symbolic Z-matrix:
 Charge =  0 Multiplicity = 1

                         Standard orientation:
 ---------------------------------------------------------------------
 Center     Atomic      Atomic             Coordinates (Angstroms)
 Number     Number       Type             X           Y           Z
 ---------------------------------------------------------------------
      1          6           0       -1.151780    0.428735   -0.051436
      2          6           0       -0.731541   -0.889562    0.041920
      3          8           0        0.676392   -0.968070   -0.012975
      4          6           0        1.099382    0.333947   -0.022468
      5          6           0        0.067705    1.137959    0.042047
      6          1           0        0.142793    2.267538    0.026043
      7          1           0        2.179964    0.367783    0.010261
      8          1           0       -1.272615   -1.756239    0.021526
      9          1           0       -2.163874    0.799003   -0.014409
 ---------------------------------------------------------------------

 SCF Done:  E(RAM1) =   2.07195144654     A.U. after   14 cycles

 Excitation energies and oscillator strengths:

 Excited State   1:      Singlet-A      5.3668 eV  231.02 nm  f=0.3293  <S**2>=0.000
      13 -> 14         0.69257
 This state for optimization and/or second-order correction.
 Total Energy, E(CIS) =   2.26917694728
 Copying the excited state density for this state as the 1-particle RhoCI density.

 Excited State   2:      Singlet-A      6.6409 eV  186.70 nm  f=0.0060  <S**2>=0.000
      12 -> 14         0.66230
      13 -> 15        -0.19736

 Excited State   3:      Singlet-A      6.7431 eV  183.87 nm  f=0.0033  <S**2>=0.000
      12 -> 14         0.21704
      13 -> 15         0.62237
      13 -> 17         0.16762
      13 -> 18        -0.13536

 Excited State   4:      Singlet-A      6.9291 eV  178.93 nm  f=0.0087  <S**2>=0.000
      13 -> 16         0.65308
      13 -> 18         0.20379

 Excited State   5:      Singlet-A      7.8264 eV  158.42 nm  f=0.0092  <S**2>=0.000
      10 -> 14        -0.47624
      11 -> 14         0.49072

 Excited State   6:      Singlet-A      8.0545 eV  153.93 nm  f=0.0014  <S**2>=0.000
      13 -> 16        -0.15140
      13 -> 17         0.11076
      13 -> 18         0.41764
      13 -> 19        -0.28643
      13 -> 20        -0.30812
      13 -> 21         0.26463

 Excited State   7:      Singlet-A      8.4549 eV  146.64 nm  f=0.0152  <S**2>=0.000
      13 -> 15        -0.19114
      13 -> 17         0.62725
      13 -> 18        -0.17919
      13 -> 19        -0.10799

 Excited State   8:      Singlet-A      8.7702 eV  141.37 nm  f=0.0896  <S**2>=0.000
      10 -> 14         0.48571
      11 -> 14         0.47847

 Excited State   9:      Singlet-A      9.1968 eV  134.81 nm  f=0.0040  <S**2>=0.000
      10 -> 16         0.10702
      11 -> 16         0.12401
      13 -> 16        -0.13261
      13 -> 17         0.16869
      13 -> 18         0.33923
      13 -> 19         0.51050
      13 -> 20         0.18686

 Excited State  10:      Singlet-A      9.4064 eV  131.81 nm  f=0.0548  <S**2>=0.000
       8 -> 15         0.10031
      10 -> 15         0.11685
      10 -> 17         0.10919
      11 -> 15        -0.11910
      11 -> 17        -0.12394
      12 -> 15        -0.17070
      12 -> 16         0.35551
      12 -> 17         0.12022
      12 -> 18         0.28469
      12 -> 19        -0.12004
      13 -> 19         0.13044
      13 -> 20        -0.23416

 Excited State  11:      Singlet-A      9.4836 eV  130.74 nm  f=0.0086  <S**2>=0.000
      12 -> 16        -0.14575
      12 -> 18        -0.10753
      13 -> 18        -0.28391
      13 -> 19         0.30850
      13 -> 20        -0.32584
      13 -> 21         0.38329

 Excited State  12:      Singlet-A      9.5940 eV  129.23 nm  f=0.1224  <S**2>=0.000
      12 -> 15         0.60173
      12 -> 16         0.12088
      12 -> 17         0.24376

 Excited State  13:      Singlet-A      9.8576 eV  125.78 nm  f=0.0793  <S**2>=0.000
      13 -> 20         0.43754
      13 -> 21         0.50459

 Excited State  14:      Singlet-A     10.2004 eV  121.55 nm  f=0.0728  <S**2>=0.000
       9 -> 16         0.17657
      11 -> 15         0.23031
      11 -> 16         0.13270
      11 -> 17         0.10276
      12 -> 16         0.36569
      12 -> 17        -0.22186
      12 -> 18        -0.11536
      12 -> 19         0.32499
      12 -> 21        -0.11571

 Excited State  15:      Singlet-A     10.3454 eV  119.84 nm  f=0.0097  <S**2>=0.000
       7 -> 15        -0.12388
      10 -> 15         0.36346
      11 -> 15         0.43564
      11 -> 16         0.15583
      12 -> 16        -0.12178
      12 -> 19        -0.14797
      13 -> 15        -0.12858

 The electronic state is 1-A.
 Alpha  occ. eigenvalues --   -1.93288  -1.20153  -0.95520  -0.81418  -0.79303
 Alpha  occ. eigenvalues --   -0.68389  -0.64400  -0.54479  -0.53435  -0.43755
 Alpha  occ. eigenvalues --   -0.43295  -0.39724  -0.28749
 Alpha virt. eigenvalues --    0.11832   0.18688   0.21543   0.26329   0.28064
 Alpha virt. eigenvalues --    0.29533   0.30891   0.31244   0.33887   0.43194
 Alpha virt. eigenvalues --    0.46942

 Mulliken charges:
               1
     1  C   -0.190440
     2  C   -2.016852
     3  O    3.180943
     4  C   -1.957883
     5  C   -0.232178
     6  H    0.259104
     7  H    0.348153
     8  H    0.358172
     9  H    0.250982
 Sum of Mulliken charges =   0.00000

 Dipole moment (field-independent basis, Debye):
    X=              6.4305    Y=             -8.5836    Z=             -0.2725  Tot=             10.7287
 N-N= 1.041977240695D+02 E-N=-1.694544959810D+02  KE=-1.547888948815D+01
 Orbital energies and kinetic energies (alpha):
                                 1                 2
   1         O                -1.932876         -1.366854
   2         O                -1.201534         -1.072804
   3         O                -0.955200         -0.875253
   4         O                -0.814185         -0.602979
   5         O                -0.793034         -0.678939
   6         O                -0.683885         -0.570009
   7         O                -0.643998         -0.522464

 Normal termination of Gaussian 09 at Tue Dec 15 17:07:14 2015.
