 Gaussian 09, Revision D.01,
 Gaussian 09:  ES64L-G09RevD.01 24-Apr-2013

 ------------------------------------------------------------
 #P AM1(Input,print) CIS(Singlets,NStates=15) pop(full) force
 ------------------------------------------------------------

 -----------------
 AM1-Reparam Input
 -----------------
 Symbolic Z-matrix:
 Charge =  0 Multiplicity = 1

                         Standard orientation:
 ---------------------------------------------------------------------
 Center     Atomic      Atomic             Coordinates (Angstroms)
 Number     Number       Type             X           Y           Z
 ---------------------------------------------------------------------
      1          6           0       -1.020417    0.619512   -0.026118
      2          6           0       -0.891285   -0.654347    0.012216
      3          8           0        0.411707   -1.029125   -0.003098
      4          6           0        1.176884    0.035336   -0.000925
      5          6           0        0.295869    1.087925    0.013852
      6          1           0        0.646310    2.146935   -0.021383
      7          1           0        2.242712   -0.100238    0.002443
      8          1           0       -1.675040   -1.535533   -0.006018
      9          1           0       -1.873945    1.191277    0.055588
 ---------------------------------------------------------------------

 SCF Done:  E(RAM1) =   2.08027684949     A.U. after   14 cycles

 Excitation energies and oscillator strengths:

 Excited State   1:      Singlet-A      5.3786 eV  230.51 nm  f=0.3255  <S**2>=0.000
      13 -> 14         0.69301
 This state for optimization and/or second-order correction.
 Total Energy, E(CIS) =   2.27793766727
 Copying the excited state density for this state as the 1-particle RhoCI density.

 Excited State   2:      Singlet-A      6.6011 eV  187.82 nm  f=0.0069  <S**2>=0.000
      10 -> 15         0.10725
      13 -> 15         0.64717
      13 -> 16         0.10905
      13 -> 17         0.17717
      13 -> 18         0.12463

 Excited State   3:      Singlet-A      6.6964 eV  185.15 nm  f=0.0007  <S**2>=0.000
      12 -> 14         0.67901
      13 -> 16         0.11404

 Excited State   4:      Singlet-A      6.8585 eV  180.77 nm  f=0.0058  <S**2>=0.000
      12 -> 14        -0.14227
      13 -> 16         0.62372
      13 -> 17         0.15460
      13 -> 18        -0.21485

 Excited State   5:      Singlet-A      7.7199 eV  160.60 nm  f=0.0100  <S**2>=0.000
      11 -> 14         0.65847
      13 -> 17         0.11482
      13 -> 18         0.12364
      13 -> 19         0.11753

 Excited State   6:      Singlet-A      7.8097 eV  158.76 nm  f=0.0013  <S**2>=0.000
      11 -> 14        -0.23150
      13 -> 15        -0.13410
      13 -> 17         0.29172
      13 -> 18         0.35892
      13 -> 19         0.38633
      13 -> 20         0.16466
      13 -> 21         0.15163

 Excited State   7:      Singlet-A      8.6418 eV  143.47 nm  f=0.0199  <S**2>=0.000
      10 -> 16         0.13382
      13 -> 15        -0.11368
      13 -> 16        -0.14651
      13 -> 17         0.53091
      13 -> 19        -0.36738
      13 -> 20        -0.13169

 Excited State   8:      Singlet-A      8.9002 eV  139.31 nm  f=0.0891  <S**2>=0.000
      10 -> 14         0.60871
      12 -> 15         0.17119
      13 -> 18         0.16723
      13 -> 19        -0.11183

 Excited State   9:      Singlet-A      8.9184 eV  139.02 nm  f=0.0112  <S**2>=0.000
      10 -> 14        -0.22305
      13 -> 16         0.17653
      13 -> 17        -0.18299
      13 -> 18         0.45675
      13 -> 19        -0.37549

 Excited State  10:      Singlet-A      9.3859 eV  132.10 nm  f=0.0140  <S**2>=0.000
      10 -> 14        -0.20884
      11 -> 16         0.21324
      11 -> 17         0.15417
      11 -> 19        -0.11447
      12 -> 15         0.37051
      12 -> 17         0.24914
      12 -> 18         0.23875
      12 -> 19         0.20568

 Excited State  11:      Singlet-A      9.5708 eV  129.54 nm  f=0.1810  <S**2>=0.000
      11 -> 16         0.13469
      12 -> 15        -0.14222
      12 -> 16         0.58807
      12 -> 17         0.20514
      12 -> 18        -0.18756

 Excited State  12:      Singlet-A      9.6554 eV  128.41 nm  f=0.0240  <S**2>=0.000
      13 -> 18        -0.18607
      13 -> 19        -0.18516
      13 -> 20         0.61625
      13 -> 21         0.19381

 Excited State  13:      Singlet-A      9.8478 eV  125.90 nm  f=0.1299  <S**2>=0.000
       8 -> 15         0.11905
      10 -> 14        -0.11439
      11 -> 15        -0.30022
      11 -> 17        -0.13169
      12 -> 15         0.42070
      12 -> 16         0.16367
      12 -> 18        -0.18850
      12 -> 19        -0.28096

 Excited State  14:      Singlet-A     10.0821 eV  122.97 nm  f=0.0490  <S**2>=0.000
      10 -> 16        -0.12036
      13 -> 20        -0.24144
      13 -> 21         0.62708

 Excited State  15:      Singlet-A     10.2935 eV  120.45 nm  f=0.0177  <S**2>=0.000
       9 -> 15         0.17830
      10 -> 15        -0.27921
      10 -> 16        -0.21573
      11 -> 15         0.41808
      11 -> 18         0.14093
      11 -> 19        -0.12733
      12 -> 17        -0.12555
      12 -> 18        -0.11618
      12 -> 19        -0.14465
      13 -> 21        -0.10395

 The electronic state is 1-A.
 Alpha  occ. eigenvalues --   -1.96132  -1.22451  -0.96854  -0.83264  -0.78495
 Alpha  occ. eigenvalues --   -0.68292  -0.67045  -0.56182  -0.53561  -0.45094
 Alpha  occ. eigenvalues --   -0.44128  -0.40874  -0.29925
 Alpha virt. eigenvalues --    0.11005   0.17256   0.19180   0.24748   0.26858
 Alpha virt. eigenvalues --    0.28328   0.29981   0.31452   0.37645   0.46005
 Alpha virt. eigenvalues --    0.51298

 Mulliken charges:
               1
     1  C   -0.159061
     2  C   -2.007106
     3  O    3.192316
     4  C   -2.023776
     5  C   -0.291896
     6  H    0.271342
     7  H    0.376386
     8  H    0.387210
     9  H    0.254585
 Sum of Mulliken charges =   0.00000

 Dipole moment (field-independent basis, Debye):
    X=              2.9255    Y=             -9.3183    Z=             -0.1225  Tot=              9.7675
 N-N= 1.053230529012D+02 E-N=-1.712783381903D+02  KE=-1.556127182906D+01
 Orbital energies and kinetic energies (alpha):
                                 1                 2
   1         O                -1.961324         -1.429558
   2         O                -1.224508         -1.077535
   3         O                -0.968539         -0.872527
   4         O                -0.832638         -0.600828
   5         O                -0.784953         -0.676456
   6         O                -0.682916         -0.567153
   7         O                -0.670454         -0.536520

 Normal termination of Gaussian 09 at Tue Dec 15 17:07:17 2015.
