 Gaussian 09, Revision D.01,
 Gaussian 09:  ES64L-G09RevD.01 24-Apr-2013

 -------------------------------------------------------
 #P B3LYP/3-21G CIS(Singlets,NStates=15) pop(full) force
 -------------------------------------------------------

 --------
 FuranDFT
 --------
 Symbolic Z-matrix:
 Charge =  0 Multiplicity = 1

                         Standard orientation:
 ---------------------------------------------------------------------
 Center     Atomic      Atomic             Coordinates (Angstroms)
 Number     Number       Type             X           Y           Z
 ---------------------------------------------------------------------
      1          6           0       -0.649209    0.952741   -0.010527
      2          6           0       -1.125689   -0.286260   -0.018166
      3          8           0       -0.016815   -1.185070    0.020537
      4          6           0        1.071734   -0.378041   -0.018015
      5          6           0        0.715134    0.952553    0.003449
      6          1           0        1.405952    1.806359    0.024339
      7          1           0        1.996069   -0.867944    0.000200
      8          1           0       -2.049384   -0.749091    0.004314
      9          1           0       -1.289940    1.845278    0.066410
 ---------------------------------------------------------------------

 SCF Done:  E(RB3LYP) =  -228.741688992     A.U. after   15 cycles

 Excitation energies and oscillator strengths:

 Excited State   1:      Singlet-A      7.0333 eV  176.28 nm  f=0.2154  <S**2>=0.000
      18 -> 19         0.67309
 This state for optimization and/or second-order correction.
 Total Energy, E(CIS) =  -228.483220314
 Copying the excited state density for this state as the 1-particle RhoCI density.

 Excited State   2:      Singlet-A      7.3996 eV  167.55 nm  f=0.0083  <S**2>=0.000
      17 -> 19         0.51958
      18 -> 19        -0.10794
      18 -> 20        -0.45316

 Excited State   3:      Singlet-A      8.1884 eV  151.41 nm  f=0.0021  <S**2>=0.000
      18 -> 21         0.69477

 Excited State   4:      Singlet-A      8.6822 eV  142.80 nm  f=0.0055  <S**2>=0.000
      16 -> 19         0.69956

 Excited State   5:      Singlet-A      9.2694 eV  133.76 nm  f=0.0021  <S**2>=0.000
      18 -> 22         0.68116

 Excited State   6:      Singlet-A      9.6977 eV  127.85 nm  f=0.1640  <S**2>=0.000
      17 -> 19        -0.24757
      17 -> 21         0.51738
      18 -> 20        -0.29088
      18 -> 23         0.16878

 Excited State   7:      Singlet-A      9.7848 eV  126.71 nm  f=0.2461  <S**2>=0.000
      15 -> 19        -0.29827
      17 -> 19         0.27037
      17 -> 20         0.22656
      17 -> 21         0.33588
      18 -> 20         0.32624
      18 -> 24        -0.12865

 Excited State   8:      Singlet-A      9.8503 eV  125.87 nm  f=0.0875  <S**2>=0.000
      15 -> 19         0.58011
      17 -> 19         0.15256
      17 -> 20         0.18846
      17 -> 21         0.12409
      18 -> 20         0.17292
      18 -> 23        -0.15462

 Excited State   9:      Singlet-A     10.0211 eV  123.72 nm  f=0.0114  <S**2>=0.000
      15 -> 19         0.19950
      17 -> 21        -0.15208
      18 -> 23         0.57847
      18 -> 24        -0.24553

 Excited State  10:      Singlet-A     10.1774 eV  121.82 nm  f=0.1694  <S**2>=0.000
      17 -> 19        -0.11862
      17 -> 20         0.59347
      17 -> 21        -0.25774
      18 -> 20        -0.10780

 Excited State  11:      Singlet-A     10.2734 eV  120.68 nm  f=0.0140  <S**2>=0.000
      14 -> 19        -0.28513
      18 -> 23         0.28291
      18 -> 24         0.55881

 Excited State  12:      Singlet-A     10.3779 eV  119.47 nm  f=0.0024  <S**2>=0.000
      14 -> 19         0.62756
      18 -> 24         0.29226

 Excited State  13:      Singlet-A     10.7026 eV  115.84 nm  f=0.0056  <S**2>=0.000
      17 -> 22         0.16013
      18 -> 25         0.66924

 Excited State  14:      Singlet-A     10.8041 eV  114.76 nm  f=0.0033  <S**2>=0.000
      12 -> 19         0.21878
      17 -> 22         0.64201
      18 -> 25        -0.12080

 Excited State  15:      Singlet-A     10.9732 eV  112.99 nm  f=0.0008  <S**2>=0.000
      12 -> 19         0.59677
      16 -> 20        -0.30916
      17 -> 22        -0.16203
      18 -> 25         0.11482

 The electronic state is 1-A.
 Alpha  occ. eigenvalues --  -19.11032 -10.17355 -10.16698 -10.12312 -10.12190
 Alpha  occ. eigenvalues --   -1.11226  -0.81938  -0.74343  -0.59369  -0.58311
 Alpha  occ. eigenvalues --   -0.54385  -0.44617  -0.44122  -0.41985  -0.40261
 Alpha  occ. eigenvalues --   -0.36457  -0.28717  -0.22854
 Alpha virt. eigenvalues --    0.01407   0.09208   0.12160   0.15535   0.18551
 Alpha virt. eigenvalues --    0.18744   0.21063   0.23499   0.34696   0.43654
 Alpha virt. eigenvalues --    0.48066   0.66999   0.70001   0.72107   0.76016

 Mulliken charges:
               1
     1  C   -0.243385
     2  C    0.048921
     3  O   -0.469464
     4  C    0.090890
     5  C   -0.241000
     6  H    0.187513
     7  H    0.217866
     8  H    0.218192
     9  H    0.190467
 Sum of Mulliken charges =   0.00000

 Dipole moment (field-independent basis, Debye):
    X=              0.0021    Y=              0.8339    Z=              0.0802  Tot=              0.8378
 Quadrupole moment (field-independent basis, Debye-Ang):
   XX=            -23.6162   YY=            -28.1523   ZZ=            -31.6625
   XY=             -0.0475   XZ=             -0.0747   YZ=              0.2014

 Normal termination of Gaussian 09 at Tue Dec 15 16:24:48 2015.
