 Gaussian 09, Revision D.01,
 Gaussian 09:  ES64L-G09RevD.01 24-Apr-2013

 ------------------------------------------------------------
 #P AM1(Input,print) CIS(Singlets,NStates=15) pop(full) force
 ------------------------------------------------------------

 -----------------
 AM1-Reparam Input
 -----------------
 Symbolic Z-matrix:
 Charge =  0 Multiplicity = 1

                         Standard orientation:
 ---------------------------------------------------------------------
 Center     Atomic      Atomic             Coordinates (Angstroms)
 Number     Number       Type             X           Y           Z
 ---------------------------------------------------------------------
      1          6           0       -1.019134    0.700298   -0.028078
      2          6           0       -0.896149   -0.702093    0.005899
      3          8           0        0.366618   -1.083516   -0.012352
      4          6           0        1.164285   -0.002440    0.015332
      5          6           0        0.363164    1.140054    0.027278
      6          1           0        0.743042    2.129363   -0.022659
      7          1           0        2.214252   -0.156025   -0.065589
      8          1           0       -1.697125   -1.438065    0.071687
      9          1           0       -1.866105    1.317940   -0.007204
 ---------------------------------------------------------------------

 SCF Done:  E(RAM1) =   1.76060018710     A.U. after   14 cycles

 Excitation energies and oscillator strengths:

 Excited State   1:      Singlet-A      5.5486 eV  223.45 nm  f=0.3672  <S**2>=0.000
      13 -> 14         0.69247
 This state for optimization and/or second-order correction.
 Total Energy, E(CIS) =   1.96450854601
 Copying the excited state density for this state as the 1-particle RhoCI density.

 Excited State   2:      Singlet-A      6.8606 eV  180.72 nm  f=0.0108  <S**2>=0.000
      13 -> 15         0.67213
      13 -> 17        -0.16079

 Excited State   3:      Singlet-A      7.1726 eV  172.86 nm  f=0.0013  <S**2>=0.000
      13 -> 16         0.65672
      13 -> 18        -0.18156
      13 -> 19        -0.11548

 Excited State   4:      Singlet-A      7.5066 eV  165.17 nm  f=0.0008  <S**2>=0.000
      12 -> 14         0.69306

 Excited State   5:      Singlet-A      8.3477 eV  148.52 nm  f=0.0017  <S**2>=0.000
      10 -> 14         0.22361
      13 -> 16         0.11252
      13 -> 17        -0.37757
      13 -> 18         0.44787
      13 -> 19        -0.14372
      13 -> 21        -0.22129

 Excited State   6:      Singlet-A      8.3946 eV  147.69 nm  f=0.0053  <S**2>=0.000
      10 -> 14         0.64722
      11 -> 14        -0.13986
      13 -> 18        -0.18633

 Excited State   7:      Singlet-A      8.9179 eV  139.03 nm  f=0.1281  <S**2>=0.000
      10 -> 14         0.14820
      11 -> 14         0.67264

 Excited State   8:      Singlet-A      9.3443 eV  132.68 nm  f=0.0102  <S**2>=0.000
      11 -> 16        -0.18458
      13 -> 15         0.10241
      13 -> 17         0.51770
      13 -> 18         0.39022

 Excited State   9:      Singlet-A      9.7503 eV  127.16 nm  f=0.0004  <S**2>=0.000
      11 -> 15        -0.20729
      11 -> 16        -0.10416
      13 -> 19         0.63640

 Excited State  10:      Singlet-A      9.9109 eV  125.10 nm  f=0.0058  <S**2>=0.000
       9 -> 15         0.10399
       9 -> 16        -0.11778
      10 -> 15        -0.22898
      10 -> 16        -0.21084
      10 -> 17         0.12310
      10 -> 18         0.18844
      12 -> 15         0.31771
      12 -> 16        -0.15723
      12 -> 17        -0.26364
      12 -> 18         0.22744

 Excited State  11:      Singlet-A     10.3335 eV  119.98 nm  f=0.0059  <S**2>=0.000
      11 -> 15         0.53145
      11 -> 16         0.11438
      12 -> 15        -0.26978
      13 -> 16         0.13279
      13 -> 19         0.19008

 Excited State  12:      Singlet-A     10.4127 eV  119.07 nm  f=0.1017  <S**2>=0.000
      10 -> 16        -0.18103
      11 -> 15         0.17287
      11 -> 16         0.11249
      12 -> 15         0.21013
      12 -> 16         0.56261
      12 -> 18        -0.13777

 Excited State  13:      Singlet-A     10.4695 eV  118.42 nm  f=0.0055  <S**2>=0.000
      13 -> 17        -0.11567
      13 -> 18         0.20805
      13 -> 20         0.14181
      13 -> 21         0.63698

 Excited State  14:      Singlet-A     10.5996 eV  116.97 nm  f=0.1618  <S**2>=0.000
      10 -> 15         0.41670
      10 -> 17        -0.12816
      11 -> 15         0.17285
      11 -> 16         0.12595
      12 -> 15         0.37397
      12 -> 16        -0.23373
      12 -> 19         0.13462

 Excited State  15:      Singlet-A     10.6553 eV  116.36 nm  f=0.0816  <S**2>=0.000
      11 -> 15        -0.10068
      11 -> 16         0.33944
      13 -> 20         0.56483
      13 -> 21        -0.13840

 The electronic state is 1-A.
 Alpha  occ. eigenvalues --   -2.00252  -1.25577  -0.99951  -0.90266  -0.84610
 Alpha  occ. eigenvalues --   -0.76952  -0.74565  -0.64475  -0.61496  -0.54063
 Alpha  occ. eigenvalues --   -0.52417  -0.51012  -0.38287
 Alpha virt. eigenvalues --    0.02991   0.10468   0.11728   0.19091   0.19815
 Alpha virt. eigenvalues --    0.21864   0.24605   0.25536   0.31200   0.38706
 Alpha virt. eigenvalues --    0.44802

 Mulliken charges:
               1
     1  C   -0.104902
     2  C   -1.941892
     3  O    3.172298
     4  C   -1.909478
     5  C   -0.099383
     6  H    0.149339
     7  H    0.282641
     8  H    0.304724
     9  H    0.146653
 Sum of Mulliken charges =   0.00000

 Dipole moment (field-independent basis, Debye):
    X=              2.8831    Y=             -9.3202    Z=             -0.3431  Tot=              9.7619
 N-N= 1.054489947729D+02 E-N=-1.702528788820D+02  KE=-1.564548289438D+01
 Orbital energies and kinetic energies (alpha):
                                 1                 2
   1         O                -2.002519         -1.393945
   2         O                -1.255766         -1.036897
   3         O                -0.999505         -0.860808
   4         O                -0.902658         -0.602133
   5         O                -0.846097         -0.699710
   6         O                -0.769522         -0.616437
   7         O                -0.745654         -0.536073

 Normal termination of Gaussian 09 at Tue Dec 15 17:08:52 2015.
