 Gaussian 09, Revision D.01,
 Gaussian 09:  ES64L-G09RevD.01 24-Apr-2013

 ------------------------------------------------------------
 #P AM1(Input,print) CIS(Singlets,NStates=15) pop(full) force
 ------------------------------------------------------------

 -----------------
 AM1-Reparam Input
 -----------------
 Symbolic Z-matrix:
 Charge =  0 Multiplicity = 1

                         Standard orientation:
 ---------------------------------------------------------------------
 Center     Atomic      Atomic             Coordinates (Angstroms)
 Number     Number       Type             X           Y           Z
 ---------------------------------------------------------------------
      1          6           0       -0.257164    1.151475   -0.027852
      2          6           0        0.996723    0.546250   -0.011402
      3          8           0        0.909943   -0.750057    0.005757
      4          6           0       -0.485246   -1.033249   -0.014089
      5          6           0       -1.214787    0.121354    0.032600
      6          1           0       -2.271530    0.189291   -0.054279
      7          1           0       -0.693412   -2.123085    0.015739
      8          1           0        1.950343    0.986965    0.051470
      9          1           0       -0.502104    2.232304    0.065469
 ---------------------------------------------------------------------

 SCF Done:  E(RAM1) =   1.38406402932     A.U. after   13 cycles

 Excitation energies and oscillator strengths:

 Excited State   1:      Singlet-A      6.0803 eV  203.91 nm  f=0.2839  <S**2>=0.000
      13 -> 14         0.67822
      13 -> 15         0.12933
 This state for optimization and/or second-order correction.
 Total Energy, E(CIS) =   1.60751207409
 Copying the excited state density for this state as the 1-particle RhoCI density.

 Excited State   2:      Singlet-A      6.3522 eV  195.18 nm  f=0.0210  <S**2>=0.000
      13 -> 14        -0.14291
      13 -> 15         0.64226
      13 -> 17        -0.17912

 Excited State   3:      Singlet-A      6.7147 eV  184.65 nm  f=0.0009  <S**2>=0.000
      12 -> 15         0.10565
      12 -> 16         0.15150
      13 -> 16         0.65157
      13 -> 21         0.12314

 Excited State   4:      Singlet-A      7.5084 eV  165.13 nm  f=0.0008  <S**2>=0.000
      11 -> 14         0.68239

 Excited State   5:      Singlet-A      7.7267 eV  160.46 nm  f=0.0100  <S**2>=0.000
      13 -> 15         0.14497
      13 -> 17         0.64219
      13 -> 18         0.12742
      13 -> 22        -0.11815

 Excited State   6:      Singlet-A      8.2054 eV  151.10 nm  f=0.0030  <S**2>=0.000
      12 -> 15         0.19085
      13 -> 17        -0.15636
      13 -> 18         0.47167
      13 -> 21        -0.10111
      13 -> 22        -0.41542

 Excited State   7:      Singlet-A      8.3794 eV  147.96 nm  f=0.0027  <S**2>=0.000
      10 -> 14         0.67079
      12 -> 14         0.14314

 Excited State   8:      Singlet-A      8.4712 eV  146.36 nm  f=0.0276  <S**2>=0.000
      10 -> 14        -0.14681
      12 -> 14         0.57763
      13 -> 19         0.33199

 Excited State   9:      Singlet-A      8.7623 eV  141.50 nm  f=0.0062  <S**2>=0.000
      12 -> 15        -0.27207
      13 -> 18         0.46434
      13 -> 21         0.16677
      13 -> 22         0.37253

 Excited State  10:      Singlet-A      8.8534 eV  140.04 nm  f=0.0086  <S**2>=0.000
      12 -> 15         0.39258
      13 -> 20         0.42696
      13 -> 21        -0.18957
      13 -> 22         0.27681

 Excited State  11:      Singlet-A      8.9365 eV  138.74 nm  f=0.0058  <S**2>=0.000
      12 -> 15         0.37864
      12 -> 16        -0.11689
      13 -> 15         0.13977
      13 -> 16        -0.11836
      13 -> 20        -0.25296
      13 -> 21         0.46237

 Excited State  12:      Singlet-A      9.3358 eV  132.81 nm  f=0.1200  <S**2>=0.000
      12 -> 14        -0.22524
      12 -> 16        -0.10325
      13 -> 19         0.43167
      13 -> 20         0.33152
      13 -> 21         0.25317
      13 -> 22        -0.19100

 Excited State  13:      Singlet-A      9.4282 eV  131.50 nm  f=0.1413  <S**2>=0.000
      12 -> 14        -0.24257
      12 -> 15         0.11489
      12 -> 16         0.14985
      13 -> 18         0.11064
      13 -> 19         0.38383
      13 -> 20        -0.31568
      13 -> 21        -0.28725
      13 -> 22         0.18051

 Excited State  14:      Singlet-A      9.7246 eV  127.50 nm  f=0.0319  <S**2>=0.000
       8 -> 15         0.10347
       8 -> 16         0.10815
       9 -> 15         0.13936
      10 -> 15         0.14428
      10 -> 17        -0.15662
      11 -> 16         0.26133
      11 -> 18        -0.12539
      12 -> 16         0.45205
      13 -> 16        -0.13702
      13 -> 20         0.11561
      13 -> 21         0.15880

 Excited State  15:      Singlet-A      9.7682 eV  126.93 nm  f=0.0298  <S**2>=0.000
       8 -> 15        -0.11595
       9 -> 15        -0.12189
      10 -> 17         0.15999
      11 -> 15         0.17290
      11 -> 16        -0.35477
      11 -> 18         0.15921
      12 -> 16         0.38839
      13 -> 16        -0.12545
      13 -> 21         0.10197

 The electronic state is 1-A.
 Alpha  occ. eigenvalues --   -1.89312  -1.18774  -0.94721  -0.78467  -0.77559
 Alpha  occ. eigenvalues --   -0.67242  -0.61759  -0.49946  -0.47452  -0.40375
 Alpha  occ. eigenvalues --   -0.37789  -0.36648  -0.25152
 Alpha virt. eigenvalues --    0.17847   0.20888   0.23026   0.28567   0.30310
 Alpha virt. eigenvalues --    0.30596   0.32998   0.34396   0.36079   0.40932
 Alpha virt. eigenvalues --    0.45928

 Mulliken charges:
               1
     1  C   -0.107490
     2  C   -1.578201
     3  O    2.778764
     4  C   -1.533065
     5  C    0.011004
     6  H    0.060093
     7  H    0.131188
     8  H    0.176314
     9  H    0.061393
 Sum of Mulliken charges =   0.00000

 Dipole moment (field-independent basis, Debye):
    X=              7.6011    Y=             -5.9351    Z=              0.3885  Tot=              9.6516
 N-N= 1.034315913588D+02 E-N=-1.697356753491D+02  KE=-1.585545356786D+01
 Orbital energies and kinetic energies (alpha):
                                 1                 2
   1         O                -1.893118         -1.382485
   2         O                -1.187743         -1.081211
   3         O                -0.947212         -0.863950
   4         O                -0.784668         -0.637645
   5         O                -0.775593         -0.699001
   6         O                -0.672416         -0.619781
   7         O                -0.617594         -0.540242

 Normal termination of Gaussian 09 at Tue Dec 15 17:08:05 2015.
