 Gaussian 09, Revision D.01,
 Gaussian 09:  ES64L-G09RevD.01 24-Apr-2013

 ------------------------------------------------------------
 #P AM1(Input,print) CIS(Singlets,NStates=15) pop(full) force
 ------------------------------------------------------------

 -----------------
 AM1-Reparam Input
 -----------------
 Symbolic Z-matrix:
 Charge =  0 Multiplicity = 1

                         Standard orientation:
 ---------------------------------------------------------------------
 Center     Atomic      Atomic             Coordinates (Angstroms)
 Number     Number       Type             X           Y           Z
 ---------------------------------------------------------------------
      1          6           0       -1.137190    0.380335    0.010335
      2          6           0       -0.696027   -0.885175   -0.005211
      3          8           0        0.690219   -0.967181    0.003865
      4          6           0        1.061751    0.335255   -0.003555
      5          6           0        0.039693    1.178220   -0.013275
      6          1           0        0.091382    2.257813   -0.001811
      7          1           0        2.232895    0.449551    0.037523
      8          1           0       -1.277352   -1.790679   -0.025039
      9          1           0       -2.178041    0.768954    0.028640
 ---------------------------------------------------------------------

 SCF Done:  E(RAM1) =   2.13581458062     A.U. after   13 cycles

 Excitation energies and oscillator strengths:

 Excited State   1:      Singlet-A      5.5116 eV  224.95 nm  f=0.3468  <S**2>=0.000
      13 -> 14         0.69573
 This state for optimization and/or second-order correction.
 Total Energy, E(CIS) =   2.33836196417
 Copying the excited state density for this state as the 1-particle RhoCI density.

 Excited State   2:      Singlet-A      5.8286 eV  212.72 nm  f=0.0007  <S**2>=0.000
      10 -> 15         0.10134
      13 -> 15         0.68384

 Excited State   3:      Singlet-A      6.5511 eV  189.26 nm  f=0.0010  <S**2>=0.000
      10 -> 16        -0.10181
      13 -> 16         0.67330

 Excited State   4:      Singlet-A      7.2424 eV  171.19 nm  f=0.0001  <S**2>=0.000
      12 -> 14         0.70013

 Excited State   5:      Singlet-A      8.0553 eV  153.92 nm  f=0.0057  <S**2>=0.000
      10 -> 14         0.13985
      11 -> 14        -0.21659
      13 -> 17         0.47060
      13 -> 18        -0.33462
      13 -> 19         0.18983
      13 -> 22        -0.21880

 Excited State   6:      Singlet-A      8.1557 eV  152.02 nm  f=0.0064  <S**2>=0.000
      10 -> 14         0.24051
      11 -> 14        -0.40539
      13 -> 17         0.18445
      13 -> 18         0.40586
      13 -> 19        -0.12934
      13 -> 22         0.21068

 Excited State   7:      Singlet-A      8.3240 eV  148.95 nm  f=0.0010  <S**2>=0.000
      10 -> 14        -0.23369
      11 -> 14         0.38655
      13 -> 17         0.45334
      13 -> 18         0.24770

 Excited State   8:      Singlet-A      8.9669 eV  138.27 nm  f=0.0315  <S**2>=0.000
       9 -> 15         0.12835
      10 -> 14         0.49289
      11 -> 14         0.29366
      12 -> 15         0.30652
      13 -> 20        -0.18086

 Excited State   9:      Singlet-A      9.0039 eV  137.70 nm  f=0.0013  <S**2>=0.000
      13 -> 17        -0.11167
      13 -> 18         0.28294
      13 -> 19         0.61193

 Excited State  10:      Singlet-A      9.2530 eV  133.99 nm  f=0.1517  <S**2>=0.000
       9 -> 15         0.14411
       9 -> 16         0.10121
      10 -> 14        -0.23304
      11 -> 14        -0.14800
      12 -> 15         0.52494
      12 -> 16        -0.21457
      12 -> 18         0.11931
      13 -> 20         0.11695

 Excited State  11:      Singlet-A      9.6118 eV  128.99 nm  f=0.0073  <S**2>=0.000
      10 -> 15        -0.38136
      11 -> 15        -0.27258
      13 -> 15         0.11681
      13 -> 18        -0.18728
      13 -> 19         0.17516
      13 -> 21        -0.10044
      13 -> 22         0.40742

 Excited State  12:      Singlet-A      9.6687 eV  128.23 nm  f=0.0127  <S**2>=0.000
      10 -> 15         0.35394
      11 -> 15         0.25844
      13 -> 18        -0.18512
      13 -> 21         0.16960
      13 -> 22         0.46556

 Excited State  13:      Singlet-A      9.7893 eV  126.65 nm  f=0.0240  <S**2>=0.000
       8 -> 15         0.13399
       9 -> 16        -0.10555
      10 -> 15         0.21982
      10 -> 17        -0.12678
      11 -> 15        -0.27027
      11 -> 17         0.18893
      12 -> 15         0.21139
      12 -> 16         0.34862
      12 -> 18        -0.22189
      13 -> 21        -0.15918

 Excited State  14:      Singlet-A      9.8366 eV  126.04 nm  f=0.0799  <S**2>=0.000
      11 -> 15        -0.18590
      13 -> 21         0.62499

 Excited State  15:      Singlet-A     10.0909 eV  122.87 nm  f=0.1572  <S**2>=0.000
      10 -> 14         0.21747
      10 -> 15         0.10374
      11 -> 14         0.13064
      11 -> 15        -0.13914
      12 -> 16        -0.20161
      13 -> 20         0.56898

 The electronic state is 1-A.
 Alpha  occ. eigenvalues --   -1.93118  -1.19995  -0.91993  -0.79582  -0.77848
 Alpha  occ. eigenvalues --   -0.68590  -0.65791  -0.53329  -0.52640  -0.43561
 Alpha  occ. eigenvalues --   -0.43355  -0.40368  -0.27727
 Alpha virt. eigenvalues --    0.13290   0.15587   0.19476   0.26890   0.28309
 Alpha virt. eigenvalues --    0.31035   0.31784   0.32286   0.34232   0.40709
 Alpha virt. eigenvalues --    0.43811

 Mulliken charges:
               1
     1  C   -0.126175
     2  C   -1.878503
     3  O    3.191330
     4  C   -1.848600
     5  C   -0.166026
     6  H    0.151671
     7  H    0.257178
     8  H    0.269778
     9  H    0.149347
 Sum of Mulliken charges =   0.00000

 Dipole moment (field-independent basis, Debye):
    X=              6.8122    Y=             -9.2392    Z=              0.1672  Tot=             11.4803
 N-N= 1.040558486542D+02 E-N=-1.693701502870D+02  KE=-1.531199058489D+01
 Orbital energies and kinetic energies (alpha):
                                 1                 2
   1         O                -1.931179         -1.354868
   2         O                -1.199952         -1.068093
   3         O                -0.919934         -0.887512
   4         O                -0.795819         -0.554392
   5         O                -0.778480         -0.672215
   6         O                -0.685896         -0.590776
   7         O                -0.657914         -0.535198

 Normal termination of Gaussian 09 at Tue Dec 15 17:09:24 2015.
