 Gaussian 09, Revision D.01,
 Gaussian 09:  ES64L-G09RevD.01 24-Apr-2013

 ------------------------------------------------------------
 #P AM1(Input,print) CIS(Singlets,NStates=15) pop(full) force
 ------------------------------------------------------------

 -----------------
 AM1-Reparam Input
 -----------------
 Symbolic Z-matrix:
 Charge =  0 Multiplicity = 1

                         Standard orientation:
 ---------------------------------------------------------------------
 Center     Atomic      Atomic             Coordinates (Angstroms)
 Number     Number       Type             X           Y           Z
 ---------------------------------------------------------------------
      1          6           0        0.620232    1.021634   -0.011508
      2          6           0       -0.753987    0.813278   -0.000132
      3          8           0       -1.092145   -0.443872    0.008531
      4          6           0        0.103143   -1.113403   -0.010312
      5          6           0        1.170354   -0.257542    0.001872
      6          1           0        2.244777   -0.537404    0.008794
      7          1           0        0.078390   -2.216367    0.013477
      8          1           0       -1.523544    1.522542   -0.021462
      9          1           0        1.099085    1.998400    0.051417
 ---------------------------------------------------------------------

 SCF Done:  E(RAM1) =  0.242508458221E-01 A.U. after   14 cycles

 Excitation energies and oscillator strengths:

 Excited State   1:      Singlet-A      4.2732 eV  290.15 nm  f=0.0961  <S**2>=0.000
      12 -> 15        -0.17873
      13 -> 14         0.67648
 This state for optimization and/or second-order correction.
 Total Energy, E(CIS) =  0.181286279436
 Copying the excited state density for this state as the 1-particle RhoCI density.

 Excited State   2:      Singlet-A      4.7439 eV  261.36 nm  f=0.0004  <S**2>=0.000
      13 -> 16         0.67984
      13 -> 22        -0.14769

 Excited State   3:      Singlet-A      4.9255 eV  251.72 nm  f=0.0197  <S**2>=0.000
      12 -> 14         0.36029
      13 -> 15         0.59820

 Excited State   4:      Singlet-A      5.6981 eV  217.59 nm  f=0.0014  <S**2>=0.000
      12 -> 17        -0.11880
      12 -> 20        -0.14681
      13 -> 17         0.49204
      13 -> 18        -0.23633
      13 -> 20         0.29735
      13 -> 22         0.10694
      13 -> 23         0.18397

 Excited State   5:      Singlet-A      5.9595 eV  208.04 nm  f=0.0018  <S**2>=0.000
      12 -> 16         0.12199
      12 -> 17         0.16003
      12 -> 19         0.11866
      12 -> 21        -0.12392
      12 -> 23         0.10408
      13 -> 17         0.24929
      13 -> 18         0.13461
      13 -> 19         0.40309
      13 -> 20        -0.24952
      13 -> 21        -0.20216
      13 -> 22        -0.14644
      13 -> 23         0.14997

 Excited State   6:      Singlet-A      6.2807 eV  197.40 nm  f=0.3462  <S**2>=0.000
      12 -> 14         0.55104
      12 -> 16         0.17802
      13 -> 15        -0.32842

 Excited State   7:      Singlet-A      6.3155 eV  196.32 nm  f=0.0310  <S**2>=0.000
       7 -> 16        -0.16343
      12 -> 14        -0.15960
      12 -> 16         0.61130
      12 -> 22        -0.13697
      13 -> 19        -0.11665

 Excited State   8:      Singlet-A      6.4930 eV  190.95 nm  f=0.0033  <S**2>=0.000
      12 -> 19         0.10136
      13 -> 17         0.12029
      13 -> 18         0.56428
      13 -> 19        -0.29209
      13 -> 23         0.14237

 Excited State   9:      Singlet-A      6.5372 eV  189.66 nm  f=0.1453  <S**2>=0.000
      12 -> 15         0.66917
      13 -> 14         0.16373

 Excited State  10:      Singlet-A      7.0098 eV  176.87 nm  f=0.0018  <S**2>=0.000
       9 -> 14        -0.18277
      11 -> 14         0.55516
      11 -> 15         0.30172
      12 -> 18         0.10263
      13 -> 22         0.13765

 Excited State  11:      Singlet-A      7.0935 eV  174.78 nm  f=0.0002  <S**2>=0.000
      11 -> 14        -0.13177
      12 -> 17        -0.10490
      12 -> 18         0.33712
      12 -> 19        -0.20819
      12 -> 21         0.10026
      13 -> 18         0.17572
      13 -> 19         0.33210
      13 -> 20         0.17459
      13 -> 22         0.27848
      13 -> 23        -0.10915

 Excited State  12:      Singlet-A      7.2680 eV  170.59 nm  f=0.0021  <S**2>=0.000
       9 -> 14        -0.24235
      10 -> 14         0.48546
      10 -> 15        -0.34771
      12 -> 18         0.12703
      13 -> 24         0.11184

 Excited State  13:      Singlet-A      7.3633 eV  168.38 nm  f=0.0003  <S**2>=0.000
       9 -> 14         0.10300
      10 -> 14        -0.15059
      12 -> 17         0.27535
      12 -> 18         0.21390
      12 -> 19         0.21818
      12 -> 20        -0.14932
      12 -> 21         0.10867
      12 -> 22        -0.11652
      12 -> 23         0.14348
      13 -> 17        -0.18045
      13 -> 18        -0.11235
      13 -> 19        -0.19142
      13 -> 21        -0.26064
      13 -> 22         0.14213
      13 -> 24         0.18966

 Excited State  14:      Singlet-A      7.5175 eV  164.93 nm  f=0.0000  <S**2>=0.000
      12 -> 17         0.36877
      12 -> 18        -0.20121
      12 -> 20         0.10422
      12 -> 21        -0.10623
      12 -> 22         0.10925
      13 -> 22         0.45874
      13 -> 24        -0.11596

 Excited State  15:      Singlet-A      7.5306 eV  164.64 nm  f=0.0059  <S**2>=0.000
      11 -> 14         0.10031
      12 -> 17         0.15768
      12 -> 19        -0.25821
      12 -> 21         0.22341
      12 -> 22         0.18759
      12 -> 23         0.17023
      13 -> 17         0.27956
      13 -> 19        -0.15995
      13 -> 21        -0.11660
      13 -> 22        -0.15353
      13 -> 23        -0.26659
      13 -> 24        -0.16904

 The electronic state is 1-A.
 Alpha  occ. eigenvalues --   -1.59513  -1.25194  -1.08813  -0.82815  -0.81698
 Alpha  occ. eigenvalues --   -0.69020  -0.61763  -0.56588  -0.51995  -0.49645
 Alpha  occ. eigenvalues --   -0.49352  -0.39823  -0.33909
 Alpha virt. eigenvalues --    0.03033   0.06494   0.09822   0.14282   0.14600
 Alpha virt. eigenvalues --    0.15579   0.17758   0.18234   0.18731   0.20797
 Alpha virt. eigenvalues --    0.22512

 Mulliken charges:
               1
     1  C   -0.222629
     2  C   -0.113914
     3  O   -0.025037
     4  C   -0.151773
     5  C   -0.177842
     6  H    0.165005
     7  H    0.188097
     8  H    0.176056
     9  H    0.162036
 Sum of Mulliken charges =   0.00000

 Dipole moment (field-independent basis, Debye):
    X=              0.3188    Y=              0.0720    Z=              0.0721  Tot=              0.3347
 N-N= 1.037837884079D+02 E-N=-1.715165077851D+02  KE=-1.660002827145D+01
 Orbital energies and kinetic energies (alpha):
                                 1                 2
   1         O                -1.595135         -1.328841
   2         O                -1.251935         -1.065487
   3         O                -1.088130         -0.949510
   4         O                -0.828150         -0.703833
   5         O                -0.816976         -0.721840
   6         O                -0.690198         -0.604241
   7         O                -0.617629         -0.494356

 Normal termination of Gaussian 09 at Tue Dec 15 16:23:03 2015.
