 Gaussian 09, Revision D.01,
 Gaussian 09:  ES64L-G09RevD.01 24-Apr-2013

 ------------------------------------------------------------
 #P AM1(Input,print) CIS(Singlets,NStates=15) pop(full) force
 ------------------------------------------------------------

 -----------------
 AM1-Reparam Input
 -----------------
 Symbolic Z-matrix:
 Charge =  0 Multiplicity = 1

                         Standard orientation:
 ---------------------------------------------------------------------
 Center     Atomic      Atomic             Coordinates (Angstroms)
 Number     Number       Type             X           Y           Z
 ---------------------------------------------------------------------
      1          6           0       -0.580822    0.998465   -0.038253
      2          6           0       -1.094022   -0.221458    0.050986
      3          8           0       -0.151048   -1.125212   -0.037750
      4          6           0        1.033067   -0.491337    0.032976
      5          6           0        0.801596    0.893040    0.012313
      6          1           0        1.655578    1.614624   -0.044816
      7          1           0        1.897739   -1.124745   -0.014281
      8          1           0       -2.165750   -0.502364   -0.007960
      9          1           0       -1.138090    1.941924    0.020924
 ---------------------------------------------------------------------

 SCF Done:  E(RAM1) =   1.07990874003     A.U. after   14 cycles

 Excitation energies and oscillator strengths:

 Excited State   1:      Singlet-A      5.7578 eV  215.33 nm  f=0.1905  <S**2>=0.000
      12 -> 16         0.11030
      13 -> 14         0.67584
 This state for optimization and/or second-order correction.
 Total Energy, E(CIS) =   1.29150344994
 Copying the excited state density for this state as the 1-particle RhoCI density.

 Excited State   2:      Singlet-A      6.6161 eV  187.40 nm  f=0.0068  <S**2>=0.000
      13 -> 15         0.66917
      13 -> 17         0.12482
      13 -> 19        -0.10822

 Excited State   3:      Singlet-A      7.1884 eV  172.48 nm  f=0.0003  <S**2>=0.000
      12 -> 15        -0.12530
      13 -> 15        -0.11230
      13 -> 16        -0.38079
      13 -> 17         0.51877
      13 -> 18        -0.11849
      13 -> 21         0.16849

 Excited State   4:      Singlet-A      7.2624 eV  170.72 nm  f=0.0055  <S**2>=0.000
      12 -> 14         0.54153
      13 -> 16        -0.36906
      13 -> 17        -0.22130

 Excited State   5:      Singlet-A      7.4865 eV  165.61 nm  f=0.0013  <S**2>=0.000
       9 -> 14         0.15289
      10 -> 14        -0.23679
      11 -> 14         0.63365

 Excited State   6:      Singlet-A      7.7907 eV  159.14 nm  f=0.0020  <S**2>=0.000
       9 -> 14         0.15921
      10 -> 14         0.64225
      11 -> 14         0.21172

 Excited State   7:      Singlet-A      8.2234 eV  150.77 nm  f=0.2219  <S**2>=0.000
      12 -> 14         0.41036
      12 -> 15         0.13223
      13 -> 16         0.37766
      13 -> 17         0.30670
      13 -> 18        -0.13817

 Excited State   8:      Singlet-A      8.2702 eV  149.92 nm  f=0.0222  <S**2>=0.000
      12 -> 14        -0.11862
      12 -> 15         0.52866
      12 -> 17         0.12623
      13 -> 16        -0.13385
      13 -> 18        -0.33440
      13 -> 23        -0.10373

 Excited State   9:      Singlet-A      8.5299 eV  145.35 nm  f=0.0032  <S**2>=0.000
      12 -> 15         0.34593
      13 -> 17         0.13685
      13 -> 18         0.54425
      13 -> 23         0.12472

 Excited State  10:      Singlet-A      8.8389 eV  140.27 nm  f=0.0221  <S**2>=0.000
       9 -> 15        -0.17617
       9 -> 16         0.11885
       9 -> 17         0.12587
      10 -> 16        -0.14450
      11 -> 15         0.39074
      11 -> 16        -0.35208
      11 -> 17        -0.19939
      12 -> 17        -0.18008

 Excited State  11:      Singlet-A      8.8879 eV  139.50 nm  f=0.0014  <S**2>=0.000
      11 -> 16        -0.12919
      12 -> 15        -0.14948
      12 -> 16        -0.36378
      12 -> 17         0.44578
      13 -> 19        -0.28567

 Excited State  12:      Singlet-A      8.9986 eV  137.78 nm  f=0.0083  <S**2>=0.000
      11 -> 16         0.14946
      11 -> 17         0.13875
      12 -> 16        -0.15719
      13 -> 19         0.25023
      13 -> 20         0.54509
      13 -> 22         0.14738

 Excited State  13:      Singlet-A      9.0505 eV  136.99 nm  f=0.1729  <S**2>=0.000
       8 -> 15         0.10849
       9 -> 14         0.12323
       9 -> 16         0.12895
      12 -> 16         0.47396
      12 -> 17         0.34649
      13 -> 14        -0.12684
      13 -> 20         0.12465

 Excited State  14:      Singlet-A      9.2330 eV  134.28 nm  f=0.0369  <S**2>=0.000
       9 -> 15        -0.20292
       9 -> 16        -0.11519
      10 -> 15        -0.18609
      10 -> 19         0.10037
      11 -> 15         0.39071
      11 -> 16         0.21668
      11 -> 17         0.18698
      12 -> 16         0.12071
      12 -> 17         0.19236
      13 -> 20        -0.18652

 Excited State  15:      Singlet-A      9.3111 eV  133.16 nm  f=0.0135  <S**2>=0.000
       9 -> 14         0.22626
       9 -> 17        -0.14445
      10 -> 15         0.37200
      10 -> 16        -0.12979
      10 -> 17         0.28690
      10 -> 19        -0.17936
      11 -> 15         0.11392
      11 -> 16         0.11777
      11 -> 18         0.17886
      12 -> 16        -0.11292
      12 -> 17        -0.10159

 The electronic state is 1-A.
 Alpha  occ. eigenvalues --   -1.85727  -1.20541  -0.99502  -0.87904  -0.80438
 Alpha  occ. eigenvalues --   -0.74157  -0.72503  -0.60931  -0.55527  -0.51217
 Alpha  occ. eigenvalues --   -0.50212  -0.47049  -0.39454
 Alpha virt. eigenvalues --    0.03686   0.09224   0.11092   0.11335   0.17963
 Alpha virt. eigenvalues --    0.18537   0.20406   0.21152   0.26656   0.27471
 Alpha virt. eigenvalues --    0.28996

 Mulliken charges:
               1
     1  C   -0.149476
     2  C   -1.293811
     3  O    2.168320
     4  C   -1.286472
     5  C   -0.105508
     6  H    0.117951
     7  H    0.196166
     8  H    0.231571
     9  H    0.121259
 Sum of Mulliken charges =   0.00000

 Dipole moment (field-independent basis, Debye):
    X=             -1.3011    Y=             -6.6383    Z=             -0.8241  Tot=              6.8146
 N-N= 1.049191896940D+02 E-N=-1.721382963545D+02  KE=-1.503705004477D+01
 Orbital energies and kinetic energies (alpha):
                                 1                 2
   1         O                -1.857273         -1.278616
   2         O                -1.205411         -0.975107
   3         O                -0.995018         -0.803707
   4         O                -0.879045         -0.636815
   5         O                -0.804378         -0.664233
   6         O                -0.741571         -0.570749
   7         O                -0.725025         -0.547795

 Normal termination of Gaussian 09 at Tue Dec 15 17:05:43 2015.
