 Gaussian 09, Revision D.01,
 Gaussian 09:  ES64L-G09RevD.01 24-Apr-2013

 --------------------
 #P B3LYP/cc-pVDZ opt
 --------------------

 --------
 FuranDFT
 --------
 Symbolic Z-matrix:
 Charge =  0 Multiplicity = 1

 SCF Done:  E(RB3LYP) =  -230.036429850     A.U. after   13 cycles
 SCF Done:  E(RB3LYP) =  -230.037000393     A.U. after   10 cycles
 SCF Done:  E(RB3LYP) =  -230.037005516     A.U. after    8 cycles
 Optimization completed.
    -- Stationary point found.

                         Standard orientation:
 ---------------------------------------------------------------------
 Center     Atomic      Atomic             Coordinates (Angstroms)
 Number     Number       Type             X           Y           Z
 ---------------------------------------------------------------------
      1          6           0        0.000000    0.719103   -0.961902
      2          6           0        0.000000    1.095389    0.349319
      3          8           0        0.000000    0.000000    1.161761
      4          6           0        0.000000   -1.095389    0.349319
      5          6           0        0.000000   -0.719103   -0.961902
      6          1           0        0.000000   -1.380235   -1.824827
      7          1           0        0.000000   -2.057119    0.853280
      8          1           0        0.000000    2.057119    0.853280
      9          1           0        0.000000    1.380235   -1.824827
 ---------------------------------------------------------------------

 The electronic state is 1-A1.
 Alpha  occ. eigenvalues --  -19.20642 -10.23418 -10.23417 -10.18766 -10.18733
 Alpha  occ. eigenvalues --   -1.10966  -0.79746  -0.74353  -0.59670  -0.56693
 Alpha  occ. eigenvalues --   -0.53813  -0.44722  -0.44321  -0.40901  -0.39629
 Alpha  occ. eigenvalues --   -0.37080  -0.27884  -0.23027
 Alpha virt. eigenvalues --    0.01089   0.06694   0.07871   0.10790   0.10810
 Alpha virt. eigenvalues --    0.12081   0.16891   0.19269   0.28102   0.34227
 Alpha virt. eigenvalues --    0.38734   0.39085   0.46423   0.47470   0.47809

 Mulliken charges:
               1
     1  C   -0.014824
     2  C    0.121792
     3  O   -0.164842
     4  C    0.121792
     5  C   -0.014824
     6  H   -0.022617
     7  H   -0.001930
     8  H   -0.001930
     9  H   -0.022617
 Sum of Mulliken charges =   0.00000

 Dipole moment (field-independent basis, Debye):
    X=              0.0000    Y=              0.0000    Z=             -0.5111  Tot=              0.5111
 Quadrupole moment (field-independent basis, Debye-Ang):
   XX=            -31.4141   YY=            -24.2143   ZZ=            -27.8248
   XY=              0.0000   XZ=              0.0000   YZ=              0.0000

 Normal termination of Gaussian 09 at Tue Dec  1 15:48:21 2015.
