 Gaussian 09, Revision D.01,
 Gaussian 09:  ES64L-G09RevD.01 24-Apr-2013

 ------------------------------------------------------------
 #P AM1(Input,print) CIS(Singlets,NStates=15) pop(full) force
 ------------------------------------------------------------

 -----------------
 AM1-Reparam Input
 -----------------
 Symbolic Z-matrix:
 Charge =  0 Multiplicity = 1

                         Standard orientation:
 ---------------------------------------------------------------------
 Center     Atomic      Atomic             Coordinates (Angstroms)
 Number     Number       Type             X           Y           Z
 ---------------------------------------------------------------------
      1          6           0        0.000000    0.715963   -0.955475
      2          6           0        0.000000    1.092818    0.345627
      3          8           0        0.000000    0.000000    1.157305
      4          6           0        0.000000   -1.092818    0.345627
      5          6           0        0.000000   -0.715963   -0.955475
      6          1           0        0.000000   -1.369382   -1.810438
      7          1           0        0.000000   -2.046884    0.840307
      8          1           0        0.000000    2.046884    0.840307
      9          1           0        0.000000    1.369382   -1.810438
 ---------------------------------------------------------------------

 SCF Done:  E(RAM1) =  0.108592571981E-01 A.U. after   13 cycles

 Excitation energies and oscillator strengths:

 Excited State   1:      Singlet-B2     4.4939 eV  275.89 nm  f=0.0862  <S**2>=0.000
      12 -> 15        -0.20672
      13 -> 14         0.66913
 This state for optimization and/or second-order correction.
 Total Energy, E(CIS) =  0.176008016876
 Copying the excited state density for this state as the 1-particle RhoCI density.

 Excited State   2:      Singlet-A2     5.0500 eV  245.51 nm  f=0.0000  <S**2>=0.000
      13 -> 16         0.68817
      13 -> 22        -0.11763

 Excited State   3:      Singlet-A1     5.0975 eV  243.23 nm  f=0.0070  <S**2>=0.000
      12 -> 14         0.42227
      13 -> 15         0.56290

 Excited State   4:      Singlet-B1     5.9955 eV  206.80 nm  f=0.0025  <S**2>=0.000
       7 -> 16        -0.11656
      12 -> 16         0.46583
      12 -> 22        -0.20762
      13 -> 17         0.17882
      13 -> 18        -0.36003
      13 -> 23        -0.17387

 Excited State   5:      Singlet-B1     6.0480 eV  205.00 nm  f=0.0000  <S**2>=0.000
       7 -> 16        -0.14878
      12 -> 16         0.45932
      12 -> 19         0.17927
      12 -> 21        -0.13385
      13 -> 17        -0.17481
      13 -> 18         0.33960
      13 -> 23         0.22256

 Excited State   6:      Singlet-A2     6.0821 eV  203.85 nm  f=0.0000  <S**2>=0.000
      12 -> 17        -0.11439
      12 -> 18         0.23616
      12 -> 23         0.15040
      13 -> 19         0.45524
      13 -> 21        -0.26557
      13 -> 22         0.32133

 Excited State   7:      Singlet-A1     6.2701 eV  197.74 nm  f=0.4036  <S**2>=0.000
       9 -> 16        -0.12570
      12 -> 14         0.53144
      13 -> 15        -0.40609

 Excited State   8:      Singlet-B2     6.4246 eV  192.98 nm  f=0.1301  <S**2>=0.000
      12 -> 15         0.66741
      13 -> 14         0.19313

 Excited State   9:      Singlet-B1     6.5273 eV  189.95 nm  f=0.0006  <S**2>=0.000
      12 -> 19        -0.10598
      13 -> 17         0.56205
      13 -> 18         0.36775
      13 -> 23        -0.10053

 Excited State  10:      Singlet-A2     7.0589 eV  175.64 nm  f=0.0000  <S**2>=0.000
      12 -> 17         0.40524
      12 -> 18         0.40035
      12 -> 20         0.22237
      12 -> 23        -0.12798
      13 -> 19        -0.25304
      13 -> 22         0.17371

 Excited State  11:      Singlet-B1     7.2028 eV  172.13 nm  f=0.0020  <S**2>=0.000
       9 -> 14         0.51162
      10 -> 15        -0.30439
      11 -> 14         0.32917

 Excited State  12:      Singlet-A2     7.4165 eV  167.17 nm  f=0.0000  <S**2>=0.000
       8 -> 14         0.11047
       9 -> 15        -0.13640
      10 -> 14         0.51527
      11 -> 15        -0.38941
      13 -> 22         0.14632

 Excited State  13:      Singlet-A2     7.4905 eV  165.52 nm  f=0.0000  <S**2>=0.000
       9 -> 15        -0.14321
      10 -> 14         0.19272
      12 -> 17         0.30706
      12 -> 18        -0.26198
      12 -> 20         0.27001
      12 -> 23        -0.17602
      13 -> 19         0.34659
      13 -> 21         0.16343

 Excited State  14:      Singlet-B1     7.5862 eV  163.43 nm  f=0.0002  <S**2>=0.000
       9 -> 14        -0.14178
      12 -> 19         0.38235
      12 -> 22         0.25816
      13 -> 17         0.20866
      13 -> 18        -0.25475
      13 -> 20         0.27385
      13 -> 24        -0.26265

 Excited State  15:      Singlet-A2     7.6563 eV  161.94 nm  f=0.0000  <S**2>=0.000
      11 -> 15         0.10951
      12 -> 17         0.10553
      12 -> 18        -0.30195
      12 -> 20        -0.14752
      13 -> 16         0.10392
      13 -> 19        -0.15489
      13 -> 21         0.11860
      13 -> 22         0.52897

 The electronic state is 1-A1.
 Alpha  occ. eigenvalues --   -1.56990  -1.23725  -1.10195  -0.82517  -0.81473
 Alpha  occ. eigenvalues --   -0.68658  -0.60371  -0.56598  -0.50775  -0.50730
 Alpha  occ. eigenvalues --   -0.49860  -0.39473  -0.34779
 Alpha virt. eigenvalues --    0.03154   0.06415   0.09836   0.14070   0.14951
 Alpha virt. eigenvalues --    0.15335   0.18077   0.18272   0.18989   0.20723
 Alpha virt. eigenvalues --    0.22421

 Mulliken charges:
               1
     1  C   -0.203139
     2  C   -0.101729
     3  O   -0.080849
     4  C   -0.101729
     5  C   -0.203139
     6  H    0.158886
     7  H    0.186407
     8  H    0.186407
     9  H    0.158886
 Sum of Mulliken charges =   0.00000

 Dipole moment (field-independent basis, Debye):
    X=              0.0000    Y=              0.0000    Z=             -0.3564  Tot=              0.3564
 N-N= 1.035746410221D+02 E-N=-1.712317603752D+02  KE=-1.657292780719D+01
 Symmetry A1   KE=-9.064385644944D+00
 Symmetry A2   KE=-6.266794402904D-01
 Symmetry B1   KE=-1.660398779162D+00
 Symmetry B2   KE=-5.221463942793D+00
 Orbital energies and kinetic energies (alpha):
                                 1                 2
   1         (A1)--O          -1.569898         -1.317259
   2         (A1)--O          -1.237254         -1.050994
   3         (B2)--O          -1.101948         -0.962231

 Normal termination of Gaussian 09 at Tue Oct  6 11:16:56 2015.
