 Gaussian 09, Revision D.01,
 Gaussian 09:  ES64L-G09RevD.01 24-Apr-2013

 ------------------------------------------------------------
 #P AM1(Input,print) CIS(Singlets,NStates=15) pop(full) force
 ------------------------------------------------------------

 -----------------
 AM1-Reparam Input
 -----------------
 Symbolic Z-matrix:
 Charge =  0 Multiplicity = 1

                         Standard orientation:
 ---------------------------------------------------------------------
 Center     Atomic      Atomic             Coordinates (Angstroms)
 Number     Number       Type             X           Y           Z
 ---------------------------------------------------------------------
      1          6           0       -1.032729    0.572104    0.000414
      2          6           0       -0.867807   -0.779098    0.021517
      3          8           0        0.523989   -1.052383   -0.018254
      4          6           0        1.173568    0.160036    0.029286
      5          6           0        0.178627    1.165936   -0.031989
      6          1           0        0.403013    2.173500    0.036660
      7          1           0        2.222840    0.172623    0.001934
      8          1           0       -1.443409   -1.672987   -0.025621
      9          1           0       -2.084308    1.032058    0.017688
 ---------------------------------------------------------------------

 SCF Done:  E(RAM1) =   1.11630506258     A.U. after   14 cycles

 Excitation energies and oscillator strengths:

 Excited State   1:      Singlet-A      5.8233 eV  212.91 nm  f=0.1429  <S**2>=0.000
      12 -> 15        -0.18154
      13 -> 14         0.66401
 This state for optimization and/or second-order correction.
 Total Energy, E(CIS) =   1.33030690705
 Copying the excited state density for this state as the 1-particle RhoCI density.

 Excited State   2:      Singlet-A      6.6413 eV  186.69 nm  f=0.0054  <S**2>=0.000
      13 -> 15        -0.23283
      13 -> 16         0.63810
      13 -> 19         0.11361

 Excited State   3:      Singlet-A      6.8970 eV  179.77 nm  f=0.0141  <S**2>=0.000
      12 -> 14         0.36216
      13 -> 15         0.54227
      13 -> 16         0.23268

 Excited State   4:      Singlet-A      7.4373 eV  166.71 nm  f=0.0002  <S**2>=0.000
      12 -> 16         0.16923
      13 -> 17         0.64485
      13 -> 21         0.15273

 Excited State   5:      Singlet-A      7.6067 eV  162.99 nm  f=0.0034  <S**2>=0.000
      10 -> 14         0.29803
      11 -> 14         0.60451
      11 -> 15         0.12699

 Excited State   6:      Singlet-A      7.7812 eV  159.34 nm  f=0.0032  <S**2>=0.000
       9 -> 14         0.17210
      10 -> 14         0.60518
      11 -> 14        -0.28849

 Excited State   7:      Singlet-A      7.9522 eV  155.91 nm  f=0.2135  <S**2>=0.000
      11 -> 14         0.10359
      11 -> 16         0.12125
      12 -> 14         0.57625
      13 -> 15        -0.32519

 Excited State   8:      Singlet-A      8.2118 eV  150.98 nm  f=0.0613  <S**2>=0.000
      10 -> 15         0.10287
      11 -> 15        -0.11502
      12 -> 15        -0.36479
      12 -> 16         0.50089
      13 -> 17        -0.10686
      13 -> 18        -0.12674

 Excited State   9:      Singlet-A      8.2989 eV  149.40 nm  f=0.0172  <S**2>=0.000
       9 -> 15         0.21690
      10 -> 14        -0.12621
      10 -> 15        -0.39295
      11 -> 15         0.44305
      12 -> 16         0.21656

 Excited State  10:      Singlet-A      8.4002 eV  147.60 nm  f=0.2077  <S**2>=0.000
      10 -> 15         0.10928
      11 -> 15        -0.11053
      12 -> 15         0.54420
      12 -> 16         0.32137
      13 -> 14         0.13650

 Excited State  11:      Singlet-A      8.5454 eV  145.09 nm  f=0.0011  <S**2>=0.000
      12 -> 17        -0.12735
      13 -> 18         0.46350
      13 -> 19         0.47121
      13 -> 23         0.12489

 Excited State  12:      Singlet-A      8.6815 eV  142.81 nm  f=0.0009  <S**2>=0.000
      12 -> 16        -0.17442
      13 -> 17         0.12088
      13 -> 18        -0.33405
      13 -> 19         0.38382
      13 -> 20         0.37274
      13 -> 24         0.16713

 Excited State  13:      Singlet-A      9.0493 eV  137.01 nm  f=0.0017  <S**2>=0.000
      12 -> 17         0.58158
      13 -> 18         0.24040
      13 -> 20         0.21615

 Excited State  14:      Singlet-A      9.2630 eV  133.85 nm  f=0.1012  <S**2>=0.000
       9 -> 16        -0.15477
       9 -> 17         0.14358
      10 -> 16         0.52701
      10 -> 20        -0.18275
      11 -> 16         0.12496
      11 -> 18        -0.21449
      13 -> 14         0.11142

 Excited State  15:      Singlet-A      9.4161 eV  131.67 nm  f=0.1424  <S**2>=0.000
       9 -> 16         0.16861
       9 -> 17         0.12157
      10 -> 16        -0.19073
      10 -> 17         0.17024
      10 -> 19        -0.12263
      11 -> 16         0.48161
      11 -> 17         0.19775
      11 -> 18        -0.14632

 The electronic state is 1-A.
 Alpha  occ. eigenvalues --   -1.80086  -1.19893  -0.97629  -0.86453  -0.81803
 Alpha  occ. eigenvalues --   -0.73456  -0.70337  -0.60926  -0.56890  -0.50788
 Alpha  occ. eigenvalues --   -0.49956  -0.46332  -0.39466
 Alpha virt. eigenvalues --    0.04360   0.08072   0.10091   0.12408   0.17888
 Alpha virt. eigenvalues --    0.18993   0.19281   0.21694   0.25864   0.26660
 Alpha virt. eigenvalues --    0.27958

 Mulliken charges:
               1
     1  C   -0.102534
     2  C   -1.240744
     3  O    2.137993
     4  C   -1.255381
     5  C   -0.143163
     6  H    0.108724
     7  H    0.192219
     8  H    0.177223
     9  H    0.125664
 Sum of Mulliken charges =   0.00000

 Dipole moment (field-independent basis, Debye):
    X=              3.0956    Y=             -6.5026    Z=             -0.4217  Tot=              7.2142
 N-N= 1.039486849499D+02 E-N=-1.704515614445D+02  KE=-1.493290901788D+01
 Orbital energies and kinetic energies (alpha):
                                 1                 2
   1         O                -1.800855         -1.210091
   2         O                -1.198932         -0.979593
   3         O                -0.976287         -0.813905
   4         O                -0.864533         -0.627193
   5         O                -0.818025         -0.663934
   6         O                -0.734557         -0.608496
   7         O                -0.703374         -0.511714

 Normal termination of Gaussian 09 at Tue Dec 15 17:05:44 2015.
