 Gaussian 09, Revision D.01,
 Gaussian 09:  ES64L-G09RevD.01 24-Apr-2013

 -------------------------------------------------------
 #P B3LYP/3-21G CIS(Singlets,NStates=15) pop(full) force
 -------------------------------------------------------

 --------
 FuranDFT
 --------
 Symbolic Z-matrix:
 Charge =  0 Multiplicity = 1

                         Standard orientation:
 ---------------------------------------------------------------------
 Center     Atomic      Atomic             Coordinates (Angstroms)
 Number     Number       Type             X           Y           Z
 ---------------------------------------------------------------------
      1          6           0        0.757171    0.896867   -0.007864
      2          6           0        1.115852   -0.438017   -0.018797
      3          8           0       -0.113448   -1.144788    0.022470
      4          6           0       -1.135647   -0.256853   -0.027972
      5          6           0       -0.613125    0.984238    0.020463
      6          1           0       -1.228986    1.966866   -0.028794
      7          1           0       -2.111270   -0.674049    0.012461
      8          1           0        1.989501   -0.939612   -0.011258
      9          1           0        1.512834    1.687690    0.052856
 ---------------------------------------------------------------------

 SCF Done:  E(RB3LYP) =  -228.736809916     A.U. after   14 cycles

 Excitation energies and oscillator strengths:

 Excited State   1:      Singlet-A      7.0852 eV  174.99 nm  f=0.1892  <S**2>=0.000
      17 -> 19         0.24390
      18 -> 19         0.61048
      18 -> 20         0.18553
 This state for optimization and/or second-order correction.
 Total Energy, E(CIS) =  -228.476433609
 Copying the excited state density for this state as the 1-particle RhoCI density.

 Excited State   2:      Singlet-A      7.2920 eV  170.03 nm  f=0.0531  <S**2>=0.000
      17 -> 19         0.47868
      18 -> 19        -0.29916
      18 -> 20         0.40493

 Excited State   3:      Singlet-A      8.1796 eV  151.58 nm  f=0.0042  <S**2>=0.000
      18 -> 20        -0.13114
      18 -> 21         0.67746

 Excited State   4:      Singlet-A      8.2541 eV  150.21 nm  f=0.0034  <S**2>=0.000
      16 -> 19         0.69624

 Excited State   5:      Singlet-A      9.0059 eV  137.67 nm  f=0.0032  <S**2>=0.000
      18 -> 22         0.68463

 Excited State   6:      Singlet-A      9.4717 eV  130.90 nm  f=0.0312  <S**2>=0.000
      17 -> 20        -0.32550
      17 -> 21         0.59738

 Excited State   7:      Singlet-A      9.6392 eV  128.63 nm  f=0.2634  <S**2>=0.000
      15 -> 19         0.44063
      16 -> 20        -0.11746
      17 -> 19        -0.28937
      17 -> 21        -0.15135
      18 -> 20         0.35909

 Excited State   8:      Singlet-A      9.7071 eV  127.73 nm  f=0.2220  <S**2>=0.000
      15 -> 19         0.51411
      17 -> 19         0.26170
      18 -> 20        -0.31019
      18 -> 21        -0.11387

 Excited State   9:      Singlet-A      9.9556 eV  124.54 nm  f=0.1506  <S**2>=0.000
      17 -> 20         0.54491
      17 -> 21         0.24211
      18 -> 23        -0.23813
      18 -> 24        -0.18286

 Excited State  10:      Singlet-A     10.0362 eV  123.54 nm  f=0.0227  <S**2>=0.000
      14 -> 19        -0.15274
      17 -> 20         0.18028
      17 -> 21         0.17896
      17 -> 22        -0.15310
      18 -> 23         0.17057
      18 -> 24         0.58761

 Excited State  11:      Singlet-A     10.0819 eV  122.98 nm  f=0.0155  <S**2>=0.000
      14 -> 19         0.27063
      17 -> 20         0.11394
      18 -> 23         0.60070
      18 -> 24        -0.17359

 Excited State  12:      Singlet-A     10.2665 eV  120.77 nm  f=0.0043  <S**2>=0.000
      14 -> 19         0.59903
      16 -> 20         0.13259
      17 -> 22         0.10722
      18 -> 23        -0.19317
      18 -> 24         0.24918

 Excited State  13:      Singlet-A     10.3322 eV  120.00 nm  f=0.0137  <S**2>=0.000
      14 -> 19        -0.12074
      17 -> 22         0.66909

 Excited State  14:      Singlet-A     10.6102 eV  116.85 nm  f=0.0076  <S**2>=0.000
      14 -> 19        -0.14977
      15 -> 19         0.13037
      16 -> 20         0.66292

 Excited State  15:      Singlet-A     10.7468 eV  115.37 nm  f=0.0021  <S**2>=0.000
      18 -> 25         0.68405

 The electronic state is 1-A.
 Alpha  occ. eigenvalues --  -19.10634 -10.17394 -10.17145 -10.12621 -10.12494
 Alpha  occ. eigenvalues --   -1.11080  -0.80741  -0.74877  -0.59092  -0.58669
 Alpha  occ. eigenvalues --   -0.53380  -0.46119  -0.44029  -0.41715  -0.39569
 Alpha  occ. eigenvalues --   -0.35052  -0.28034  -0.23032
 Alpha virt. eigenvalues --    0.01279   0.08849   0.11956   0.14403   0.17889
 Alpha virt. eigenvalues --    0.18576   0.21185   0.23397   0.35075   0.42190
 Alpha virt. eigenvalues --    0.48807   0.67177   0.69930   0.72298   0.74880

 Mulliken charges:
               1
     1  C   -0.244493
     2  C    0.053121
     3  O   -0.482598
     4  C    0.104887
     5  C   -0.242443
     6  H    0.175736
     7  H    0.223553
     8  H    0.223827
     9  H    0.188410
 Sum of Mulliken charges =   0.00000

 Dipole moment (field-independent basis, Debye):
    X=              0.1237    Y=              0.6711    Z=              0.0104  Tot=              0.6824
 Quadrupole moment (field-independent basis, Debye-Ang):
   XX=            -23.1294   YY=            -28.3475   ZZ=            -31.7789
   XY=             -0.2862   XZ=              0.0792   YZ=              0.0436

 Normal termination of Gaussian 09 at Tue Dec 15 16:24:45 2015.
