 Gaussian 09, Revision D.01,
 Gaussian 09:  ES64L-G09RevD.01 24-Apr-2013

 ------------------------------------------------------------
 #P AM1(Input,print) CIS(Singlets,NStates=15) pop(full) force
 ------------------------------------------------------------

 -----------------
 AM1-Reparam Input
 -----------------
 Symbolic Z-matrix:
 Charge =  0 Multiplicity = 1

                         Standard orientation:
 ---------------------------------------------------------------------
 Center     Atomic      Atomic             Coordinates (Angstroms)
 Number     Number       Type             X           Y           Z
 ---------------------------------------------------------------------
      1          6           0       -0.942754    0.721818   -0.008713
      2          6           0       -1.013396   -0.617276   -0.014587
      3          8           0        0.338747   -1.090956    0.005008
      4          6           0        1.173161   -0.066625    0.004058
      5          6           0        0.431732    1.096270   -0.017886
      6          1           0        0.818183    2.137040    0.053337
      7          1           0        2.240727   -0.294566    0.014654
      8          1           0       -1.820827   -1.306558    0.045322
      9          1           0       -1.840517    1.386614    0.069402
 ---------------------------------------------------------------------

 SCF Done:  E(RAM1) =   1.38623973101     A.U. after   13 cycles

 Excitation energies and oscillator strengths:

 Excited State   1:      Singlet-A      5.9028 eV  210.04 nm  f=0.3078  <S**2>=0.000
      13 -> 14         0.69014
 This state for optimization and/or second-order correction.
 Total Energy, E(CIS) =   1.60316196611
 Copying the excited state density for this state as the 1-particle RhoCI density.

 Excited State   2:      Singlet-A      6.1342 eV  202.12 nm  f=0.0042  <S**2>=0.000
      12 -> 15        -0.10522
      13 -> 15         0.65318
      13 -> 17        -0.16896
      13 -> 20        -0.10835

 Excited State   3:      Singlet-A      6.8295 eV  181.54 nm  f=0.0005  <S**2>=0.000
      12 -> 16         0.11332
      13 -> 15        -0.10065
      13 -> 16         0.63165
      13 -> 17        -0.13846
      13 -> 19        -0.10248
      13 -> 21         0.11843
      13 -> 22         0.13475

 Excited State   4:      Singlet-A      7.4891 eV  165.55 nm  f=0.0020  <S**2>=0.000
       9 -> 14        -0.10547
      11 -> 14         0.66632
      12 -> 14        -0.14607
      13 -> 22         0.11912

 Excited State   5:      Singlet-A      7.5208 eV  164.86 nm  f=0.0074  <S**2>=0.000
      13 -> 15         0.14522
      13 -> 16         0.15222
      13 -> 17         0.64478

 Excited State   6:      Singlet-A      7.9017 eV  156.91 nm  f=0.0003  <S**2>=0.000
      12 -> 15        -0.10697
      13 -> 19        -0.43435
      13 -> 22         0.49404

 Excited State   7:      Singlet-A      8.1924 eV  151.34 nm  f=0.0023  <S**2>=0.000
      10 -> 14         0.58978
      12 -> 14         0.31684
      13 -> 18         0.15046

 Excited State   8:      Singlet-A      8.4031 eV  147.55 nm  f=0.0007  <S**2>=0.000
      10 -> 14        -0.31558
      12 -> 14         0.37227
      13 -> 18         0.47630

 Excited State   9:      Singlet-A      8.5562 eV  144.91 nm  f=0.0010  <S**2>=0.000
      12 -> 15        -0.13800
      13 -> 19         0.49859
      13 -> 20         0.12159
      13 -> 22         0.42310

 Excited State  10:      Singlet-A      8.6150 eV  143.92 nm  f=0.0180  <S**2>=0.000
      10 -> 14         0.13062
      12 -> 15        -0.12271
      13 -> 19        -0.17524
      13 -> 20         0.58413
      13 -> 21         0.25706

 Excited State  11:      Singlet-A      9.0556 eV  136.91 nm  f=0.0224  <S**2>=0.000
      11 -> 15         0.12665
      12 -> 14        -0.10707
      12 -> 15         0.52634
      12 -> 17        -0.10285
      13 -> 15         0.12798
      13 -> 16        -0.13462
      13 -> 18         0.11118
      13 -> 21         0.29597
      13 -> 22         0.13128

 Excited State  12:      Singlet-A      9.1939 eV  134.85 nm  f=0.2099  <S**2>=0.000
      10 -> 14         0.13852
      11 -> 14        -0.10512
      12 -> 14        -0.44104
      13 -> 18         0.45060
      13 -> 21        -0.17046

 Excited State  13:      Singlet-A      9.2205 eV  134.47 nm  f=0.0472  <S**2>=0.000
      12 -> 15        -0.28024
      12 -> 16        -0.16285
      13 -> 20        -0.28731
      13 -> 21         0.50374

 Excited State  14:      Singlet-A      9.7305 eV  127.42 nm  f=0.0125  <S**2>=0.000
       8 -> 15         0.16269
      10 -> 16        -0.10129
      10 -> 17         0.17396
      11 -> 15         0.53426
      11 -> 16        -0.13228
      11 -> 19         0.20741
      11 -> 22        -0.12737
      12 -> 15        -0.10537

 Excited State  15:      Singlet-A      9.8515 eV  125.85 nm  f=0.0990  <S**2>=0.000
       9 -> 15        -0.12555
      10 -> 15        -0.25919
      10 -> 17         0.37771
      11 -> 15        -0.27634
      11 -> 16        -0.21268
      11 -> 19         0.23530
      11 -> 20         0.14199
      12 -> 14        -0.10241

 The electronic state is 1-A.
 Alpha  occ. eigenvalues --   -1.88969  -1.18052  -0.95815  -0.78869  -0.76682
 Alpha  occ. eigenvalues --   -0.67237  -0.61703  -0.51429  -0.47943  -0.40137
 Alpha  occ. eigenvalues --   -0.38026  -0.37550  -0.24852
 Alpha virt. eigenvalues --    0.17206   0.20287   0.24091   0.27578   0.29581
 Alpha virt. eigenvalues --    0.30004   0.32004   0.34175   0.34705   0.39698
 Alpha virt. eigenvalues --    0.45561

 Mulliken charges:
               1
     1  C   -0.008509
     2  C   -1.554782
     3  O    2.800787
     4  C   -1.571699
     5  C   -0.136257
     6  H    0.071630
     7  H    0.174883
     8  H    0.161352
     9  H    0.062596
 Sum of Mulliken charges =   0.00000

 Dipole moment (field-independent basis, Debye):
    X=              2.8878    Y=             -8.9385    Z=              0.2919  Tot=              9.3979
 N-N= 1.032475751497D+02 E-N=-1.693565407799D+02  KE=-1.582082968527D+01
 Orbital energies and kinetic energies (alpha):
                                 1                 2
   1         O                -1.889693         -1.374861
   2         O                -1.180518         -1.060169
   3         O                -0.958150         -0.873600
   4         O                -0.788693         -0.650311
   5         O                -0.766818         -0.685433
   6         O                -0.672372         -0.616092
   7         O                -0.617034         -0.538061

 Normal termination of Gaussian 09 at Tue Dec 15 17:07:58 2015.
