 Gaussian 09, Revision D.01,
 Gaussian 09:  ES64L-G09RevD.01 24-Apr-2013

 ------------------------------------------------------------
 #P AM1(Input,print) CIS(Singlets,NStates=15) pop(full) force
 ------------------------------------------------------------

 -----------------
 AM1-Reparam Input
 -----------------
 Symbolic Z-matrix:
 Charge =  0 Multiplicity = 1

                         Standard orientation:
 ---------------------------------------------------------------------
 Center     Atomic      Atomic             Coordinates (Angstroms)
 Number     Number       Type             X           Y           Z
 ---------------------------------------------------------------------
      1          6           0        0.476524    1.086467    0.033147
      2          6           0        1.157561   -0.080477   -0.016795
      3          8           0        0.259620   -1.161541   -0.013717
      4          6           0       -0.983331   -0.547575    0.051192
      5          6           0       -0.933816    0.784504   -0.032855
      6          1           0       -1.724804    1.440999   -0.075685
      7          1           0       -1.811747   -1.292232   -0.027602
      8          1           0        2.184792   -0.385207   -0.014027
      9          1           0        0.973178    2.071253    0.018917
 ---------------------------------------------------------------------

 SCF Done:  E(RAM1) =   2.72089543943     A.U. after   14 cycles

 Excitation energies and oscillator strengths:

 Excited State   1:      Singlet-A      5.1804 eV  239.33 nm  f=0.3431  <S**2>=0.000
      13 -> 14         0.69476
 This state for optimization and/or second-order correction.
 Total Energy, E(CIS) =   2.91127185186
 Copying the excited state density for this state as the 1-particle RhoCI density.

 Excited State   2:      Singlet-A      5.5982 eV  221.47 nm  f=0.0006  <S**2>=0.000
      11 -> 15        -0.10876
      13 -> 15         0.67821

 Excited State   3:      Singlet-A      6.0834 eV  203.81 nm  f=0.0011  <S**2>=0.000
      11 -> 16         0.10604
      13 -> 16         0.66392
      13 -> 17         0.14430

 Excited State   4:      Singlet-A      6.8518 eV  180.95 nm  f=0.0002  <S**2>=0.000
      12 -> 14         0.69341

 Excited State   5:      Singlet-A      7.4208 eV  167.08 nm  f=0.0154  <S**2>=0.000
      13 -> 15        -0.10459
      13 -> 17         0.61306
      13 -> 18         0.19895
      13 -> 19         0.10655
      13 -> 21         0.17162

 Excited State   6:      Singlet-A      7.6834 eV  161.37 nm  f=0.0047  <S**2>=0.000
      13 -> 16         0.13647
      13 -> 17        -0.26020
      13 -> 18         0.50624
      13 -> 19         0.12958
      13 -> 20        -0.14243
      13 -> 21         0.30710

 Excited State   7:      Singlet-A      8.0274 eV  154.45 nm  f=0.0070  <S**2>=0.000
      10 -> 14         0.56447
      11 -> 14         0.39028
      13 -> 17        -0.12617

 Excited State   8:      Singlet-A      8.2950 eV  149.47 nm  f=0.0016  <S**2>=0.000
      13 -> 18        -0.18399
      13 -> 19         0.66281

 Excited State   9:      Singlet-A      8.7193 eV  142.19 nm  f=0.0799  <S**2>=0.000
       8 -> 15        -0.18521
      10 -> 14         0.26476
      11 -> 14        -0.36051
      12 -> 15         0.45928

 Excited State  10:      Singlet-A      8.8701 eV  139.78 nm  f=0.0492  <S**2>=0.000
       8 -> 16        -0.12588
      10 -> 14        -0.20017
      11 -> 14         0.30479
      12 -> 15         0.27573
      12 -> 16        -0.22576
      12 -> 17         0.11213
      12 -> 18         0.12757
      13 -> 18         0.20919
      13 -> 20         0.20000
      13 -> 21        -0.25219

 Excited State  11:      Singlet-A      8.9118 eV  139.12 nm  f=0.0353  <S**2>=0.000
      10 -> 14        -0.15038
      11 -> 14         0.21388
      12 -> 15         0.17006
      12 -> 16        -0.17109
      13 -> 18        -0.33015
      13 -> 20        -0.21314
      13 -> 21         0.42577

 Excited State  12:      Singlet-A      9.3362 eV  132.80 nm  f=0.1287  <S**2>=0.000
      10 -> 17         0.12114
      11 -> 14        -0.13526
      11 -> 15         0.19480
      11 -> 16         0.10572
      11 -> 17         0.10758
      12 -> 15        -0.18420
      12 -> 18         0.17569
      13 -> 20         0.47708
      13 -> 21         0.23105

 Excited State  13:      Singlet-A      9.4217 eV  131.59 nm  f=0.1050  <S**2>=0.000
      10 -> 14        -0.11947
      11 -> 14         0.12470
      11 -> 15        -0.32640
      11 -> 17        -0.10200
      12 -> 15         0.14203
      12 -> 16         0.29304
      12 -> 18        -0.15464
      13 -> 20         0.34168
      13 -> 21         0.23501

 Excited State  14:      Singlet-A      9.5025 eV  130.47 nm  f=0.1594  <S**2>=0.000
       9 -> 16         0.12346
      10 -> 16         0.22497
      10 -> 17         0.19342
      11 -> 17         0.11347
      12 -> 16         0.43911
      12 -> 17         0.24640
      12 -> 18         0.19315
      13 -> 20        -0.15250

 Excited State  15:      Singlet-A      9.5675 eV  129.59 nm  f=0.0692  <S**2>=0.000
       7 -> 15         0.12934
       8 -> 15        -0.10112
      10 -> 15        -0.30725
      11 -> 14         0.14194
      11 -> 15         0.46470
      12 -> 15         0.14781
      12 -> 16         0.24166
      12 -> 18        -0.10619
      13 -> 15         0.11634

 The electronic state is 1-A.
 Alpha  occ. eigenvalues --   -1.74095  -1.13041  -0.92038  -0.78982  -0.74052
 Alpha  occ. eigenvalues --   -0.65559  -0.61825  -0.52171  -0.49465  -0.42628
 Alpha  occ. eigenvalues --   -0.42045  -0.38632  -0.26032
 Alpha virt. eigenvalues --    0.13433   0.16666   0.18697   0.26045   0.28773
 Alpha virt. eigenvalues --    0.29819   0.31984   0.33101   0.45053   0.54565
 Alpha virt. eigenvalues --    0.57572

 Mulliken charges:
               1
     1  C   -0.061641
     2  C   -1.964153
     3  O    3.337468
     4  C   -1.962892
     5  C   -0.072405
     6  H    0.115291
     7  H    0.247920
     8  H    0.246390
     9  H    0.114023
 Sum of Mulliken charges =   0.00000

 Dipole moment (field-independent basis, Debye):
    X=              2.3755    Y=            -11.8778    Z=             -0.5982  Tot=             12.1278
 N-N= 1.032287689681D+02 E-N=-1.679717392439D+02  KE=-1.483274956582D+01
 Orbital energies and kinetic energies (alpha):
                                 1                 2
   1         O                -1.740946         -1.218259
   2         O                -1.130411         -1.007068
   3         O                -0.920375         -0.861742
   4         O                -0.789819         -0.591652
   5         O                -0.740516         -0.668968
   6         O                -0.655589         -0.560152
   7         O                -0.618251         -0.519170

 Normal termination of Gaussian 09 at Tue Dec 15 17:05:26 2015.
