 Gaussian 09, Revision D.01,
 Gaussian 09:  ES64L-G09RevD.01 24-Apr-2013

 ------------------------------------------------------------
 #P AM1(Input,print) CIS(Singlets,NStates=15) pop(full) force
 ------------------------------------------------------------

 -----------------
 AM1-Reparam Input
 -----------------
 Symbolic Z-matrix:
 Charge =  0 Multiplicity = 1

                         Standard orientation:
 ---------------------------------------------------------------------
 Center     Atomic      Atomic             Coordinates (Angstroms)
 Number     Number       Type             X           Y           Z
 ---------------------------------------------------------------------
      1          6           0       -0.771177    0.857452   -0.007565
      2          6           0       -1.028867   -0.432706    0.000097
      3          8           0        0.101544   -1.122845   -0.009403
      4          6           0        1.127116   -0.225692    0.001740
      5          6           0        0.584698    0.984843    0.015259
      6          1           0        1.141704    1.894237   -0.041266
      7          1           0        2.137814   -0.626432    0.017541
      8          1           0       -1.978290   -1.078726    0.041361
      9          1           0       -1.584198    1.690297    0.000396
 ---------------------------------------------------------------------

 SCF Done:  E(RAM1) =   1.40516383834     A.U. after   13 cycles

 Excitation energies and oscillator strengths:

 Excited State   1:      Singlet-A      6.0317 eV  205.56 nm  f=0.0120  <S**2>=0.000
      12 -> 15         0.13424
      13 -> 14         0.22324
      13 -> 15         0.63354
      13 -> 17        -0.11228
 This state for optimization and/or second-order correction.
 Total Energy, E(CIS) =   1.62682332483
 Copying the excited state density for this state as the 1-particle RhoCI density.

 Excited State   2:      Singlet-A      6.2350 eV  198.85 nm  f=0.2811  <S**2>=0.000
      13 -> 14         0.65452
      13 -> 15        -0.22247

 Excited State   3:      Singlet-A      6.6355 eV  186.85 nm  f=0.0001  <S**2>=0.000
      12 -> 16        -0.14343
      13 -> 16         0.65162
      13 -> 17        -0.15580
      13 -> 21         0.11582

 Excited State   4:      Singlet-A      7.5115 eV  165.06 nm  f=0.0081  <S**2>=0.000
      13 -> 15         0.10790
      13 -> 16         0.14445
      13 -> 17         0.65836

 Excited State   5:      Singlet-A      7.6903 eV  161.22 nm  f=0.0002  <S**2>=0.000
      11 -> 14         0.67507
      13 -> 22         0.13301

 Excited State   6:      Singlet-A      8.0531 eV  153.96 nm  f=0.0014  <S**2>=0.000
      11 -> 14        -0.10892
      12 -> 15         0.10980
      13 -> 18         0.54307
      13 -> 22         0.39183

 Excited State   7:      Singlet-A      8.2766 eV  149.80 nm  f=0.0017  <S**2>=0.000
      10 -> 14         0.67865
      12 -> 14        -0.10860

 Excited State   8:      Singlet-A      8.6575 eV  143.21 nm  f=0.0081  <S**2>=0.000
      11 -> 15         0.13630
      12 -> 14         0.56036
      13 -> 19        -0.37358

 Excited State   9:      Singlet-A      8.7830 eV  141.16 nm  f=0.0002  <S**2>=0.000
      12 -> 15         0.43832
      12 -> 16         0.12337
      13 -> 18        -0.28099
      13 -> 20         0.12244
      13 -> 21         0.28548
      13 -> 22         0.29523

 Excited State  10:      Singlet-A      8.9405 eV  138.68 nm  f=0.0069  <S**2>=0.000
      13 -> 18         0.25480
      13 -> 20         0.34584
      13 -> 21         0.48462
      13 -> 22        -0.20246

 Excited State  11:      Singlet-A      8.9838 eV  138.01 nm  f=0.0214  <S**2>=0.000
      12 -> 15         0.44689
      12 -> 16        -0.13506
      13 -> 15        -0.11941
      13 -> 18         0.15680
      13 -> 20         0.14862
      13 -> 21        -0.26228
      13 -> 22        -0.33692

 Excited State  12:      Singlet-A      9.3219 eV  133.00 nm  f=0.0435  <S**2>=0.000
      12 -> 15        -0.13260
      12 -> 16        -0.27536
      13 -> 18        -0.11809
      13 -> 20         0.48240
      13 -> 21        -0.25323
      13 -> 22         0.26623

 Excited State  13:      Singlet-A      9.3667 eV  132.37 nm  f=0.0625  <S**2>=0.000
       8 -> 15        -0.20858
      10 -> 17        -0.22080
      11 -> 15         0.53389
      11 -> 16        -0.15302
      11 -> 18        -0.14799
      13 -> 19         0.11653

 Excited State  14:      Singlet-A      9.5319 eV  130.07 nm  f=0.1343  <S**2>=0.000
       9 -> 15         0.11973
      10 -> 15        -0.24189
      10 -> 17         0.17246
      11 -> 18         0.13588
      12 -> 14         0.29889
      13 -> 19         0.49511

 Excited State  15:      Singlet-A      9.6444 eV  128.56 nm  f=0.0164  <S**2>=0.000
      10 -> 15        -0.14148
      12 -> 16         0.53057
      12 -> 21         0.10095
      13 -> 16         0.16505
      13 -> 20         0.27964
      13 -> 21        -0.14639

 The electronic state is 1-A.
 Alpha  occ. eigenvalues --   -1.91422  -1.22039  -0.96647  -0.79141  -0.77590
 Alpha  occ. eigenvalues --   -0.67180  -0.64181  -0.50193  -0.47929  -0.39103
 Alpha  occ. eigenvalues --   -0.37797  -0.37392  -0.25357
 Alpha virt. eigenvalues --    0.18597   0.19482   0.22416   0.27395   0.30261
 Alpha virt. eigenvalues --    0.31318   0.33564   0.34118   0.36277   0.41489
 Alpha virt. eigenvalues --    0.47025

 Mulliken charges:
               1
     1  C   -0.073656
     2  C   -1.554928
     3  O    2.793453
     4  C   -1.559047
     5  C   -0.053566
     6  H    0.063765
     7  H    0.161679
     8  H    0.161142
     9  H    0.061157
 Sum of Mulliken charges =   0.00000

 Dipole moment (field-independent basis, Debye):
    X=              0.5711    Y=             -9.4010    Z=             -0.0625  Tot=              9.4186
 N-N= 1.045050681013D+02 E-N=-1.715312862510D+02  KE=-1.594911421104D+01
 Orbital energies and kinetic energies (alpha):
                                 1                 2
   1         O                -1.914220         -1.419370
   2         O                -1.220388         -1.089274
   3         O                -0.966466         -0.883713
   4         O                -0.791415         -0.622950
   5         O                -0.775895         -0.698003
   6         O                -0.671803         -0.625738
   7         O                -0.641806         -0.563680

 Normal termination of Gaussian 09 at Tue Dec 15 17:07:56 2015.
