 Gaussian 09, Revision D.01,
 Gaussian 09:  ES64L-G09RevD.01 24-Apr-2013

 ------------------------------------------------------------
 #P AM1(Input,print) CIS(Singlets,NStates=15) pop(full) force
 ------------------------------------------------------------

 -----------------
 AM1-Reparam Input
 -----------------
 Symbolic Z-matrix:
 Charge =  0 Multiplicity = 1

                         Standard orientation:
 ---------------------------------------------------------------------
 Center     Atomic      Atomic             Coordinates (Angstroms)
 Number     Number       Type             X           Y           Z
 ---------------------------------------------------------------------
      1          6           0        0.701226    0.967271    0.040553
      2          6           0        1.125392   -0.316932   -0.018002
      3          8           0        0.007052   -1.142557   -0.010788
      4          6           0       -1.064523   -0.340344    0.037152
      5          6           0       -0.742517    0.901630   -0.041313
      6          1           0       -1.448645    1.775495   -0.029997
      7          1           0       -2.014939   -0.928212    0.013211
      8          1           0        2.024224   -0.811181   -0.003780
      9          1           0        1.265480    1.834602   -0.003475
 ---------------------------------------------------------------------

 SCF Done:  E(RAM1) =   2.87848860624     A.U. after   13 cycles

 Excitation energies and oscillator strengths:

 Excited State   1:      Singlet-A      5.1259 eV  241.88 nm  f=0.3414  <S**2>=0.000
      13 -> 14         0.69578
 This state for optimization and/or second-order correction.
 Total Energy, E(CIS) =   3.06686288521
 Copying the excited state density for this state as the 1-particle RhoCI density.

 Excited State   2:      Singlet-A      5.8416 eV  212.24 nm  f=0.0005  <S**2>=0.000
      13 -> 15         0.67358
      13 -> 17         0.10934
      13 -> 18         0.12556

 Excited State   3:      Singlet-A      6.5826 eV  188.35 nm  f=0.0004  <S**2>=0.000
       9 -> 14        -0.10009
      12 -> 14         0.67206
      13 -> 16         0.15584

 Excited State   4:      Singlet-A      6.6165 eV  187.39 nm  f=0.0035  <S**2>=0.000
      12 -> 14        -0.17902
      13 -> 16         0.61397
      13 -> 17         0.17492
      13 -> 18        -0.16722
      13 -> 19         0.10792

 Excited State   5:      Singlet-A      7.4885 eV  165.57 nm  f=0.0084  <S**2>=0.000
      13 -> 15        -0.13328
      13 -> 17         0.32744
      13 -> 18         0.48717
      13 -> 20         0.22195
      13 -> 21        -0.23526

 Excited State   6:      Singlet-A      7.6800 eV  161.44 nm  f=0.0109  <S**2>=0.000
      10 -> 14         0.17919
      11 -> 14        -0.30062
      13 -> 16        -0.18554
      13 -> 17         0.46776
      13 -> 18        -0.19273
      13 -> 19        -0.14950
      13 -> 20        -0.13412
      13 -> 21         0.17698

 Excited State   7:      Singlet-A      7.8343 eV  158.26 nm  f=0.0033  <S**2>=0.000
      10 -> 14        -0.29117
      11 -> 14         0.52263
      13 -> 17         0.32913
      13 -> 20        -0.10922

 Excited State   8:      Singlet-A      8.4656 eV  146.46 nm  f=0.0026  <S**2>=0.000
      13 -> 16        -0.15704
      13 -> 17         0.11029
      13 -> 18        -0.23432
      13 -> 19         0.58736
      13 -> 20         0.19905

 Excited State   9:      Singlet-A      8.6131 eV  143.95 nm  f=0.0491  <S**2>=0.000
       8 -> 15        -0.10256
      10 -> 14         0.51639
      11 -> 14         0.29277
      12 -> 15         0.32123

 Excited State  10:      Singlet-A      8.8726 eV  139.74 nm  f=0.0404  <S**2>=0.000
      10 -> 14        -0.14595
      12 -> 15         0.15598
      13 -> 18        -0.30526
      13 -> 19        -0.28939
      13 -> 20         0.38224
      13 -> 21        -0.31336

 Excited State  11:      Singlet-A      8.9235 eV  138.94 nm  f=0.1250  <S**2>=0.000
      10 -> 14        -0.24768
      11 -> 14        -0.14435
      12 -> 15         0.50312
      12 -> 16        -0.14184
      12 -> 18         0.16422
      13 -> 18         0.13484
      13 -> 19         0.10018
      13 -> 21         0.18478

 Excited State  12:      Singlet-A      9.3004 eV  133.31 nm  f=0.0679  <S**2>=0.000
      12 -> 15        -0.14174
      13 -> 20         0.41711
      13 -> 21         0.48112

 Excited State  13:      Singlet-A      9.4657 eV  130.98 nm  f=0.0219  <S**2>=0.000
       9 -> 15         0.16920
      10 -> 15        -0.12314
      10 -> 17        -0.12323
      11 -> 15         0.24157
      11 -> 17         0.21916
      12 -> 15         0.17478
      12 -> 16         0.25746
      12 -> 17         0.15242
      12 -> 18        -0.25525
      12 -> 20        -0.14721
      13 -> 20         0.19366
      13 -> 21         0.16199

 Excited State  14:      Singlet-A      9.7840 eV  126.72 nm  f=0.0029  <S**2>=0.000
       7 -> 15        -0.14798
      10 -> 15         0.59480
      11 -> 15         0.26426
      13 -> 15        -0.13014

 Excited State  15:      Singlet-A      9.9687 eV  124.37 nm  f=0.1621  <S**2>=0.000
      10 -> 16         0.13461
      11 -> 16        -0.23012
      11 -> 17        -0.15374
      12 -> 16         0.52435
      12 -> 18         0.11074
      12 -> 19         0.22189

 The electronic state is 1-A.
 Alpha  occ. eigenvalues --   -1.72812  -1.12405  -0.93584  -0.79704  -0.75436
 Alpha  occ. eigenvalues --   -0.66322  -0.64262  -0.53816  -0.49816  -0.43409
 Alpha  occ. eigenvalues --   -0.43198  -0.39248  -0.27422
 Alpha virt. eigenvalues --    0.11700   0.16137   0.20494   0.25223   0.27417
 Alpha virt. eigenvalues --    0.28727   0.30289   0.31090   0.36640   0.45704
 Alpha virt. eigenvalues --    0.49569

 Mulliken charges:
               1
     1  C   -0.137108
     2  C   -1.931048
     3  O    3.207758
     4  C   -1.908367
     5  C   -0.169073
     6  H    0.181215
     7  H    0.293274
     8  H    0.286191
     9  H    0.177158
 Sum of Mulliken charges =   0.00000

 Dipole moment (field-independent basis, Debye):
    X=             -0.7038    Y=            -10.7552    Z=             -0.3036  Tot=             10.7825
 N-N= 1.043658866992D+02 E-N=-1.697394702771D+02  KE=-1.480661713258D+01
 Orbital energies and kinetic energies (alpha):
                                 1                 2
   1         O                -1.728125         -1.222251
   2         O                -1.124052         -0.985505
   3         O                -0.935844         -0.852425
   4         O                -0.797042         -0.603980
   5         O                -0.754364         -0.678918
   6         O                -0.663217         -0.563946
   7         O                -0.642617         -0.526846

 Normal termination of Gaussian 09 at Tue Dec 15 17:05:52 2015.
