 Gaussian 09, Revision D.01,
 Gaussian 09:  ES64L-G09RevD.01 24-Apr-2013

 ------------------------------------------------------------
 #P AM1(Input,print) CIS(Singlets,NStates=15) pop(full) force
 ------------------------------------------------------------

 -----------------
 AM1-Reparam Input
 -----------------
 Symbolic Z-matrix:
 Charge =  0 Multiplicity = 1

                         Standard orientation:
 ---------------------------------------------------------------------
 Center     Atomic      Atomic             Coordinates (Angstroms)
 Number     Number       Type             X           Y           Z
 ---------------------------------------------------------------------
      1          6           0       -0.197900    1.156390    0.043568
      2          6           0       -1.108520    0.162563   -0.029677
      3          8           0       -0.565897   -1.014703   -0.009038
      4          6           0        0.806026   -0.773399    0.040957
      5          6           0        1.094403    0.493035   -0.035791
      6          1           0        2.056486    1.014981   -0.046533
      7          1           0        1.469283   -1.654014   -0.007324
      8          1           0       -2.224715    0.233390    0.020765
      9          1           0       -0.337938    2.291729   -0.008945
 ---------------------------------------------------------------------

 SCF Done:  E(RAM1) =   2.56067742023     A.U. after   13 cycles

 Excitation energies and oscillator strengths:

 Excited State   1:      Singlet-A      5.1793 eV  239.38 nm  f=0.3453  <S**2>=0.000
      13 -> 14         0.69707
 This state for optimization and/or second-order correction.
 Total Energy, E(CIS) =   2.75101250338
 Copying the excited state density for this state as the 1-particle RhoCI density.

 Excited State   2:      Singlet-A      5.8108 eV  213.37 nm  f=0.0014  <S**2>=0.000
      13 -> 15         0.67524
      13 -> 17         0.11256

 Excited State   3:      Singlet-A      6.3008 eV  196.77 nm  f=0.0010  <S**2>=0.000
      13 -> 16         0.66682
      13 -> 17         0.12323

 Excited State   4:      Singlet-A      6.5633 eV  188.90 nm  f=0.0002  <S**2>=0.000
      12 -> 14         0.69787

 Excited State   5:      Singlet-A      7.5833 eV  163.50 nm  f=0.0002  <S**2>=0.000
      13 -> 16         0.11760
      13 -> 17        -0.12892
      13 -> 18         0.59611
      13 -> 20         0.15440
      13 -> 21        -0.26831

 Excited State   6:      Singlet-A      7.8031 eV  158.89 nm  f=0.0094  <S**2>=0.000
      10 -> 14        -0.16184
      11 -> 14         0.31620
      13 -> 15        -0.11844
      13 -> 17         0.57289
      13 -> 18         0.10456

 Excited State   7:      Singlet-A      8.0202 eV  154.59 nm  f=0.0046  <S**2>=0.000
      10 -> 14        -0.27085
      11 -> 14         0.53913
      13 -> 17        -0.33428

 Excited State   8:      Singlet-A      8.6528 eV  143.29 nm  f=0.0004  <S**2>=0.000
      13 -> 18         0.14857
      13 -> 19         0.65217
      13 -> 20        -0.12311

 Excited State   9:      Singlet-A      8.8180 eV  140.60 nm  f=0.0841  <S**2>=0.000
       8 -> 16        -0.10114
      10 -> 14         0.54551
      11 -> 14         0.26655
      12 -> 16         0.24349

 Excited State  10:      Singlet-A      8.9042 eV  139.24 nm  f=0.0815  <S**2>=0.000
       8 -> 15         0.12436
      10 -> 14         0.16587
      12 -> 15         0.56185
      12 -> 16        -0.18635
      12 -> 18         0.20110
      13 -> 20         0.11402

 Excited State  11:      Singlet-A      9.0928 eV  136.35 nm  f=0.0360  <S**2>=0.000
      12 -> 15        -0.14142
      13 -> 18        -0.27072
      13 -> 19         0.14585
      13 -> 20         0.46105
      13 -> 21        -0.39147

 Excited State  12:      Singlet-A      9.4121 eV  131.73 nm  f=0.0447  <S**2>=0.000
       9 -> 15        -0.14134
      10 -> 14        -0.21172
      10 -> 15        -0.10290
      11 -> 14        -0.11865
      11 -> 15         0.19495
      11 -> 17         0.13462
      12 -> 15         0.30887
      12 -> 16         0.38821
      12 -> 17         0.14297
      12 -> 18        -0.16798
      13 -> 21        -0.12610

 Excited State  13:      Singlet-A      9.5837 eV  129.37 nm  f=0.0823  <S**2>=0.000
      10 -> 15        -0.28052
      11 -> 15        -0.24550
      12 -> 16         0.22955
      13 -> 18         0.10478
      13 -> 20         0.33385
      13 -> 21         0.36505

 Excited State  14:      Singlet-A      9.6915 eV  127.93 nm  f=0.0805  <S**2>=0.000
       9 -> 15        -0.13674
      10 -> 15         0.12770
      11 -> 15         0.28861
      11 -> 16         0.13734
      11 -> 17         0.15381
      12 -> 16        -0.21586
      12 -> 17         0.11210
      12 -> 18        -0.20084
      13 -> 20         0.29811
      13 -> 21         0.30110

 Excited State  15:      Singlet-A      9.7352 eV  127.36 nm  f=0.0718  <S**2>=0.000
       7 -> 15         0.11043
      10 -> 15         0.44840
      10 -> 17         0.10283
      11 -> 15         0.19475
      11 -> 16        -0.10305
      11 -> 17        -0.11558
      12 -> 16         0.27581
      12 -> 18         0.23305
      13 -> 21         0.12493

 The electronic state is 1-A.
 Alpha  occ. eigenvalues --   -1.75178  -1.15972  -0.94951  -0.80590  -0.75595
 Alpha  occ. eigenvalues --   -0.66631  -0.65253  -0.53924  -0.49108  -0.44114
 Alpha  occ. eigenvalues --   -0.43592  -0.39211  -0.27496
 Alpha virt. eigenvalues --    0.11910   0.16012   0.18498   0.25944   0.26905
 Alpha virt. eigenvalues --    0.29484   0.31090   0.33131   0.40794   0.50250
 Alpha virt. eigenvalues --    0.54270

 Mulliken charges:
               1
     1  C   -0.148882
     2  C   -1.937995
     3  O    3.215282
     4  C   -1.894250
     5  C   -0.000187
     6  H    0.107276
     7  H    0.256466
     8  H    0.281970
     9  H    0.120319
 Sum of Mulliken charges =   0.00000

 Dipole moment (field-independent basis, Debye):
    X=             -5.2525    Y=             -9.3654    Z=             -0.2766  Tot=             10.7413
 N-N= 1.039840147347D+02 E-N=-1.691869382512D+02  KE=-1.502745101640D+01
 Orbital energies and kinetic energies (alpha):
                                 1                 2
   1         O                -1.751776         -1.257850
   2         O                -1.159717         -1.015554
   3         O                -0.949508         -0.865573
   4         O                -0.805900         -0.600267
   5         O                -0.755950         -0.688967
   6         O                -0.666310         -0.555732
   7         O                -0.652530         -0.527707

 Normal termination of Gaussian 09 at Tue Dec 15 17:06:22 2015.
