 Gaussian 09, Revision D.01,
 Gaussian 09:  ES64L-G09RevD.01 24-Apr-2013

 ------------------------------------------------------------
 #P AM1(Input,print) CIS(Singlets,NStates=15) pop(full) force
 ------------------------------------------------------------

 -----------------
 AM1-Reparam Input
 -----------------
 Symbolic Z-matrix:
 Charge =  0 Multiplicity = 1

                         Standard orientation:
 ---------------------------------------------------------------------
 Center     Atomic      Atomic             Coordinates (Angstroms)
 Number     Number       Type             X           Y           Z
 ---------------------------------------------------------------------
      1          6           0        0.189453    1.179624   -0.007322
      2          6           0        1.110218    0.098785   -0.010080
      3          8           0        0.524540   -1.018994    0.021351
      4          6           0       -0.864042   -0.752405   -0.027256
      5          6           0       -1.003499    0.533802    0.034799
      6          1           0       -2.008220    1.067352   -0.039839
      7          1           0       -1.475100   -1.599951   -0.033952
      8          1           0        2.209512    0.142955   -0.033423
      9          1           0        0.484703    2.182759   -0.004430
 ---------------------------------------------------------------------

 SCF Done:  E(RAM1) =   2.07776255773     A.U. after   13 cycles

 Excitation energies and oscillator strengths:

 Excited State   1:      Singlet-A      5.6778 eV  218.37 nm  f=0.3221  <S**2>=0.000
      13 -> 14         0.69077
 This state for optimization and/or second-order correction.
 Total Energy, E(CIS) =   2.28641819009
 Copying the excited state density for this state as the 1-particle RhoCI density.

 Excited State   2:      Singlet-A      6.5084 eV  190.50 nm  f=0.0093  <S**2>=0.000
      13 -> 15         0.64516
      13 -> 17         0.24705

 Excited State   3:      Singlet-A      6.8261 eV  181.63 nm  f=0.0028  <S**2>=0.000
      12 -> 14         0.69774

 Excited State   4:      Singlet-A      7.5200 eV  164.87 nm  f=0.0049  <S**2>=0.000
      13 -> 16         0.63780
      13 -> 19         0.21578

 Excited State   5:      Singlet-A      7.8866 eV  157.21 nm  f=0.0045  <S**2>=0.000
      10 -> 14        -0.18087
      11 -> 14         0.65459

 Excited State   6:      Singlet-A      8.3062 eV  149.27 nm  f=0.0002  <S**2>=0.000
      10 -> 15         0.10789
      11 -> 14        -0.15502
      13 -> 15        -0.15284
      13 -> 16         0.15436
      13 -> 17         0.34911
      13 -> 18        -0.22393
      13 -> 19        -0.33039
      13 -> 20        -0.34799

 Excited State   7:      Singlet-A      8.6834 eV  142.78 nm  f=0.0134  <S**2>=0.000
      10 -> 15         0.10201
      13 -> 15        -0.17632
      13 -> 17         0.51630
      13 -> 18         0.23345
      13 -> 19         0.24055
      13 -> 20         0.24406

 Excited State   8:      Singlet-A      8.8569 eV  139.99 nm  f=0.0280  <S**2>=0.000
      10 -> 14         0.55753
      11 -> 14         0.14034
      11 -> 15         0.13050
      11 -> 16         0.13109
      12 -> 15         0.19588
      12 -> 17         0.18332
      12 -> 18        -0.12636

 Excited State   9:      Singlet-A      9.3025 eV  133.28 nm  f=0.0016  <S**2>=0.000
      10 -> 16         0.13182
      13 -> 16         0.14745
      13 -> 18         0.58637
      13 -> 19        -0.28082

 Excited State  10:      Singlet-A      9.3916 eV  132.02 nm  f=0.1539  <S**2>=0.000
       9 -> 15         0.18674
      10 -> 14        -0.32653
      11 -> 14        -0.10391
      11 -> 15         0.10742
      11 -> 16         0.12397
      11 -> 19         0.13424
      12 -> 15         0.46370
      12 -> 17         0.17720

 Excited State  11:      Singlet-A      9.7731 eV  126.86 nm  f=0.0352  <S**2>=0.000
      11 -> 15         0.56834
      11 -> 17         0.23748
      12 -> 15        -0.21493

 Excited State  12:      Singlet-A      9.8475 eV  125.90 nm  f=0.0088  <S**2>=0.000
      10 -> 15        -0.16443
      13 -> 18        -0.11919
      13 -> 19        -0.40094
      13 -> 20         0.45106
      13 -> 21         0.22772

 Excited State  13:      Singlet-A      9.9674 eV  124.39 nm  f=0.0014  <S**2>=0.000
       7 -> 15         0.11266
      10 -> 15         0.60606
      10 -> 17         0.10938
      13 -> 15         0.12295
      13 -> 20         0.11324
      13 -> 21         0.17623

 Excited State  14:      Singlet-A     10.0144 eV  123.81 nm  f=0.1074  <S**2>=0.000
       9 -> 15         0.14976
      10 -> 14         0.16151
      11 -> 16        -0.15363
      11 -> 18         0.10352
      12 -> 15         0.19250
      12 -> 17        -0.14664
      12 -> 18         0.48592
      12 -> 19         0.21323

 Excited State  15:      Singlet-A     10.0528 eV  123.33 nm  f=0.1807  <S**2>=0.000
      12 -> 16         0.60468
      12 -> 17        -0.12145
      12 -> 19         0.25181
      12 -> 21         0.11313

 The electronic state is 1-A.
 Alpha  occ. eigenvalues --   -1.95936  -1.22585  -0.96281  -0.82681  -0.79148
 Alpha  occ. eigenvalues --   -0.68943  -0.66766  -0.56122  -0.52936  -0.44685
 Alpha  occ. eigenvalues --   -0.44045  -0.40431  -0.30556
 Alpha virt. eigenvalues --    0.11938   0.17025   0.21603   0.24078   0.27760
 Alpha virt. eigenvalues --    0.28437   0.30933   0.31372   0.37527   0.46121
 Alpha virt. eigenvalues --    0.50570

 Mulliken charges:
               1
     1  C   -0.282355
     2  C   -2.076633
     3  O    3.183367
     4  C   -1.973693
     5  C   -0.117410
     6  H    0.258061
     7  H    0.352228
     8  H    0.397199
     9  H    0.259235
 Sum of Mulliken charges =   0.00000

 Dipole moment (field-independent basis, Debye):
    X=              4.8273    Y=             -8.5535    Z=              0.4353  Tot=              9.8313
 N-N= 1.052390222772D+02 E-N=-1.711215728766D+02  KE=-1.557864044255D+01
 Orbital energies and kinetic energies (alpha):
                                 1                 2
   1         O                -1.959363         -1.421138
   2         O                -1.225849         -1.086774
   3         O                -0.962805         -0.874904
   4         O                -0.826808         -0.593605
   5         O                -0.791481         -0.680683
   6         O                -0.689430         -0.570015
   7         O                -0.667665         -0.532012

 Normal termination of Gaussian 09 at Tue Dec 15 17:07:28 2015.
