 Gaussian 09, Revision D.01,
 Gaussian 09:  ES64L-G09RevD.01 24-Apr-2013

 ------------------------------------------------------------
 #P AM1(Input,print) CIS(Singlets,NStates=15) pop(full) force
 ------------------------------------------------------------

 -----------------
 AM1-Reparam Input
 -----------------
 Symbolic Z-matrix:
 Charge =  0 Multiplicity = 1

                         Standard orientation:
 ---------------------------------------------------------------------
 Center     Atomic      Atomic             Coordinates (Angstroms)
 Number     Number       Type             X           Y           Z
 ---------------------------------------------------------------------
      1          6           0        0.742803    0.936896   -0.010631
      2          6           0        1.121547   -0.390514   -0.001570
      3          8           0       -0.036720   -1.126727   -0.003046
      4          6           0       -1.137069   -0.293390   -0.004775
      5          6           0       -0.695913    0.939560    0.009100
      6          1           0       -1.292563    1.819857   -0.003905
      7          1           0       -2.080019   -0.819037    0.021126
      8          1           0        2.038956   -0.905150    0.038451
      9          1           0        1.439177    1.762834    0.015956
 ---------------------------------------------------------------------

 SCF Done:  E(RAM1) =   2.11772599785     A.U. after   13 cycles

 Excitation energies and oscillator strengths:

 Excited State   1:      Singlet-A      5.3951 eV  229.81 nm  f=0.3560  <S**2>=0.000
      13 -> 14         0.69534
 This state for optimization and/or second-order correction.
 Total Energy, E(CIS) =   2.31599395476
 Copying the excited state density for this state as the 1-particle RhoCI density.

 Excited State   2:      Singlet-A      6.5415 eV  189.53 nm  f=0.0019  <S**2>=0.000
      10 -> 15         0.10449
      13 -> 15         0.64979
      13 -> 16         0.17324
      13 -> 17        -0.14516

 Excited State   3:      Singlet-A      6.7081 eV  184.83 nm  f=0.0014  <S**2>=0.000
      13 -> 15        -0.17396
      13 -> 16         0.63880
      13 -> 17        -0.11227
      13 -> 19        -0.15455

 Excited State   4:      Singlet-A      7.1635 eV  173.08 nm  f=0.0003  <S**2>=0.000
      12 -> 14         0.69960

 Excited State   5:      Singlet-A      7.9833 eV  155.31 nm  f=0.0002  <S**2>=0.000
      11 -> 14         0.18099
      13 -> 16        -0.11407
      13 -> 17        -0.15276
      13 -> 18         0.54752
      13 -> 20         0.15418
      13 -> 22        -0.29248

 Excited State   6:      Singlet-A      8.0482 eV  154.05 nm  f=0.0074  <S**2>=0.000
      11 -> 14         0.65559
      13 -> 17        -0.12389
      13 -> 18        -0.19119

 Excited State   7:      Singlet-A      8.4050 eV  147.51 nm  f=0.0074  <S**2>=0.000
      11 -> 14         0.17615
      13 -> 15         0.10803
      13 -> 17         0.64234
      13 -> 18         0.11072

 Excited State   8:      Singlet-A      9.0402 eV  137.15 nm  f=0.0622  <S**2>=0.000
      10 -> 14         0.65024
      12 -> 15        -0.13319
      13 -> 21         0.18389

 Excited State   9:      Singlet-A      9.1326 eV  135.76 nm  f=0.0002  <S**2>=0.000
      13 -> 18         0.22133
      13 -> 19         0.63186
      13 -> 20        -0.11952

 Excited State  10:      Singlet-A      9.5861 eV  129.34 nm  f=0.0061  <S**2>=0.000
      13 -> 18         0.29031
      13 -> 19        -0.20975
      13 -> 20        -0.33895
      13 -> 22         0.49096

 Excited State  11:      Singlet-A      9.7746 eV  126.84 nm  f=0.0461  <S**2>=0.000
       8 -> 15        -0.12050
      11 -> 17         0.19530
      12 -> 15         0.39979
      12 -> 16        -0.31003
      12 -> 18        -0.28098
      13 -> 20        -0.11695
      13 -> 21         0.11667

 Excited State  12:      Singlet-A      9.8679 eV  125.64 nm  f=0.0909  <S**2>=0.000
      12 -> 15         0.12857
      13 -> 20         0.55328
      13 -> 22         0.37172

 Excited State  13:      Singlet-A      9.9903 eV  124.10 nm  f=0.1137  <S**2>=0.000
      10 -> 14         0.10158
      11 -> 15         0.25186
      11 -> 17        -0.18304
      12 -> 15         0.48210
      12 -> 16         0.17000
      12 -> 17        -0.15557
      12 -> 18         0.19515
      13 -> 21        -0.11068

 Excited State  14:      Singlet-A     10.1572 eV  122.07 nm  f=0.0961  <S**2>=0.000
      10 -> 14        -0.19052
      11 -> 15         0.12316
      12 -> 18         0.10038
      13 -> 21         0.64105

 Excited State  15:      Singlet-A     10.3441 eV  119.86 nm  f=0.1585  <S**2>=0.000
      11 -> 16        -0.40998
      11 -> 17         0.16050
      12 -> 16         0.46907
      12 -> 18        -0.14943

 The electronic state is 1-A.
 Alpha  occ. eigenvalues --   -1.94101  -1.19120  -0.94550  -0.81221  -0.78933
 Alpha  occ. eigenvalues --   -0.69474  -0.66252  -0.57058  -0.54536  -0.45420
 Alpha  occ. eigenvalues --   -0.44817  -0.41978  -0.29217
 Alpha virt. eigenvalues --    0.11075   0.17693   0.18860   0.25462   0.27230
 Alpha virt. eigenvalues --    0.29527   0.30581   0.30893   0.31526   0.38821
 Alpha virt. eigenvalues --    0.43749

 Mulliken charges:
               1
     1  C   -0.181407
     2  C   -1.901526
     3  O    3.228350
     4  C   -1.859192
     5  C   -0.145907
     6  H    0.163690
     7  H    0.260553
     8  H    0.268217
     9  H    0.167223
 Sum of Mulliken charges =   0.00000

 Dipole moment (field-independent basis, Debye):
    X=             -0.5863    Y=            -10.5851    Z=              0.1315  Tot=             10.6021
 N-N= 1.041324797204D+02 E-N=-1.691592874713D+02  KE=-1.533665295716D+01
 Orbital energies and kinetic energies (alpha):
                                 1                 2
   1         O                -1.941006         -1.358327
   2         O                -1.191202         -1.037989
   3         O                -0.945497         -0.885014
   4         O                -0.812211         -0.576425
   5         O                -0.789334         -0.690610
   6         O                -0.694743         -0.590256
   7         O                -0.662523         -0.528063

 Normal termination of Gaussian 09 at Tue Dec 15 17:08:39 2015.
