 Gaussian 09, Revision D.01,
 Gaussian 09:  ES64L-G09RevD.01 24-Apr-2013

 ------------------------------------------------------------
 #P AM1(Input,print) CIS(Singlets,NStates=15) pop(full) force
 ------------------------------------------------------------

 -----------------
 AM1-Reparam Input
 -----------------
 Symbolic Z-matrix:
 Charge =  0 Multiplicity = 1

                         Standard orientation:
 ---------------------------------------------------------------------
 Center     Atomic      Atomic             Coordinates (Angstroms)
 Number     Number       Type             X           Y           Z
 ---------------------------------------------------------------------
      1          6           0       -0.716696    0.974194   -0.001533
      2          6           0       -1.107298   -0.366008   -0.010851
      3          8           0       -0.014993   -1.126145    0.021393
      4          6           0        1.125713   -0.343801   -0.025532
      5          6           0        0.713331    0.902906    0.003358
      6          1           0        1.455381    1.817331    0.048706
      7          1           0        2.036707   -0.850826   -0.004192
      8          1           0       -2.092884   -0.817018   -0.011359
      9          1           0       -1.369558    1.855927    0.003043
 ---------------------------------------------------------------------

 SCF Done:  E(RAM1) =   1.38384430531     A.U. after   13 cycles

 Excitation energies and oscillator strengths:

 Excited State   1:      Singlet-A      5.9263 eV  209.21 nm  f=0.3164  <S**2>=0.000
      13 -> 14         0.69149
 This state for optimization and/or second-order correction.
 Total Energy, E(CIS) =   1.60163090646
 Copying the excited state density for this state as the 1-particle RhoCI density.

 Excited State   2:      Singlet-A      6.2820 eV  197.37 nm  f=0.0042  <S**2>=0.000
      13 -> 15         0.64466
      13 -> 17        -0.20550
      13 -> 20         0.11940

 Excited State   3:      Singlet-A      6.7900 eV  182.60 nm  f=0.0001  <S**2>=0.000
      13 -> 16         0.64824
      13 -> 22        -0.17089

 Excited State   4:      Singlet-A      7.3537 eV  168.60 nm  f=0.0015  <S**2>=0.000
      11 -> 14        -0.29820
      12 -> 14         0.57338
      13 -> 17         0.23936

 Excited State   5:      Singlet-A      7.4308 eV  166.85 nm  f=0.0034  <S**2>=0.000
      11 -> 14         0.11743
      12 -> 14        -0.19972
      13 -> 15         0.18233
      13 -> 17         0.60208
      13 -> 22        -0.14626

 Excited State   6:      Singlet-A      7.9405 eV  156.14 nm  f=0.0010  <S**2>=0.000
      13 -> 16         0.11588
      13 -> 18         0.42023
      13 -> 21         0.22267
      13 -> 22         0.47690

 Excited State   7:      Singlet-A      8.3211 eV  149.00 nm  f=0.0031  <S**2>=0.000
      10 -> 14         0.60906
      12 -> 14        -0.14675
      13 -> 17         0.11135
      13 -> 18        -0.21009
      13 -> 22         0.15315

 Excited State   8:      Singlet-A      8.4494 eV  146.74 nm  f=0.0052  <S**2>=0.000
      10 -> 14         0.16378
      11 -> 14        -0.21700
      11 -> 15        -0.12122
      12 -> 15        -0.10675
      13 -> 18         0.41753
      13 -> 19        -0.17262
      13 -> 20        -0.23692
      13 -> 22        -0.33231

 Excited State   9:      Singlet-A      8.4983 eV  145.89 nm  f=0.0117  <S**2>=0.000
      10 -> 14         0.24849
      11 -> 14         0.44232
      12 -> 14         0.22653
      13 -> 18         0.12324
      13 -> 19         0.35090
      13 -> 20        -0.14031
      13 -> 22        -0.11100

 Excited State  10:      Singlet-A      8.7040 eV  142.45 nm  f=0.0161  <S**2>=0.000
      10 -> 14         0.14358
      13 -> 18         0.26471
      13 -> 20         0.52290
      13 -> 21        -0.29715

 Excited State  11:      Singlet-A      9.1210 eV  135.93 nm  f=0.0627  <S**2>=0.000
      11 -> 14        -0.10267
      11 -> 15         0.15581
      11 -> 16        -0.12297
      12 -> 15         0.10914
      12 -> 16        -0.10464
      13 -> 16        -0.10979
      13 -> 19         0.20015
      13 -> 20         0.19731
      13 -> 21         0.51864
      13 -> 22        -0.20114

 Excited State  12:      Singlet-A      9.2704 eV  133.74 nm  f=0.0059  <S**2>=0.000
      11 -> 15         0.49601
      12 -> 15         0.31844
      13 -> 15         0.13619
      13 -> 16        -0.11354
      13 -> 20        -0.18791
      13 -> 21        -0.17301

 Excited State  13:      Singlet-A      9.3132 eV  133.13 nm  f=0.1290  <S**2>=0.000
      11 -> 14        -0.30640
      12 -> 14        -0.15893
      12 -> 17        -0.15063
      13 -> 19         0.48852
      13 -> 20        -0.18454
      13 -> 21        -0.16910

 Excited State  14:      Singlet-A      9.6675 eV  128.25 nm  f=0.3141  <S**2>=0.000
      10 -> 16         0.13026
      10 -> 17        -0.25637
      11 -> 14        -0.14676
      11 -> 17        -0.19853
      11 -> 18         0.11841
      12 -> 16         0.15839
      12 -> 17         0.40799
      12 -> 18        -0.20826
      13 -> 19         0.13165

 Excited State  15:      Singlet-A      9.8666 eV  125.66 nm  f=0.0287  <S**2>=0.000
      10 -> 18         0.10898
      11 -> 15        -0.24733
      11 -> 16         0.10780
      12 -> 15         0.32809
      12 -> 16         0.45751

 The electronic state is 1-A.
 Alpha  occ. eigenvalues --   -1.90043  -1.18122  -0.96923  -0.78802  -0.77035
 Alpha  occ. eigenvalues --   -0.67354  -0.62445  -0.51924  -0.47841  -0.40906
 Alpha  occ. eigenvalues --   -0.38062  -0.37522  -0.25163
 Alpha virt. eigenvalues --    0.16889   0.21152   0.23132   0.26678   0.29834
 Alpha virt. eigenvalues --    0.30398   0.31818   0.33729   0.34305   0.40288
 Alpha virt. eigenvalues --    0.46551

 Mulliken charges:
               1
     1  C   -0.110828
     2  C   -1.598805
     3  O    2.808798
     4  C   -1.542314
     5  C   -0.034370
     6  H    0.061399
     7  H    0.158919
     8  H    0.183208
     9  H    0.073993
 Sum of Mulliken charges =   0.00000

 Dipole moment (field-independent basis, Debye):
    X=             -0.1310    Y=             -9.1718    Z=              0.5086  Tot=              9.1868
 N-N= 1.035663211652D+02 E-N=-1.698707033383D+02  KE=-1.585138592052D+01
 Orbital energies and kinetic energies (alpha):
                                 1                 2
   1         O                -1.900430         -1.393958
   2         O                -1.181219         -1.053191
   3         O                -0.969232         -0.877608
   4         O                -0.788020         -0.630100
   5         O                -0.770352         -0.708450
   6         O                -0.673542         -0.613762
   7         O                -0.624453         -0.543562

 Normal termination of Gaussian 09 at Tue Dec 15 17:07:56 2015.
