 Gaussian 09, Revision D.01,
 Gaussian 09:  ES64L-G09RevD.01 24-Apr-2013

 -------------------------------------------------------
 #P B3LYP/3-21G CIS(Singlets,NStates=15) pop(full) force
 -------------------------------------------------------

 --------
 FuranDFT
 --------
 Symbolic Z-matrix:
 Charge =  0 Multiplicity = 1

                         Standard orientation:
 ---------------------------------------------------------------------
 Center     Atomic      Atomic             Coordinates (Angstroms)
 Number     Number       Type             X           Y           Z
 ---------------------------------------------------------------------
      1          6           0        0.233851    1.154702    0.003250
      2          6           0        1.135344    0.102583   -0.003083
      3          8           0        0.513178   -1.038706   -0.012188
      4          6           0       -0.894355   -0.752286    0.020260
      5          6           0       -1.039467    0.578183   -0.021205
      6          1           0       -1.994764    1.099424   -0.005095
      7          1           0       -1.506241   -1.562490    0.034581
      8          1           0        2.247521    0.079366    0.026829
      9          1           0        0.535823    2.194256    0.045854
 ---------------------------------------------------------------------

 SCF Done:  E(RB3LYP) =  -228.739853451     A.U. after   14 cycles

 Excitation energies and oscillator strengths:

 Excited State   1:      Singlet-A      6.9831 eV  177.55 nm  f=0.1640  <S**2>=0.000
      17 -> 19         0.21210
      18 -> 19         0.61033
      18 -> 20         0.22694
 This state for optimization and/or second-order correction.
 Total Energy, E(CIS) =  -228.483228883
 Copying the excited state density for this state as the 1-particle RhoCI density.

 Excited State   2:      Singlet-A      7.4663 eV  166.06 nm  f=0.0565  <S**2>=0.000
      17 -> 19         0.45289
      18 -> 19        -0.30249
      18 -> 20         0.43173

 Excited State   3:      Singlet-A      8.2569 eV  150.16 nm  f=0.0028  <S**2>=0.000
      18 -> 21         0.69110
      18 -> 22        -0.10414

 Excited State   4:      Singlet-A      8.6052 eV  144.08 nm  f=0.0044  <S**2>=0.000
      16 -> 19         0.67175
      18 -> 22        -0.19968

 Excited State   5:      Singlet-A      8.6792 eV  142.85 nm  f=0.0006  <S**2>=0.000
      16 -> 19         0.20434
      18 -> 21         0.10587
      18 -> 22         0.66075

 Excited State   6:      Singlet-A      9.6427 eV  128.58 nm  f=0.3787  <S**2>=0.000
      17 -> 19        -0.34146
      17 -> 20         0.35219
      17 -> 21         0.21306
      18 -> 20         0.39314

 Excited State   7:      Singlet-A      9.7878 eV  126.67 nm  f=0.1202  <S**2>=0.000
      17 -> 19         0.20925
      17 -> 20         0.12178
      17 -> 21         0.59846
      18 -> 20        -0.20899

 Excited State   8:      Singlet-A     10.0170 eV  123.77 nm  f=0.1712  <S**2>=0.000
      14 -> 19         0.11125
      15 -> 19         0.13794
      17 -> 19         0.18300
      17 -> 20         0.50573
      17 -> 21        -0.20539
      18 -> 20        -0.14048
      18 -> 23         0.20177
      18 -> 24        -0.17363

 Excited State   9:      Singlet-A     10.0551 eV  123.31 nm  f=0.0274  <S**2>=0.000
      15 -> 19         0.26234
      17 -> 20        -0.20368
      17 -> 21         0.17499
      18 -> 23         0.56716
      18 -> 24        -0.10732

 Excited State  10:      Singlet-A     10.1867 eV  121.71 nm  f=0.0013  <S**2>=0.000
      14 -> 19         0.17249
      15 -> 19         0.44162
      16 -> 20        -0.23066
      17 -> 22         0.25551
      18 -> 24         0.37650

 Excited State  11:      Singlet-A     10.2313 eV  121.18 nm  f=0.0250  <S**2>=0.000
      14 -> 19        -0.21520
      15 -> 19        -0.28303
      16 -> 20         0.13743
      17 -> 20         0.13471
      17 -> 22         0.41106
      18 -> 23         0.26616
      18 -> 24         0.27843

 Excited State  12:      Singlet-A     10.3241 eV  120.09 nm  f=0.0062  <S**2>=0.000
      14 -> 19         0.53733
      15 -> 19        -0.33232
      16 -> 20        -0.16168
      18 -> 23         0.19917
      18 -> 24         0.12751

 Excited State  13:      Singlet-A     10.3295 eV  120.03 nm  f=0.0053  <S**2>=0.000
      14 -> 19         0.14508
      16 -> 20        -0.11160
      17 -> 21         0.12605
      17 -> 22         0.47869
      18 -> 24        -0.45818

 Excited State  14:      Singlet-A     10.6042 eV  116.92 nm  f=0.0037  <S**2>=0.000
      16 -> 20         0.11492
      18 -> 25         0.68205

 Excited State  15:      Singlet-A     10.6917 eV  115.96 nm  f=0.0011  <S**2>=0.000
      14 -> 19         0.27608
      15 -> 19         0.14210
      16 -> 20         0.60194
      18 -> 25        -0.12971

 The electronic state is 1-A.
 Alpha  occ. eigenvalues --  -19.11224 -10.17928 -10.16771 -10.12726 -10.11901
 Alpha  occ. eigenvalues --   -1.12993  -0.81229  -0.74479  -0.59982  -0.57609
 Alpha  occ. eigenvalues --   -0.54175  -0.45172  -0.44910  -0.41395  -0.41040
 Alpha  occ. eigenvalues --   -0.35608  -0.28461  -0.22628
 Alpha virt. eigenvalues --    0.01979   0.08589   0.12756   0.13538   0.18427
 Alpha virt. eigenvalues --    0.19227   0.21038   0.24995   0.34973   0.42313
 Alpha virt. eigenvalues --    0.48356   0.68102   0.69908   0.72189   0.75238

 Mulliken charges:
               1
     1  C   -0.268535
     2  C    0.144511
     3  O   -0.481844
     4  C    0.031046
     5  C   -0.233995
     6  H    0.193556
     7  H    0.218943
     8  H    0.214122
     9  H    0.182197
 Sum of Mulliken charges =   0.00000

 Dipole moment (field-independent basis, Debye):
    X=             -0.3287    Y=              0.5854    Z=              0.1010  Tot=              0.6790
 Quadrupole moment (field-independent basis, Debye-Ang):
   XX=            -24.0227   YY=            -27.6341   ZZ=            -31.7470
   XY=              1.5958   XZ=              0.0485   YZ=              0.0471

 Normal termination of Gaussian 09 at Tue Dec 15 16:15:28 2015.
