 Gaussian 09, Revision D.01,
 Gaussian 09:  ES64L-G09RevD.01 24-Apr-2013

 ------------------------------------------------------------
 #P AM1(Input,print) CIS(Singlets,NStates=15) pop(full) force
 ------------------------------------------------------------

 -----------------
 AM1-Reparam Input
 -----------------
 Symbolic Z-matrix:
 Charge =  0 Multiplicity = 1

                         Standard orientation:
 ---------------------------------------------------------------------
 Center     Atomic      Atomic             Coordinates (Angstroms)
 Number     Number       Type             X           Y           Z
 ---------------------------------------------------------------------
      1          6           0       -0.281351    1.148219   -0.011564
      2          6           0       -1.110725    0.093769    0.001486
      3          8           0       -0.445888   -1.085625   -0.008252
      4          6           0        0.885337   -0.704822   -0.005958
      5          6           0        1.004143    0.621537    0.018903
      6          1           0        1.947620    1.175873   -0.023501
      7          1           0        1.577096   -1.497072    0.026344
      8          1           0       -2.272191   -0.085348    0.053848
      9          1           0       -0.669843    2.139323   -0.007879
 ---------------------------------------------------------------------

 SCF Done:  E(RAM1) =   2.14633603407     A.U. after   13 cycles

 Excitation energies and oscillator strengths:

 Excited State   1:      Singlet-A      5.6512 eV  219.39 nm  f=0.3237  <S**2>=0.000
      13 -> 14         0.69184
 This state for optimization and/or second-order correction.
 Total Energy, E(CIS) =   2.35401330470
 Copying the excited state density for this state as the 1-particle RhoCI density.

 Excited State   2:      Singlet-A      6.0036 eV  206.52 nm  f=0.0035  <S**2>=0.000
      10 -> 15         0.13133
      13 -> 15         0.67913
      13 -> 17        -0.10079

 Excited State   3:      Singlet-A      6.7189 eV  184.53 nm  f=0.0011  <S**2>=0.000
      10 -> 16        -0.12843
      13 -> 16         0.67158
      13 -> 17        -0.10669
      13 -> 19        -0.10282

 Excited State   4:      Singlet-A      7.5241 eV  164.78 nm  f=0.0003  <S**2>=0.000
      12 -> 14         0.69839

 Excited State   5:      Singlet-A      8.0290 eV  154.42 nm  f=0.0123  <S**2>=0.000
      11 -> 14         0.60777
      13 -> 17        -0.32093

 Excited State   6:      Singlet-A      8.2217 eV  150.80 nm  f=0.0030  <S**2>=0.000
      11 -> 14         0.33089
      13 -> 17         0.54003
      13 -> 18        -0.17255
      13 -> 19        -0.14914
      13 -> 22         0.14756

 Excited State   7:      Singlet-A      8.4650 eV  146.47 nm  f=0.0038  <S**2>=0.000
      13 -> 17         0.24968
      13 -> 18         0.53185
      13 -> 19         0.15577
      13 -> 22        -0.32137

 Excited State   8:      Singlet-A      9.0805 eV  136.54 nm  f=0.0344  <S**2>=0.000
       9 -> 15        -0.10856
      10 -> 14         0.60763
      12 -> 15        -0.21692
      13 -> 20        -0.17580

 Excited State   9:      Singlet-A      9.1412 eV  135.63 nm  f=0.0004  <S**2>=0.000
      13 -> 18        -0.30017
      13 -> 19         0.60137

 Excited State  10:      Singlet-A      9.4265 eV  131.53 nm  f=0.1063  <S**2>=0.000
       9 -> 15         0.16407
      10 -> 14         0.19660
      10 -> 15        -0.11227
      11 -> 15         0.16019
      12 -> 15         0.53639
      12 -> 16        -0.17101

 Excited State  11:      Singlet-A      9.6766 eV  128.13 nm  f=0.0093  <S**2>=0.000
       7 -> 15        -0.11319
      10 -> 15         0.61120
      12 -> 15         0.11364
      13 -> 15        -0.14881
      13 -> 19         0.13859
      13 -> 22         0.12258

 Excited State  12:      Singlet-A      9.7384 eV  127.32 nm  f=0.0409  <S**2>=0.000
       8 -> 15        -0.14178
       9 -> 15        -0.12520
      11 -> 15         0.50511
      11 -> 16         0.13136
      11 -> 17        -0.26148
      12 -> 16         0.14113
      12 -> 18        -0.17923
      13 -> 20        -0.10528

 Excited State  13:      Singlet-A      9.8178 eV  126.28 nm  f=0.0019  <S**2>=0.000
      10 -> 15        -0.18676
      13 -> 18         0.28314
      13 -> 19         0.18448
      13 -> 22         0.57759

 Excited State  14:      Singlet-A     10.0577 eV  123.27 nm  f=0.0896  <S**2>=0.000
      10 -> 16        -0.15588
      13 -> 21         0.65996

 Excited State  15:      Singlet-A     10.1874 eV  121.70 nm  f=0.1581  <S**2>=0.000
       9 -> 16        -0.11203
      11 -> 16        -0.26902
      11 -> 17         0.10692
      12 -> 16         0.57889

 The electronic state is 1-A.
 Alpha  occ. eigenvalues --   -1.93796  -1.21078  -0.92884  -0.80490  -0.78226
 Alpha  occ. eigenvalues --   -0.68857  -0.66307  -0.53812  -0.53272  -0.43754
 Alpha  occ. eigenvalues --   -0.42906  -0.41259  -0.28588
 Alpha virt. eigenvalues --    0.13408   0.15507   0.19360   0.26206   0.28613
 Alpha virt. eigenvalues --    0.30803   0.31629   0.32382   0.34110   0.40447
 Alpha virt. eigenvalues --    0.43721

 Mulliken charges:
               1
     1  C   -0.166481
     2  C   -1.861216
     3  O    3.195160
     4  C   -1.867304
     5  C   -0.118965
     6  H    0.151555
     7  H    0.255934
     8  H    0.255072
     9  H    0.156245
 Sum of Mulliken charges =   0.00000

 Dipole moment (field-independent basis, Debye):
    X=             -4.5828    Y=            -10.5160    Z=              0.0394  Tot=             11.4713
 N-N= 1.043970248116D+02 E-N=-1.698419393783D+02  KE=-1.535482310537D+01
 Orbital energies and kinetic energies (alpha):
                                 1                 2
   1         O                -1.937961         -1.361776
   2         O                -1.210783         -1.072923
   3         O                -0.928841         -0.891835
   4         O                -0.804897         -0.562432
   5         O                -0.782261         -0.670269
   6         O                -0.688571         -0.594547
   7         O                -0.663075         -0.538985

 Normal termination of Gaussian 09 at Tue Dec 15 17:08:41 2015.
