 Gaussian 09, Revision D.01,
 Gaussian 09:  ES64L-G09RevD.01 24-Apr-2013

 ------------------------------------------------------------
 #P AM1(Input,print) CIS(Singlets,NStates=15) pop(full) force
 ------------------------------------------------------------

 -----------------
 AM1-Reparam Input
 -----------------
 Symbolic Z-matrix:
 Charge =  0 Multiplicity = 1

                         Standard orientation:
 ---------------------------------------------------------------------
 Center     Atomic      Atomic             Coordinates (Angstroms)
 Number     Number       Type             X           Y           Z
 ---------------------------------------------------------------------
      1          6           0       -0.791361    0.865569   -0.019063
      2          6           0       -1.080120   -0.487728    0.038010
      3          8           0        0.150444   -1.116339   -0.018479
      4          6           0        1.149966   -0.213091   -0.005149
      5          6           0        0.564242    0.995773    0.007387
      6          1           0        1.120018    1.939580    0.030739
      7          1           0        2.137831   -0.601887    0.036199
      8          1           0       -1.978883   -1.080538   -0.012795
      9          1           0       -1.538885    1.710418   -0.033425
 ---------------------------------------------------------------------

 SCF Done:  E(RAM1) =   1.37937245368     A.U. after   13 cycles

 Excitation energies and oscillator strengths:

 Excited State   1:      Singlet-A      6.2247 eV  199.18 nm  f=0.2824  <S**2>=0.000
      13 -> 14         0.68592
 This state for optimization and/or second-order correction.
 Total Energy, E(CIS) =   1.60812733130
 Copying the excited state density for this state as the 1-particle RhoCI density.

 Excited State   2:      Singlet-A      6.5972 eV  187.93 nm  f=0.0099  <S**2>=0.000
      12 -> 16        -0.10894
      13 -> 15         0.62948
      13 -> 16         0.11581
      13 -> 17        -0.21810

 Excited State   3:      Singlet-A      7.0507 eV  175.85 nm  f=0.0002  <S**2>=0.000
      12 -> 15        -0.17824
      13 -> 15        -0.12951
      13 -> 16         0.62476
      13 -> 21         0.12134
      13 -> 22        -0.12846

 Excited State   4:      Singlet-A      7.6712 eV  161.62 nm  f=0.0009  <S**2>=0.000
       9 -> 14         0.11091
      11 -> 14         0.67030
      13 -> 22         0.10690

 Excited State   5:      Singlet-A      7.7351 eV  160.29 nm  f=0.0101  <S**2>=0.000
      10 -> 14         0.14850
      12 -> 16        -0.12034
      13 -> 15         0.18212
      13 -> 16         0.10234
      13 -> 17         0.63148

 Excited State   6:      Singlet-A      8.1450 eV  152.22 nm  f=0.0003  <S**2>=0.000
      12 -> 15         0.13296
      13 -> 18         0.49658
      13 -> 21        -0.21034
      13 -> 22        -0.39520

 Excited State   7:      Singlet-A      8.2200 eV  150.83 nm  f=0.0055  <S**2>=0.000
      10 -> 14         0.67570
      13 -> 17        -0.14196

 Excited State   8:      Singlet-A      8.5372 eV  145.23 nm  f=0.0266  <S**2>=0.000
      12 -> 14         0.59249
      13 -> 19        -0.34482

 Excited State   9:      Singlet-A      8.9257 eV  138.91 nm  f=0.0032  <S**2>=0.000
      12 -> 15        -0.25395
      13 -> 18         0.45953
      13 -> 22         0.42098

 Excited State  10:      Singlet-A      8.9922 eV  137.88 nm  f=0.0003  <S**2>=0.000
      12 -> 15         0.20657
      13 -> 21         0.63895
      13 -> 22        -0.12825

 Excited State  11:      Singlet-A      9.2010 eV  134.75 nm  f=0.0751  <S**2>=0.000
      12 -> 15         0.14052
      12 -> 16        -0.25516
      13 -> 19         0.20177
      13 -> 20         0.56822
      13 -> 22         0.12587
      13 -> 23        -0.10067

 Excited State  12:      Singlet-A      9.3586 eV  132.48 nm  f=0.0375  <S**2>=0.000
      12 -> 14         0.13441
      12 -> 15         0.43188
      12 -> 16         0.14496
      12 -> 17        -0.12400
      12 -> 20        -0.12043
      13 -> 15        -0.10525
      13 -> 16         0.18618
      13 -> 19         0.23513
      13 -> 20        -0.22467
      13 -> 22         0.26715

 Excited State  13:      Singlet-A      9.4587 eV  131.08 nm  f=0.1368  <S**2>=0.000
      12 -> 14         0.29632
      12 -> 15        -0.25678
      13 -> 18        -0.10503
      13 -> 19         0.49921
      13 -> 20        -0.10461
      13 -> 22        -0.13861

 Excited State  14:      Singlet-A      9.6878 eV  127.98 nm  f=0.0957  <S**2>=0.000
       8 -> 15         0.10687
      10 -> 15        -0.24073
      10 -> 17         0.43271
      11 -> 16         0.17352
      11 -> 17        -0.17198
      11 -> 18         0.31769

 Excited State  15:      Singlet-A      9.8952 eV  125.30 nm  f=0.0047  <S**2>=0.000
      12 -> 15        -0.10817
      12 -> 16         0.55252
      12 -> 21         0.13550
      13 -> 15         0.15471
      13 -> 16         0.11393
      13 -> 20         0.29139
      13 -> 23         0.11597

 The electronic state is 1-A.
 Alpha  occ. eigenvalues --   -1.89831  -1.20115  -0.96398  -0.78798  -0.78020
 Alpha  occ. eigenvalues --   -0.67306  -0.62730  -0.51714  -0.48360  -0.39790
 Alpha  occ. eigenvalues --   -0.38571  -0.37239  -0.26318
 Alpha virt. eigenvalues --    0.17614   0.21449   0.23249   0.26985   0.29470
 Alpha virt. eigenvalues --    0.30088   0.32356   0.33055   0.35317   0.40087
 Alpha virt. eigenvalues --    0.46260

 Mulliken charges:
               1
     1  C   -0.053414
     2  C   -1.591037
     3  O    2.815507
     4  C   -1.574301
     5  C   -0.071612
     6  H    0.069825
     7  H    0.167376
     8  H    0.169006
     9  H    0.068649
 Sum of Mulliken charges =   0.00000

 Dipole moment (field-independent basis, Debye):
    X=              1.4227    Y=             -8.9345    Z=             -0.4257  Tot=              9.0570
 N-N= 1.038349088853D+02 E-N=-1.703168665385D+02  KE=-1.589040237663D+01
 Orbital energies and kinetic energies (alpha):
                                 1                 2
   1         O                -1.898314         -1.392615
   2         O                -1.201146         -1.072399
   3         O                -0.963976         -0.873690
   4         O                -0.787984         -0.673166
   5         O                -0.780199         -0.664275
   6         O                -0.673065         -0.630915
   7         O                -0.627296         -0.550406

 Normal termination of Gaussian 09 at Tue Dec 15 17:07:59 2015.
