 Gaussian 09, Revision D.01,
 Gaussian 09:  ES64L-G09RevD.01 24-Apr-2013

 ------------------------------------------------------------
 #P AM1(Input,print) CIS(Singlets,NStates=15) pop(full) force
 ------------------------------------------------------------

 -----------------
 AM1-Reparam Input
 -----------------
 Symbolic Z-matrix:
 Charge =  0 Multiplicity = 1

                         Standard orientation:
 ---------------------------------------------------------------------
 Center     Atomic      Atomic             Coordinates (Angstroms)
 Number     Number       Type             X           Y           Z
 ---------------------------------------------------------------------
      1          6           0        0.760338    0.887249   -0.009021
      2          6           0        1.077972   -0.418550    0.017701
      3          8           0       -0.077139   -1.163490   -0.014097
      4          6           0       -1.145988   -0.238772    0.027431
      5          6           0       -0.613710    0.982587   -0.024102
      6          1           0       -1.233499    1.867463    0.041784
      7          1           0       -2.067250   -0.683119   -0.020846
      8          1           0        1.969513   -0.900513   -0.005957
      9          1           0        1.476681    1.749002    0.025739
 ---------------------------------------------------------------------

 SCF Done:  E(RAM1) =   2.14887484662     A.U. after   13 cycles

 Excitation energies and oscillator strengths:

 Excited State   1:      Singlet-A      5.6337 eV  220.08 nm  f=0.3225  <S**2>=0.000
      13 -> 14         0.69195
 This state for optimization and/or second-order correction.
 Total Energy, E(CIS) =   2.35590942721
 Copying the excited state density for this state as the 1-particle RhoCI density.

 Excited State   2:      Singlet-A      6.7137 eV  184.67 nm  f=0.0032  <S**2>=0.000
      13 -> 15         0.66470
      13 -> 17        -0.15039

 Excited State   3:      Singlet-A      6.9590 eV  178.16 nm  f=0.0001  <S**2>=0.000
      10 -> 15        -0.10103
      13 -> 16         0.66013
      13 -> 20        -0.14403

 Excited State   4:      Singlet-A      7.4253 eV  166.97 nm  f=0.0007  <S**2>=0.000
      12 -> 14         0.69801

 Excited State   5:      Singlet-A      7.9474 eV  156.01 nm  f=0.0064  <S**2>=0.000
      11 -> 14         0.68843
      13 -> 17        -0.11563

 Excited State   6:      Singlet-A      8.2856 eV  149.64 nm  f=0.0001  <S**2>=0.000
      13 -> 17        -0.20434
      13 -> 18         0.56082
      13 -> 22         0.33202

 Excited State   7:      Singlet-A      8.4804 eV  146.20 nm  f=0.0051  <S**2>=0.000
      10 -> 16        -0.10614
      11 -> 14         0.12332
      13 -> 15         0.12082
      13 -> 17         0.63319
      13 -> 18         0.18926

 Excited State   8:      Singlet-A      9.1381 eV  135.68 nm  f=0.0414  <S**2>=0.000
      10 -> 14         0.62484
      13 -> 19        -0.26876

 Excited State   9:      Singlet-A      9.3009 eV  133.30 nm  f=0.0009  <S**2>=0.000
      10 -> 15        -0.10102
      13 -> 18         0.26718
      13 -> 20         0.56041
      13 -> 21        -0.15987
      13 -> 22        -0.23226

 Excited State  10:      Singlet-A      9.7336 eV  127.38 nm  f=0.0307  <S**2>=0.000
      11 -> 15        -0.20073
      11 -> 16        -0.13110
      11 -> 17         0.25223
      12 -> 15        -0.18153
      12 -> 16         0.15664
      12 -> 18         0.26133
      13 -> 18        -0.16455
      13 -> 20         0.22738
      13 -> 22         0.31798

 Excited State  11:      Singlet-A      9.7738 eV  126.85 nm  f=0.0314  <S**2>=0.000
      11 -> 15         0.12479
      11 -> 17        -0.18568
      12 -> 15         0.14735
      12 -> 16        -0.12676
      12 -> 18        -0.19451
      13 -> 18        -0.19231
      13 -> 19        -0.17019
      13 -> 20         0.27926
      13 -> 21         0.19247
      13 -> 22         0.37438

 Excited State  12:      Singlet-A      9.9403 eV  124.73 nm  f=0.0936  <S**2>=0.000
      10 -> 14         0.23777
      11 -> 16         0.10440
      11 -> 17        -0.11678
      13 -> 19         0.57618
      13 -> 21        -0.16368
      13 -> 22         0.15011

 Excited State  13:      Singlet-A     10.0475 eV  123.40 nm  f=0.0864  <S**2>=0.000
      10 -> 14         0.10736
      10 -> 16         0.10398
      13 -> 19         0.18985
      13 -> 21         0.59334
      13 -> 22        -0.22370

 Excited State  14:      Singlet-A     10.1849 eV  121.73 nm  f=0.1908  <S**2>=0.000
      11 -> 15         0.15907
      11 -> 16         0.19069
      12 -> 15         0.12003
      12 -> 16         0.59571

 Excited State  15:      Singlet-A     10.2299 eV  121.20 nm  f=0.0938  <S**2>=0.000
      11 -> 15        -0.39979
      11 -> 16         0.14234
      12 -> 15         0.49530

 The electronic state is 1-A.
 Alpha  occ. eigenvalues --   -1.93403  -1.20959  -0.94649  -0.80191  -0.80079
 Alpha  occ. eigenvalues --   -0.69658  -0.66213  -0.55785  -0.54154  -0.44432
 Alpha  occ. eigenvalues --   -0.42961  -0.41476  -0.29123
 Alpha virt. eigenvalues --    0.12806   0.19313   0.20015   0.25768   0.27462
 Alpha virt. eigenvalues --    0.29971   0.30685   0.31591   0.33191   0.38535
 Alpha virt. eigenvalues --    0.42340

 Mulliken charges:
               1
     1  C   -0.165072
     2  C   -1.892962
     3  O    3.218006
     4  C   -1.861824
     5  C   -0.132301
     6  H    0.159563
     7  H    0.245576
     8  H    0.267132
     9  H    0.161881
 Sum of Mulliken charges =   0.00000

 Dipole moment (field-independent basis, Debye):
    X=             -0.5495    Y=            -11.0226    Z=             -0.5537  Tot=             11.0502
 N-N= 1.043891215369D+02 E-N=-1.696402636251D+02  KE=-1.537859147884D+01
 Orbital energies and kinetic energies (alpha):
                                 1                 2
   1         O                -1.934026         -1.346073
   2         O                -1.209589         -1.061884
   3         O                -0.946488         -0.898850
   4         O                -0.801906         -0.630426
   5         O                -0.800792         -0.638929
   6         O                -0.696582         -0.590895
   7         O                -0.662126         -0.537228

 Normal termination of Gaussian 09 at Tue Dec 15 17:09:18 2015.
