 Gaussian 09, Revision D.01,
 Gaussian 09:  ES64L-G09RevD.01 24-Apr-2013

 ------------------------------------------------------------
 #P AM1(Input,print) CIS(Singlets,NStates=15) pop(full) force
 ------------------------------------------------------------

 -----------------
 AM1-Reparam Input
 -----------------
 Symbolic Z-matrix:
 Charge =  0 Multiplicity = 1

                         Standard orientation:
 ---------------------------------------------------------------------
 Center     Atomic      Atomic             Coordinates (Angstroms)
 Number     Number       Type             X           Y           Z
 ---------------------------------------------------------------------
      1          6           0        0.910887    0.802540   -0.001698
      2          6           0        0.997376   -0.549908    0.016192
      3          8           0       -0.229411   -1.131440    0.005287
      4          6           0       -1.140191   -0.141281   -0.031029
      5          6           0       -0.524155    1.083897    0.002240
      6          1           0       -0.998771    2.070282    0.039637
      7          1           0       -2.167242   -0.445418    0.063473
      8          1           0        1.798177   -1.214087   -0.038172
      9          1           0        1.739618    1.469259   -0.021473
 ---------------------------------------------------------------------

 SCF Done:  E(RAM1) =   2.03292589224     A.U. after   13 cycles

 Excitation energies and oscillator strengths:

 Excited State   1:      Singlet-A      5.2792 eV  234.85 nm  f=0.3527  <S**2>=0.000
      13 -> 14         0.69563
 This state for optimization and/or second-order correction.
 Total Energy, E(CIS) =   2.22693262884
 Copying the excited state density for this state as the 1-particle RhoCI density.

 Excited State   2:      Singlet-A      6.7670 eV  183.22 nm  f=0.0006  <S**2>=0.000
      12 -> 14         0.66535
      13 -> 15         0.14591
      13 -> 16        -0.10912

 Excited State   3:      Singlet-A      6.7960 eV  182.44 nm  f=0.0149  <S**2>=0.000
      12 -> 14        -0.10807
      13 -> 15         0.60809
      13 -> 16         0.23369
      13 -> 17         0.22726

 Excited State   4:      Singlet-A      6.8458 eV  181.11 nm  f=0.0002  <S**2>=0.000
      12 -> 14         0.18779
      13 -> 15        -0.18414
      13 -> 16         0.56732
      13 -> 18        -0.30386

 Excited State   5:      Singlet-A      7.7676 eV  159.62 nm  f=0.0082  <S**2>=0.000
      10 -> 14         0.66675
      11 -> 14        -0.21517

 Excited State   6:      Singlet-A      7.9017 eV  156.91 nm  f=0.0000  <S**2>=0.000
      13 -> 16        -0.21896
      13 -> 18        -0.36284
      13 -> 19         0.51087
      13 -> 20         0.17636

 Excited State   7:      Singlet-A      8.6626 eV  143.13 nm  f=0.0212  <S**2>=0.000
      11 -> 16        -0.12854
      13 -> 15        -0.19923
      13 -> 17         0.64618

 Excited State   8:      Singlet-A      8.7195 eV  142.19 nm  f=0.1259  <S**2>=0.000
      10 -> 14         0.21465
      11 -> 14         0.66028

 Excited State   9:      Singlet-A      8.9756 eV  138.13 nm  f=0.0005  <S**2>=0.000
      13 -> 16         0.18489
      13 -> 18         0.46792
      13 -> 19         0.46310

 Excited State  10:      Singlet-A      9.5480 eV  129.85 nm  f=0.0070  <S**2>=0.000
      13 -> 18         0.16389
      13 -> 19        -0.12372
      13 -> 20         0.65171
      13 -> 21        -0.12184

 Excited State  11:      Singlet-A      9.6013 eV  129.13 nm  f=0.0165  <S**2>=0.000
       9 -> 16         0.10834
       9 -> 18        -0.10397
      10 -> 15         0.22612
      10 -> 17         0.21289
      12 -> 15        -0.10216
      12 -> 16         0.34949
      12 -> 18        -0.31825
      12 -> 19         0.26945

 Excited State  12:      Singlet-A      9.8903 eV  125.36 nm  f=0.0664  <S**2>=0.000
      13 -> 20         0.13487
      13 -> 21         0.67897

 Excited State  13:      Singlet-A     10.1013 eV  122.74 nm  f=0.0462  <S**2>=0.000
      10 -> 15         0.17328
      10 -> 16        -0.13398
      10 -> 18         0.12234
      12 -> 15         0.58315
      12 -> 17         0.22868

 Excited State  14:      Singlet-A     10.2719 eV  120.70 nm  f=0.2400  <S**2>=0.000
      10 -> 15        -0.28688
      10 -> 16        -0.26696
      10 -> 17        -0.16592
      11 -> 15         0.10584
      12 -> 16         0.47260
      12 -> 18        -0.10093
      12 -> 19        -0.16098

 Excited State  15:      Singlet-A     10.3480 eV  119.81 nm  f=0.0013  <S**2>=0.000
       9 -> 14         0.11616
      10 -> 15         0.17777
      11 -> 15         0.58516
      11 -> 16         0.14184
      11 -> 17         0.13388
      13 -> 16        -0.12244

 The electronic state is 1-A.
 Alpha  occ. eigenvalues --   -1.94531  -1.18906  -0.96231  -0.82708  -0.78612
 Alpha  occ. eigenvalues --   -0.68971  -0.65101  -0.55131  -0.53925  -0.44588
 Alpha  occ. eigenvalues --   -0.44461  -0.41622  -0.29381
 Alpha virt. eigenvalues --    0.10388   0.19114   0.19792   0.25689   0.26922
 Alpha virt. eigenvalues --    0.28719   0.29929   0.30703   0.36114   0.44894
 Alpha virt. eigenvalues --    0.49463

 Mulliken charges:
               1
     1  C   -0.195839
     2  C   -2.001801
     3  O    3.181286
     4  C   -2.008737
     5  C   -0.214552
     6  H    0.256396
     7  H    0.368765
     8  H    0.360903
     9  H    0.253578
 Sum of Mulliken charges =   0.00000

 Dipole moment (field-independent basis, Debye):
    X=             -2.0100    Y=             -9.9152    Z=              0.2781  Tot=             10.1207
 N-N= 1.043316811331D+02 E-N=-1.696197764795D+02  KE=-1.549441053230D+01
 Orbital energies and kinetic energies (alpha):
                                 1                 2
   1         O                -1.945308         -1.394516
   2         O                -1.189056         -1.057268
   3         O                -0.962306         -0.866204
   4         O                -0.827079         -0.612295
   5         O                -0.786119         -0.679305
   6         O                -0.689706         -0.563705
   7         O                -0.651015         -0.517757

 Normal termination of Gaussian 09 at Tue Dec 15 17:07:24 2015.
