 Gaussian 09, Revision D.01,
 Gaussian 09:  ES64L-G09RevD.01 24-Apr-2013

 ------------------------------------------------------------
 #P AM1(Input,print) CIS(Singlets,NStates=15) pop(full) force
 ------------------------------------------------------------

 -----------------
 AM1-Reparam Input
 -----------------
 Symbolic Z-matrix:
 Charge =  0 Multiplicity = 1

                         Standard orientation:
 ---------------------------------------------------------------------
 Center     Atomic      Atomic             Coordinates (Angstroms)
 Number     Number       Type             X           Y           Z
 ---------------------------------------------------------------------
      1          6           0        0.189453    1.179624   -0.007322
      2          6           0        1.110218    0.098785   -0.010080
      3          8           0        0.524540   -1.018994    0.021351
      4          6           0       -0.864042   -0.752405   -0.027256
      5          6           0       -1.003499    0.533802    0.034799
      6          1           0       -2.008220    1.067352   -0.039839
      7          1           0       -1.475100   -1.599951   -0.033952
      8          1           0        2.209512    0.142955   -0.033423
      9          1           0        0.484703    2.182759   -0.004430
 ---------------------------------------------------------------------

 SCF Done:  E(RAM1) =   2.56753177438     A.U. after   14 cycles

 Excitation energies and oscillator strengths:

 Excited State   1:      Singlet-A      5.6565 eV  219.19 nm  f=0.3195  <S**2>=0.000
      13 -> 14         0.69116
 This state for optimization and/or second-order correction.
 Total Energy, E(CIS) =   2.77540437577
 Copying the excited state density for this state as the 1-particle RhoCI density.

 Excited State   2:      Singlet-A      6.1432 eV  201.82 nm  f=0.0037  <S**2>=0.000
      10 -> 15        -0.10079
      13 -> 15         0.65661
      13 -> 17        -0.20327

 Excited State   3:      Singlet-A      6.9270 eV  178.99 nm  f=0.0022  <S**2>=0.000
       9 -> 14        -0.10849
      12 -> 14         0.69093

 Excited State   4:      Singlet-A      7.1412 eV  173.62 nm  f=0.0013  <S**2>=0.000
      10 -> 16         0.12122
      13 -> 16         0.65764
      13 -> 19         0.15218

 Excited State   5:      Singlet-A      7.9710 eV  155.54 nm  f=0.0067  <S**2>=0.000
      10 -> 14        -0.13353
      11 -> 14         0.49285
      13 -> 15        -0.11888
      13 -> 17        -0.40403
      13 -> 18        -0.11843
      13 -> 21        -0.14808

 Excited State   6:      Singlet-A      8.0840 eV  153.37 nm  f=0.0001  <S**2>=0.000
      10 -> 14        -0.11050
      11 -> 14         0.45559
      13 -> 15         0.11223
      13 -> 17         0.44541
      13 -> 18         0.13748
      13 -> 19         0.12193
      13 -> 21         0.12352

 Excited State   7:      Singlet-A      8.4446 eV  146.82 nm  f=0.0082  <S**2>=0.000
      13 -> 17        -0.24642
      13 -> 18         0.55169
      13 -> 19         0.19676
      13 -> 21         0.25612

 Excited State   8:      Singlet-A      8.8383 eV  140.28 nm  f=0.0148  <S**2>=0.000
      10 -> 14         0.49161
      11 -> 14         0.11392
      11 -> 15         0.15690
      11 -> 16         0.14620
      11 -> 17        -0.11073
      12 -> 15         0.21414
      12 -> 17        -0.25404
      12 -> 18        -0.14900

 Excited State   9:      Singlet-A      9.0125 eV  137.57 nm  f=0.0004  <S**2>=0.000
      10 -> 16        -0.11349
      13 -> 16        -0.11173
      13 -> 17        -0.10716
      13 -> 18        -0.32925
      13 -> 19         0.54543
      13 -> 20        -0.10658
      13 -> 21         0.15341

 Excited State  10:      Singlet-A      9.2458 eV  134.10 nm  f=0.0510  <S**2>=0.000
       8 -> 15         0.12810
      10 -> 14        -0.29694
      11 -> 15        -0.16101
      12 -> 15         0.54399
      12 -> 17        -0.11868

 Excited State  11:      Singlet-A      9.4291 eV  131.49 nm  f=0.0883  <S**2>=0.000
       9 -> 15        -0.21726
      10 -> 14        -0.23950
      11 -> 15         0.54734
      11 -> 17        -0.17226
      11 -> 18         0.13365

 Excited State  12:      Singlet-A      9.5656 eV  129.61 nm  f=0.0187  <S**2>=0.000
       7 -> 15         0.12888
      10 -> 15         0.63688
      13 -> 15         0.13717

 Excited State  13:      Singlet-A      9.7246 eV  127.50 nm  f=0.2090  <S**2>=0.000
       9 -> 15         0.10347
       9 -> 16         0.11220
      12 -> 15        -0.11400
      12 -> 16         0.52762
      12 -> 17        -0.20595
      12 -> 18        -0.25162
      12 -> 19         0.12755

 Excited State  14:      Singlet-A      9.7809 eV  126.76 nm  f=0.0070  <S**2>=0.000
       9 -> 14        -0.16520
      13 -> 18        -0.18115
      13 -> 19        -0.28573
      13 -> 20        -0.21543
      13 -> 21         0.53082

 Excited State  15:      Singlet-A      9.8429 eV  125.96 nm  f=0.1370  <S**2>=0.000
      10 -> 14         0.23829
      11 -> 16        -0.10062
      12 -> 15         0.14387
      12 -> 16         0.40100
      12 -> 17         0.25202
      12 -> 18         0.32638
      12 -> 20        -0.12526

 The electronic state is 1-A.
 Alpha  occ. eigenvalues --   -1.76600  -1.18349  -0.95944  -0.81216  -0.76506
 Alpha  occ. eigenvalues --   -0.67711  -0.66271  -0.55611  -0.49470  -0.44440
 Alpha  occ. eigenvalues --   -0.43804  -0.40064  -0.29972
 Alpha virt. eigenvalues --    0.12390   0.15417   0.20206   0.23800   0.27142
 Alpha virt. eigenvalues --    0.28484   0.31937   0.33081   0.41317   0.50292
 Alpha virt. eigenvalues --    0.54925

 Mulliken charges:
               1
     1  C   -0.144856
     2  C   -1.999421
     3  O    3.224946
     4  C   -1.888449
     5  C    0.033788
     6  H    0.113323
     7  H    0.241871
     8  H    0.292638
     9  H    0.126161
 Sum of Mulliken charges =   0.00000

 Dipole moment (field-independent basis, Debye):
    X=              5.0315    Y=             -8.9248    Z=              0.4924  Tot=             10.2572
 N-N= 1.046008133028D+02 E-N=-1.700273456492D+02  KE=-1.512007623438D+01
 Orbital energies and kinetic energies (alpha):
                                 1                 2
   1         O                -1.765995         -1.274886
   2         O                -1.183494         -1.030649
   3         O                -0.959438         -0.872075
   4         O                -0.812164         -0.609267
   5         O                -0.765056         -0.685750
   6         O                -0.677108         -0.573835
   7         O                -0.662712         -0.532599

 Normal termination of Gaussian 09 at Tue Dec 15 17:06:26 2015.
