 Gaussian 09, Revision D.01,
 Gaussian 09:  ES64L-G09RevD.01 24-Apr-2013

 ------------------------------------------------------------
 #P AM1(Input,print) CIS(Singlets,NStates=15) pop(full) force
 ------------------------------------------------------------

 -----------------
 AM1-Reparam Input
 -----------------
 Symbolic Z-matrix:
 Charge =  0 Multiplicity = 1

                         Standard orientation:
 ---------------------------------------------------------------------
 Center     Atomic      Atomic             Coordinates (Angstroms)
 Number     Number       Type             X           Y           Z
 ---------------------------------------------------------------------
      1          6           0        0.225668    1.175268    0.009621
      2          6           0        1.134246    0.127333   -0.014697
      3          8           0        0.512387   -1.068016    0.009717
      4          6           0       -0.839463   -0.714196   -0.009019
      5          6           0       -1.062685    0.545460   -0.011297
      6          1           0       -1.968830    1.034051    0.041291
      7          1           0       -1.511663   -1.649770    0.015622
      8          1           0        2.190800    0.169636    0.015316
      9          1           0        0.443995    2.187015    0.002382
 ---------------------------------------------------------------------

 SCF Done:  E(RAM1) =   2.64236587377     A.U. after   13 cycles

 Excitation energies and oscillator strengths:

 Excited State   1:      Singlet-A      5.0143 eV  247.26 nm  f=0.3532  <S**2>=0.000
      13 -> 14         0.69923
 This state for optimization and/or second-order correction.
 Total Energy, E(CIS) =   2.82663787279
 Copying the excited state density for this state as the 1-particle RhoCI density.

 Excited State   2:      Singlet-A      5.8286 eV  212.72 nm  f=0.0001  <S**2>=0.000
      13 -> 15         0.65659
      13 -> 16        -0.15901
      13 -> 17         0.12816
      13 -> 19         0.10828

 Excited State   3:      Singlet-A      6.2659 eV  197.87 nm  f=0.0028  <S**2>=0.000
      13 -> 15         0.16900
      13 -> 16         0.65963
      13 -> 18        -0.11017

 Excited State   4:      Singlet-A      6.4899 eV  191.04 nm  f=0.0002  <S**2>=0.000
      12 -> 14         0.70061

 Excited State   5:      Singlet-A      7.5302 eV  164.65 nm  f=0.0051  <S**2>=0.000
      10 -> 14         0.55419
      11 -> 14        -0.42844

 Excited State   6:      Singlet-A      7.7088 eV  160.84 nm  f=0.0004  <S**2>=0.000
      13 -> 15        -0.10160
      13 -> 17         0.67263
      13 -> 21         0.11360

 Excited State   7:      Singlet-A      8.5257 eV  145.42 nm  f=0.1049  <S**2>=0.000
      10 -> 14         0.40803
      11 -> 14         0.52508
      12 -> 15        -0.17442

 Excited State   8:      Singlet-A      9.0069 eV  137.65 nm  f=0.2127  <S**2>=0.000
       8 -> 15        -0.10045
       9 -> 16        -0.11433
      10 -> 14         0.12345
      11 -> 14         0.16597
      12 -> 15         0.57495
      12 -> 16        -0.15368
      12 -> 17         0.19962

 Excited State   9:      Singlet-A      9.1003 eV  136.24 nm  f=0.0100  <S**2>=0.000
      10 -> 15         0.14521
      11 -> 15         0.22670
      11 -> 16        -0.11345
      13 -> 18         0.61180
      13 -> 19        -0.10963

 Excited State  10:      Singlet-A      9.3460 eV  132.66 nm  f=0.0001  <S**2>=0.000
      10 -> 16        -0.16348
      11 -> 16        -0.22039
      13 -> 19         0.63178

 Excited State  11:      Singlet-A      9.5678 eV  129.58 nm  f=0.0525  <S**2>=0.000
       9 -> 15        -0.11148
      10 -> 15         0.21990
      10 -> 16         0.12756
      10 -> 18        -0.14342
      11 -> 15        -0.20638
      11 -> 16        -0.10166
      11 -> 18         0.10845
      12 -> 15         0.27101
      12 -> 16         0.35878
      12 -> 17        -0.31215

 Excited State  12:      Singlet-A      9.8323 eV  126.10 nm  f=0.1241  <S**2>=0.000
      10 -> 16        -0.35772
      10 -> 18         0.12058
      11 -> 16         0.27452
      12 -> 16         0.40446
      12 -> 17         0.18898
      12 -> 18        -0.10169
      12 -> 19        -0.10207

 Excited State  13:      Singlet-A      9.9769 eV  124.27 nm  f=0.0012  <S**2>=0.000
       7 -> 15        -0.11361
      10 -> 15         0.32633
      11 -> 15         0.51388
      13 -> 15        -0.12568
      13 -> 18        -0.26375

 Excited State  14:      Singlet-A     10.1125 eV  122.60 nm  f=0.0002  <S**2>=0.000
      10 -> 15        -0.12187
      10 -> 16         0.34775
      11 -> 15         0.10635
      11 -> 16         0.43391
      13 -> 16         0.12098
      13 -> 18         0.16390
      13 -> 19         0.23191

 Excited State  15:      Singlet-A     10.1564 eV  122.07 nm  f=0.0030  <S**2>=0.000
       8 -> 15         0.23294
       9 -> 15         0.14385
      10 -> 15         0.40385
      10 -> 16         0.10129
      10 -> 19         0.12219
      11 -> 15        -0.18955
      11 -> 16         0.18324
      12 -> 16        -0.24675
      12 -> 17         0.10892
      12 -> 18        -0.11356

 The electronic state is 1-A.
 Alpha  occ. eigenvalues --   -1.84273  -1.13725  -0.87159  -0.79217  -0.74804
 Alpha  occ. eigenvalues --   -0.67062  -0.62976  -0.54556  -0.53561  -0.44385
 Alpha  occ. eigenvalues --   -0.44177  -0.41243  -0.28541
 Alpha virt. eigenvalues --    0.09970   0.15884   0.17925   0.26542   0.29171
 Alpha virt. eigenvalues --    0.30595   0.37470   0.42107   0.47679   0.55948
 Alpha virt. eigenvalues --    0.58868

 Mulliken charges:
               1
     1  C   -0.223693
     2  C   -2.020794
     3  O    3.426755
     4  C   -1.945304
     5  C   -0.142190
     6  H    0.177033
     7  H    0.268019
     8  H    0.280854
     9  H    0.179320
 Sum of Mulliken charges =   0.00000

 Dipole moment (field-independent basis, Debye):
    X=              4.8041    Y=            -11.3288    Z=              0.4316  Tot=             12.3129
 N-N= 1.041810360419D+02 E-N=-1.699802523124D+02  KE=-1.438350937665D+01
 Orbital energies and kinetic energies (alpha):
                                 1                 2
   1         O                -1.842728         -1.237778
   2         O                -1.137251         -0.991405
   3         O                -0.871590         -0.815616
   4         O                -0.792170         -0.516523
   5         O                -0.748041         -0.610118
   6         O                -0.670616         -0.550223
   7         O                -0.629755         -0.499694

 Normal termination of Gaussian 09 at Tue Dec 15 17:07:34 2015.
