 Gaussian 09, Revision D.01,
 Gaussian 09:  ES64L-G09RevD.01 24-Apr-2013

 ------------------------------------------------------------
 #P AM1(Input,print) CIS(Singlets,NStates=15) pop(full) force
 ------------------------------------------------------------

 -----------------
 AM1-Reparam Input
 -----------------
 Symbolic Z-matrix:
 Charge =  0 Multiplicity = 1

                         Standard orientation:
 ---------------------------------------------------------------------
 Center     Atomic      Atomic             Coordinates (Angstroms)
 Number     Number       Type             X           Y           Z
 ---------------------------------------------------------------------
      1          6           0        0.906798    0.776835   -0.013504
      2          6           0        1.034385   -0.574751    0.020855
      3          8           0       -0.305036   -1.109669   -0.002194
      4          6           0       -1.147473   -0.105361   -0.002074
      5          6           0       -0.458687    1.060529   -0.015200
      6          1           0       -0.909003    2.133576    0.071905
      7          1           0       -2.221451   -0.316488    0.014679
      8          1           0        1.834847   -1.276483   -0.028184
      9          1           0        1.725766    1.393239    0.018693
 ---------------------------------------------------------------------

 SCF Done:  E(RAM1) =  -4.72772398294     A.U. after   14 cycles

 Excitation energies and oscillator strengths:

 Excited State   1:      Singlet-A      6.8633 eV  180.65 nm  f=0.3511  <S**2>=0.000
      13 -> 14         0.68953
 This state for optimization and/or second-order correction.
 Total Energy, E(CIS) =  -4.47550303912
 Copying the excited state density for this state as the 1-particle RhoCI density.

 Excited State   2:      Singlet-A      8.0225 eV  154.55 nm  f=0.0108  <S**2>=0.000
       9 -> 14        -0.10295
      12 -> 14         0.67692
      13 -> 15         0.10327

 Excited State   3:      Singlet-A      8.2256 eV  150.73 nm  f=0.0027  <S**2>=0.000
      12 -> 14        -0.11579
      13 -> 15         0.66307
      13 -> 19        -0.13147

 Excited State   4:      Singlet-A      8.4208 eV  147.24 nm  f=0.0057  <S**2>=0.000
      11 -> 14         0.68680

 Excited State   5:      Singlet-A      9.0057 eV  137.67 nm  f=0.0035  <S**2>=0.000
      10 -> 16         0.10082
      13 -> 16         0.66018
      13 -> 17        -0.11402
      13 -> 21        -0.14043

 Excited State   6:      Singlet-A     10.1604 eV  122.03 nm  f=0.0139  <S**2>=0.000
      10 -> 14         0.56258
      13 -> 18         0.39681

 Excited State   7:      Singlet-A     10.2034 eV  121.51 nm  f=0.0037  <S**2>=0.000
      13 -> 16         0.11391
      13 -> 17         0.65103
      13 -> 18        -0.15258
      13 -> 22        -0.10649

 Excited State   8:      Singlet-A     10.6721 eV  116.18 nm  f=0.0220  <S**2>=0.000
      10 -> 15        -0.15931
      13 -> 15         0.12766
      13 -> 17         0.11368
      13 -> 19         0.60415
      13 -> 21        -0.16924
      13 -> 22         0.14940

 Excited State   9:      Singlet-A     10.9963 eV  112.75 nm  f=0.1449  <S**2>=0.000
       9 -> 14         0.31650
      10 -> 14        -0.31867
      12 -> 15        -0.12843
      13 -> 17         0.12609
      13 -> 18         0.46326

 Excited State  10:      Singlet-A     11.0128 eV  112.58 nm  f=0.0500  <S**2>=0.000
      10 -> 14        -0.13400
      12 -> 15         0.64061
      12 -> 19        -0.13960

 Excited State  11:      Singlet-A     11.1472 eV  111.22 nm  f=0.0834  <S**2>=0.000
       9 -> 14         0.57552
      10 -> 14         0.17930
      13 -> 18        -0.27612

 Excited State  12:      Singlet-A     11.3520 eV  109.22 nm  f=0.0326  <S**2>=0.000
      10 -> 16        -0.15347
      13 -> 19        -0.15877
      13 -> 20         0.51438
      13 -> 21        -0.29074
      13 -> 22         0.24551

 Excited State  13:      Singlet-A     11.4382 eV  108.39 nm  f=0.1649  <S**2>=0.000
       8 -> 15         0.14273
       9 -> 15        -0.14624
      11 -> 15         0.26996
      11 -> 19        -0.13809
      12 -> 15         0.10413
      12 -> 16        -0.26034
      12 -> 17         0.44574
      12 -> 18        -0.10975
      12 -> 19        -0.11662

 Excited State  14:      Singlet-A     11.6290 eV  106.62 nm  f=0.0033  <S**2>=0.000
       9 -> 14        -0.11968
      10 -> 15         0.27723
      10 -> 16         0.13659
      13 -> 19         0.21469
      13 -> 20         0.39117
      13 -> 21         0.38356
      13 -> 22        -0.14272

 Excited State  15:      Singlet-A     11.8412 eV  104.71 nm  f=0.0187  <S**2>=0.000
      10 -> 15         0.55298
      10 -> 19        -0.11866
      13 -> 15         0.13552
      13 -> 20        -0.18123
      13 -> 21        -0.28538

 The electronic state is 1-A.
 Alpha  occ. eigenvalues --   -3.90600  -1.19920  -0.92287  -0.85066  -0.84216
 Alpha  occ. eigenvalues --   -0.77781  -0.74794  -0.61150  -0.55036  -0.51955
 Alpha  occ. eigenvalues --   -0.48924  -0.47080  -0.37090
 Alpha virt. eigenvalues --    0.10171   0.16020   0.20145   0.24519   0.24715
 Alpha virt. eigenvalues --    0.26877   0.29630   0.33091   0.36325   0.38925
 Alpha virt. eigenvalues --    0.43304

 Mulliken charges:
               1
     1  C   -0.241578
     2  C   -1.550311
     3  O    2.793222
     4  C   -1.581348
     5  C   -0.336108
     6  H    0.220452
     7  H    0.260558
     8  H    0.227038
     9  H    0.208075
 Sum of Mulliken charges =   0.00000

 Dipole moment (field-independent basis, Debye):
    X=             -3.1940    Y=             -9.3285    Z=             -0.0582  Tot=              9.8604
 N-N= 1.048759611001D+02 E-N=-1.730076151210D+02  KE=-2.168179700115D+01
 Orbital energies and kinetic energies (alpha):
                                 1                 2
   1         O                -3.906005         -3.236992
   2         O                -1.199204         -1.053590
   3         O                -0.922870         -0.686165
   4         O                -0.850658         -0.802715
   5         O                -0.842158         -0.740526
   6         O                -0.777809         -0.801134
   7         O                -0.747935         -0.650885

 Normal termination of Gaussian 09 at Fri Dec 11 13:41:37 2015.
