 Gaussian 09, Revision D.01,
 Gaussian 09:  ES64L-G09RevD.01 24-Apr-2013

 ------------------------------------------------------------
 #P AM1(Input,print) CIS(Singlets,NStates=15) pop(full) force
 ------------------------------------------------------------

 -----------------
 AM1-Reparam Input
 -----------------
 Symbolic Z-matrix:
 Charge =  0 Multiplicity = 1

                         Standard orientation:
 ---------------------------------------------------------------------
 Center     Atomic      Atomic             Coordinates (Angstroms)
 Number     Number       Type             X           Y           Z
 ---------------------------------------------------------------------
      1          6           0        0.840675    0.877418   -0.029393
      2          6           0        1.038816   -0.456998    0.034124
      3          8           0       -0.116515   -1.147392   -0.019207
      4          6           0       -1.156456   -0.208652   -0.009037
      5          6           0       -0.596202    1.016042    0.020733
      6          1           0       -1.148709    1.900270    0.001793
      7          1           0       -2.129475   -0.596731    0.043148
      8          1           0        1.885026   -1.071493    0.022402
      9          1           0        1.564279    1.580225   -0.012250
 ---------------------------------------------------------------------

 SCF Done:  E(RAM1) =   1.73719939759     A.U. after   14 cycles

 Excitation energies and oscillator strengths:

 Excited State   1:      Singlet-A      5.2761 eV  234.99 nm  f=0.3405  <S**2>=0.000
      13 -> 14         0.69410
 This state for optimization and/or second-order correction.
 Total Energy, E(CIS) =   1.93109093682
 Copying the excited state density for this state as the 1-particle RhoCI density.

 Excited State   2:      Singlet-A      6.1694 eV  200.97 nm  f=0.0029  <S**2>=0.000
      11 -> 15         0.11054
      13 -> 15         0.65232
      13 -> 17         0.21034

 Excited State   3:      Singlet-A      6.6558 eV  186.28 nm  f=0.0028  <S**2>=0.000
      11 -> 16        -0.10932
      13 -> 16         0.62659
      13 -> 17         0.12909
      13 -> 18         0.12069
      13 -> 19         0.22183

 Excited State   4:      Singlet-A      7.0338 eV  176.27 nm  f=0.0007  <S**2>=0.000
      12 -> 14         0.66698
      13 -> 19         0.14654

 Excited State   5:      Singlet-A      7.3634 eV  168.38 nm  f=0.0036  <S**2>=0.000
      12 -> 14        -0.19179
      13 -> 15         0.13892
      13 -> 17        -0.27717
      13 -> 18        -0.13325
      13 -> 19         0.50359
      13 -> 20         0.27255

 Excited State   6:      Singlet-A      7.7341 eV  160.31 nm  f=0.0248  <S**2>=0.000
      11 -> 16         0.10332
      13 -> 15        -0.15145
      13 -> 16        -0.16339
      13 -> 17         0.58343
      13 -> 18        -0.12190
      13 -> 19         0.21370
      13 -> 20         0.12994

 Excited State   7:      Singlet-A      8.1826 eV  151.52 nm  f=0.0022  <S**2>=0.000
      10 -> 14         0.67438
      13 -> 18         0.13987

 Excited State   8:      Singlet-A      8.3547 eV  148.40 nm  f=0.0003  <S**2>=0.000
      10 -> 14        -0.15375
      13 -> 16        -0.16790
      13 -> 18         0.58420
      13 -> 19         0.21551
      13 -> 20        -0.16781

 Excited State   9:      Singlet-A      8.6725 eV  142.96 nm  f=0.0894  <S**2>=0.000
      11 -> 14         0.66553

 Excited State  10:      Singlet-A      8.7946 eV  140.98 nm  f=0.0063  <S**2>=0.000
      11 -> 14        -0.11115
      13 -> 18         0.27097
      13 -> 19        -0.23464
      13 -> 20         0.55277
      13 -> 21        -0.21803

 Excited State  11:      Singlet-A      9.1681 eV  135.23 nm  f=0.0767  <S**2>=0.000
      13 -> 20         0.22076
      13 -> 21         0.63353

 Excited State  12:      Singlet-A      9.4308 eV  131.47 nm  f=0.0470  <S**2>=0.000
       8 -> 15         0.13742
       9 -> 15        -0.11466
      10 -> 16         0.13820
      10 -> 17         0.20998
      12 -> 15         0.40447
      12 -> 16        -0.18994
      12 -> 17         0.13968
      12 -> 19        -0.23725
      12 -> 20        -0.18169
      13 -> 21         0.15166

 Excited State  13:      Singlet-A      9.7692 eV  126.91 nm  f=0.0089  <S**2>=0.000
       7 -> 15        -0.12625
      11 -> 15         0.59582
      11 -> 16         0.12188
      11 -> 17         0.14302
      12 -> 15         0.12274
      12 -> 20         0.11883
      13 -> 15        -0.12765

 Excited State  14:      Singlet-A      9.9673 eV  124.39 nm  f=0.1050  <S**2>=0.000
       8 -> 15         0.13635
      10 -> 15        -0.16935
      10 -> 17        -0.13436
      11 -> 14        -0.14675
      11 -> 15        -0.20912
      12 -> 15         0.42159
      12 -> 16         0.20210
      12 -> 19         0.14224
      12 -> 20         0.26762

 Excited State  15:      Singlet-A     10.1165 eV  122.56 nm  f=0.2065  <S**2>=0.000
       9 -> 16         0.11225
      10 -> 15         0.11046
      10 -> 16         0.19759
      10 -> 17         0.12916
      12 -> 16         0.53926
      12 -> 17         0.23686
      12 -> 18         0.12187
      12 -> 20        -0.10932

 The electronic state is 1-A.
 Alpha  occ. eigenvalues --   -1.91389  -1.22600  -1.00714  -0.83227  -0.80975
 Alpha  occ. eigenvalues --   -0.69514  -0.63294  -0.54745  -0.52050  -0.44339
 Alpha  occ. eigenvalues --   -0.42601  -0.40703  -0.27532
 Alpha virt. eigenvalues --    0.12379   0.17905   0.20002   0.25099   0.27948
 Alpha virt. eigenvalues --    0.28647   0.29336   0.30209   0.35523   0.44507
 Alpha virt. eigenvalues --    0.49141

 Mulliken charges:
               1
     1  C   -0.164835
     2  C   -1.931968
     3  O    3.182524
     4  C   -1.922147
     5  C   -0.107165
     6  H    0.175113
     7  H    0.292695
     8  H    0.292206
     9  H    0.183576
 Sum of Mulliken charges =   0.00000

 Dipole moment (field-independent basis, Debye):
    X=             -0.8471    Y=            -10.6212    Z=             -0.3299  Tot=             10.6600
 N-N= 1.041787754230D+02 E-N=-1.696297583047D+02  KE=-1.577972454072D+01
 Orbital energies and kinetic energies (alpha):
                                 1                 2
   1         O                -1.913891         -1.372994
   2         O                -1.226005         -1.104912
   3         O                -1.007139         -0.928865
   4         O                -0.832267         -0.647640
   5         O                -0.809746         -0.701090
   6         O                -0.695139         -0.586001
   7         O                -0.632937         -0.510762

 Normal termination of Gaussian 09 at Tue Dec 15 17:07:06 2015.
