 Gaussian 09, Revision D.01,
 Gaussian 09:  ES64L-G09RevD.01 24-Apr-2013

 ------------------------------------------------------------
 #P AM1(Input,print) CIS(Singlets,NStates=15) pop(full) force
 ------------------------------------------------------------

 -----------------
 AM1-Reparam Input
 -----------------
 Symbolic Z-matrix:
 Charge =  0 Multiplicity = 1

                         Standard orientation:
 ---------------------------------------------------------------------
 Center     Atomic      Atomic             Coordinates (Angstroms)
 Number     Number       Type             X           Y           Z
 ---------------------------------------------------------------------
      1          6           0       -0.244090    1.138976    0.015891
      2          6           0       -1.154905    0.138667   -0.008544
      3          8           0       -0.490985   -1.047759    0.008506
      4          6           0        0.834666   -0.734532   -0.013608
      5          6           0        1.090518    0.567164   -0.001785
      6          1           0        1.981054    1.088215   -0.020108
      7          1           0        1.450457   -1.651998    0.033422
      8          1           0       -2.169599    0.093377   -0.031228
      9          1           0       -0.491172    2.190821   -0.001858
 ---------------------------------------------------------------------

 SCF Done:  E(RAM1) =   2.14475349723     A.U. after   13 cycles

 Excitation energies and oscillator strengths:

 Excited State   1:      Singlet-A      5.3811 eV  230.41 nm  f=0.3549  <S**2>=0.000
      13 -> 14         0.69617
 This state for optimization and/or second-order correction.
 Total Energy, E(CIS) =   2.34250677828
 Copying the excited state density for this state as the 1-particle RhoCI density.

 Excited State   2:      Singlet-A      6.1263 eV  202.38 nm  f=0.0004  <S**2>=0.000
      11 -> 15         0.11635
      13 -> 15         0.67923
      13 -> 17        -0.10365

 Excited State   3:      Singlet-A      6.6946 eV  185.20 nm  f=0.0018  <S**2>=0.000
      11 -> 16        -0.10460
      13 -> 16         0.66751
      13 -> 17        -0.10423
      13 -> 18         0.12500

 Excited State   4:      Singlet-A      7.0409 eV  176.09 nm  f=0.0001  <S**2>=0.000
      12 -> 14         0.69998

 Excited State   5:      Singlet-A      7.9099 eV  156.75 nm  f=0.0045  <S**2>=0.000
      13 -> 17         0.45246
      13 -> 18         0.42084
      13 -> 19        -0.12761
      13 -> 22        -0.27157

 Excited State   6:      Singlet-A      8.2761 eV  149.81 nm  f=0.0073  <S**2>=0.000
      10 -> 14         0.63570
      11 -> 14        -0.16331
      13 -> 17         0.12925
      13 -> 18        -0.18568

 Excited State   7:      Singlet-A      8.5218 eV  145.49 nm  f=0.0042  <S**2>=0.000
      10 -> 14        -0.22744
      11 -> 16        -0.10698
      13 -> 16         0.12687
      13 -> 17         0.48871
      13 -> 18        -0.37358
      13 -> 22         0.16148

 Excited State   8:      Singlet-A      8.9913 eV  137.89 nm  f=0.0691  <S**2>=0.000
      10 -> 14         0.16271
      11 -> 14         0.60744
      12 -> 15         0.20678
      13 -> 21         0.15934

 Excited State   9:      Singlet-A      9.0822 eV  136.51 nm  f=0.0030  <S**2>=0.000
      13 -> 18         0.14372
      13 -> 19         0.67017

 Excited State  10:      Singlet-A      9.4622 eV  131.03 nm  f=0.1156  <S**2>=0.000
       8 -> 15        -0.12009
       9 -> 15         0.11444
      11 -> 14        -0.19237
      12 -> 15         0.54702
      12 -> 16        -0.18398
      12 -> 17        -0.11862
      12 -> 18        -0.15176

 Excited State  11:      Singlet-A      9.6067 eV  129.06 nm  f=0.0023  <S**2>=0.000
      13 -> 18         0.31509
      13 -> 20        -0.24639
      13 -> 22         0.55928

 Excited State  12:      Singlet-A      9.8753 eV  125.55 nm  f=0.0941  <S**2>=0.000
      11 -> 16        -0.10084
      13 -> 20         0.60093
      13 -> 21         0.16736
      13 -> 22         0.26716

 Excited State  13:      Singlet-A     10.0775 eV  123.03 nm  f=0.0464  <S**2>=0.000
      10 -> 15         0.12259
      10 -> 17        -0.10379
      11 -> 14        -0.11040
      11 -> 15        -0.23383
      12 -> 15         0.21092
      12 -> 16         0.51123
      12 -> 18         0.22711

 Excited State  14:      Singlet-A     10.1454 eV  122.21 nm  f=0.1011  <S**2>=0.000
      10 -> 16        -0.20144
      10 -> 17         0.13448
      11 -> 15         0.36535
      11 -> 16         0.12206
      12 -> 16         0.34387
      12 -> 17        -0.26981
      12 -> 18        -0.14305

 Excited State  15:      Singlet-A     10.1853 eV  121.73 nm  f=0.0841  <S**2>=0.000
       7 -> 15        -0.10170
      10 -> 15         0.22165
      10 -> 16         0.16498
      10 -> 17        -0.14844
      11 -> 15         0.46631
      12 -> 15         0.12064
      12 -> 17         0.22014
      12 -> 18         0.19556
      13 -> 15        -0.10771

 The electronic state is 1-A.
 Alpha  occ. eigenvalues --   -1.94463  -1.19606  -0.94186  -0.81531  -0.78891
 Alpha  occ. eigenvalues --   -0.69805  -0.66365  -0.55058  -0.54020  -0.45299
 Alpha  occ. eigenvalues --   -0.44755  -0.41052  -0.28485
 Alpha virt. eigenvalues --    0.11728   0.16597   0.19402   0.26483   0.28174
 Alpha virt. eigenvalues --    0.30099   0.31463   0.31794   0.32715   0.40216
 Alpha virt. eigenvalues --    0.44117

 Mulliken charges:
               1
     1  C   -0.171062
     2  C   -1.871239
     3  O    3.201930
     4  C   -1.853226
     5  C   -0.131531
     6  H    0.154960
     7  H    0.252999
     8  H    0.259002
     9  H    0.158167
 Sum of Mulliken charges =   0.00000

 Dipole moment (field-independent basis, Debye):
    X=             -4.3188    Y=            -10.1713    Z=              0.2705  Tot=             11.0536
 N-N= 1.044381545790D+02 E-N=-1.697448070508D+02  KE=-1.537167186576D+01
 Orbital energies and kinetic energies (alpha):
                                 1                 2
   1         O                -1.944634         -1.367892
   2         O                -1.196065         -1.055254
   3         O                -0.941857         -0.886964
   4         O                -0.815307         -0.579029
   5         O                -0.788913         -0.688388
   6         O                -0.698051         -0.589285
   7         O                -0.663646         -0.529954

 Normal termination of Gaussian 09 at Tue Dec 15 17:08:42 2015.
