 Gaussian 09, Revision D.01,
 Gaussian 09:  ES64L-G09RevD.01 24-Apr-2013

 ------------------------------------------------------------
 #P AM1(Input,print) CIS(Singlets,NStates=15) pop(full) force
 ------------------------------------------------------------

 -----------------
 AM1-Reparam Input
 -----------------
 Symbolic Z-matrix:
 Charge =  0 Multiplicity = 1

                         Standard orientation:
 ---------------------------------------------------------------------
 Center     Atomic      Atomic             Coordinates (Angstroms)
 Number     Number       Type             X           Y           Z
 ---------------------------------------------------------------------
      1          6           0        1.041420    0.649805   -0.038434
      2          6           0        0.885524   -0.662698    0.043344
      3          8           0       -0.430291   -1.099748   -0.015550
      4          6           0       -1.099306    0.047668   -0.016891
      5          6           0       -0.381449    1.131555    0.027832
      6          1           0       -0.679998    2.150430    0.006740
      7          1           0       -2.171500   -0.081625    0.031763
      8          1           0        1.677080   -1.468754   -0.000150
      9          1           0        1.939605    1.199960   -0.009059
 ---------------------------------------------------------------------

 SCF Done:  E(RAM1) =   1.79506310654     A.U. after   13 cycles

 Excitation energies and oscillator strengths:

 Excited State   1:      Singlet-A      5.0459 eV  245.71 nm  f=0.3679  <S**2>=0.000
      13 -> 14         0.69712
 This state for optimization and/or second-order correction.
 Total Energy, E(CIS) =   1.98049762552
 Copying the excited state density for this state as the 1-particle RhoCI density.

 Excited State   2:      Singlet-A      6.2494 eV  198.39 nm  f=0.0003  <S**2>=0.000
      13 -> 15         0.67869
      13 -> 17         0.10222

 Excited State   3:      Singlet-A      6.5850 eV  188.28 nm  f=0.0011  <S**2>=0.000
      13 -> 16         0.67256
      13 -> 17        -0.11839

 Excited State   4:      Singlet-A      6.6632 eV  186.07 nm  f=0.0007  <S**2>=0.000
      12 -> 14         0.69852

 Excited State   5:      Singlet-A      8.1433 eV  152.25 nm  f=0.0083  <S**2>=0.000
      11 -> 14         0.66383
      13 -> 17        -0.21467

 Excited State   6:      Singlet-A      8.1767 eV  151.63 nm  f=0.0005  <S**2>=0.000
      11 -> 14         0.20633
      13 -> 15        -0.10900
      13 -> 17         0.57607
      13 -> 18        -0.25157
      13 -> 22        -0.18602

 Excited State   7:      Singlet-A      8.8389 eV  140.27 nm  f=0.0117  <S**2>=0.000
      13 -> 17         0.24605
      13 -> 18         0.63559

 Excited State   8:      Singlet-A      9.2460 eV  134.10 nm  f=0.0559  <S**2>=0.000
      10 -> 14         0.62465
      12 -> 15        -0.13522
      12 -> 16        -0.16552
      13 -> 20        -0.13951

 Excited State   9:      Singlet-A      9.3415 eV  132.72 nm  f=0.1962  <S**2>=0.000
       9 -> 16         0.11081
      11 -> 18         0.11775
      12 -> 15         0.54936
      12 -> 16        -0.25704
      12 -> 17         0.21700
      12 -> 18        -0.10297

 Excited State  10:      Singlet-A      9.3659 eV  132.38 nm  f=0.0030  <S**2>=0.000
      13 -> 19         0.68281

 Excited State  11:      Singlet-A      9.9907 eV  124.10 nm  f=0.0611  <S**2>=0.000
      10 -> 14         0.22427
      11 -> 15         0.14730
      12 -> 15         0.31842
      12 -> 16         0.51796
      12 -> 17        -0.12225

 Excited State  12:      Singlet-A     10.3373 eV  119.94 nm  f=0.1014  <S**2>=0.000
       9 -> 14         0.11506
      11 -> 16        -0.11339
      11 -> 18         0.11077
      12 -> 16         0.18095
      12 -> 17         0.21091
      13 -> 20         0.17755
      13 -> 21         0.49981
      13 -> 22        -0.19136

 Excited State  13:      Singlet-A     10.4236 eV  118.95 nm  f=0.0652  <S**2>=0.000
      11 -> 15        -0.14307
      11 -> 16        -0.17663
      11 -> 18         0.17009
      12 -> 15        -0.12207
      12 -> 16         0.17524
      12 -> 17         0.31885
      12 -> 19        -0.10790
      13 -> 17         0.10902
      13 -> 21        -0.24317
      13 -> 22         0.34897

 Excited State  14:      Singlet-A     10.4855 eV  118.24 nm  f=0.0342  <S**2>=0.000
      12 -> 17        -0.14976
      13 -> 17         0.12625
      13 -> 20         0.18764
      13 -> 21         0.29448
      13 -> 22         0.52554

 Excited State  15:      Singlet-A     10.6522 eV  116.39 nm  f=0.0852  <S**2>=0.000
       9 -> 15         0.10207
      10 -> 14         0.15832
      11 -> 15        -0.20207
      11 -> 16         0.11991
      13 -> 20         0.57306
      13 -> 21        -0.21146

 The electronic state is 1-A.
 Alpha  occ. eigenvalues --   -1.91065  -1.17318  -0.92852  -0.81861  -0.77059
 Alpha  occ. eigenvalues --   -0.70397  -0.67734  -0.53926  -0.53525  -0.46392
 Alpha  occ. eigenvalues --   -0.44765  -0.39724  -0.27369
 Alpha virt. eigenvalues --    0.11374   0.17809   0.18961   0.29220   0.29618
 Alpha virt. eigenvalues --    0.31756   0.34170   0.34719   0.37212   0.43697
 Alpha virt. eigenvalues --    0.45984

 Mulliken charges:
               1
     1  C   -0.153015
     2  C   -1.982119
     3  O    3.268977
     4  C   -1.974699
     5  C   -0.216930
     6  H    0.201452
     7  H    0.329986
     8  H    0.330769
     9  H    0.195579
 Sum of Mulliken charges =   0.00000

 Dipole moment (field-independent basis, Debye):
    X=             -4.2629    Y=            -10.9228    Z=             -0.3960  Tot=             11.7319
 N-N= 1.040361904740D+02 E-N=-1.697001285355D+02  KE=-1.550237065759D+01
 Orbital energies and kinetic energies (alpha):
                                 1                 2
   1         O                -1.910647         -1.373392
   2         O                -1.173184         -1.063116
   3         O                -0.928517         -0.903090
   4         O                -0.818610         -0.568350
   5         O                -0.770588         -0.681448
   6         O                -0.703968         -0.568843
   7         O                -0.677343         -0.540742

 Normal termination of Gaussian 09 at Tue Dec 15 17:09:41 2015.
