 Gaussian 09, Revision D.01,
 Gaussian 09:  ES64L-G09RevD.01 24-Apr-2013

 ------------------------------------------------------------
 #P AM1(Input,print) CIS(Singlets,NStates=15) pop(full) force
 ------------------------------------------------------------

 -----------------
 AM1-Reparam Input
 -----------------
 Symbolic Z-matrix:
 Charge =  0 Multiplicity = 1

                         Standard orientation:
 ---------------------------------------------------------------------
 Center     Atomic      Atomic             Coordinates (Angstroms)
 Number     Number       Type             X           Y           Z
 ---------------------------------------------------------------------
      1          6           0       -1.066028    0.549571    0.013166
      2          6           0       -0.878971   -0.796044   -0.016967
      3          8           0        0.582850   -1.035453    0.006998
      4          6           0        1.153102    0.178886   -0.007447
      5          6           0        0.175993    1.158476   -0.003216
      6          1           0        0.382676    2.257368   -0.024410
      7          1           0        2.218832    0.183356    0.032427
      8          1           0       -1.469872   -1.686384    0.003517
      9          1           0       -2.099014    0.983952    0.019260
 ---------------------------------------------------------------------

 SCF Done:  E(RAM1) =   2.59939744200     A.U. after   13 cycles

 Excitation energies and oscillator strengths:

 Excited State   1:      Singlet-A      5.2258 eV  237.26 nm  f=0.3376  <S**2>=0.000
      13 -> 14         0.69730
 This state for optimization and/or second-order correction.
 Total Energy, E(CIS) =   2.79144103735
 Copying the excited state density for this state as the 1-particle RhoCI density.

 Excited State   2:      Singlet-A      6.2211 eV  199.30 nm  f=0.0016  <S**2>=0.000
      10 -> 15         0.11539
      13 -> 15         0.67269
      13 -> 18        -0.10784
      13 -> 19        -0.10205

 Excited State   3:      Singlet-A      6.7877 eV  182.66 nm  f=0.0027  <S**2>=0.000
      10 -> 16        -0.10761
      11 -> 14         0.13098
      12 -> 14         0.13225
      13 -> 16         0.65050

 Excited State   4:      Singlet-A      6.8479 eV  181.06 nm  f=0.0002  <S**2>=0.000
      11 -> 14        -0.13250
      12 -> 14         0.67561
      13 -> 16        -0.11006

 Excited State   5:      Singlet-A      7.1981 eV  172.24 nm  f=0.0042  <S**2>=0.000
      11 -> 14         0.67730
      12 -> 14         0.10962
      13 -> 16        -0.14660

 Excited State   6:      Singlet-A      8.0286 eV  154.43 nm  f=0.0000  <S**2>=0.000
      13 -> 17         0.67102
      13 -> 21         0.12563

 Excited State   7:      Singlet-A      8.5347 eV  145.27 nm  f=0.1049  <S**2>=0.000
      10 -> 14         0.68498

 Excited State   8:      Singlet-A      9.0826 eV  136.51 nm  f=0.0077  <S**2>=0.000
       7 -> 15        -0.11938
      10 -> 15         0.29572
      10 -> 16        -0.10859
      13 -> 18         0.60424

 Excited State   9:      Singlet-A      9.3552 eV  132.53 nm  f=0.0989  <S**2>=0.000
       9 -> 15        -0.14770
      10 -> 14        -0.12876
      11 -> 15        -0.32006
      11 -> 16        -0.31035
      11 -> 18         0.24565
      12 -> 15        -0.16317
      12 -> 16         0.12361
      12 -> 17         0.34103

 Excited State  10:      Singlet-A      9.4949 eV  130.58 nm  f=0.1348  <S**2>=0.000
      11 -> 15        -0.39070
      11 -> 19         0.10209
      12 -> 15         0.52049
      12 -> 18        -0.11187

 Excited State  11:      Singlet-A      9.6203 eV  128.88 nm  f=0.0060  <S**2>=0.000
      10 -> 15         0.13963
      10 -> 16         0.29622
      13 -> 17        -0.12706
      13 -> 19         0.57908

 Excited State  12:      Singlet-A      9.9432 eV  124.69 nm  f=0.0007  <S**2>=0.000
       7 -> 15        -0.12836
      10 -> 15         0.57039
      13 -> 15        -0.17412
      13 -> 18        -0.25645
      13 -> 19        -0.18347

 Excited State  13:      Singlet-A      9.9902 eV  124.11 nm  f=0.1827  <S**2>=0.000
      11 -> 15        -0.15980
      11 -> 16         0.35264
      11 -> 19         0.13838
      12 -> 15        -0.10690
      12 -> 16         0.50836
      12 -> 19         0.10451

 Excited State  14:      Singlet-A     10.4071 eV  119.13 nm  f=0.0606  <S**2>=0.000
       8 -> 16        -0.19803
       9 -> 15         0.21659
      11 -> 15         0.13277
      11 -> 16        -0.11399
      11 -> 17         0.37338
      11 -> 19        -0.12936
      12 -> 15         0.21900
      12 -> 16         0.31112
      12 -> 18         0.13457
      12 -> 20        -0.10873

 Excited State  15:      Singlet-A     10.6984 eV  115.89 nm  f=0.0922  <S**2>=0.000
       8 -> 14        -0.11981
       9 -> 14         0.34241
      10 -> 16         0.36409
      11 -> 15         0.15986
      11 -> 17        -0.20258
      12 -> 15         0.12564
      12 -> 16         0.10709
      12 -> 17         0.16147
      13 -> 18         0.11125
      13 -> 19        -0.17331

 The electronic state is 1-A.
 Alpha  occ. eigenvalues --   -1.83250  -1.11831  -0.86324  -0.78212  -0.74566
 Alpha  occ. eigenvalues --   -0.66036  -0.61935  -0.55625  -0.54397  -0.43891
 Alpha  occ. eigenvalues --   -0.42637  -0.42116  -0.29668
 Alpha virt. eigenvalues --    0.10123   0.16396   0.19613   0.25796   0.27529
 Alpha virt. eigenvalues --    0.30461   0.36111   0.41052   0.45634   0.53336
 Alpha virt. eigenvalues --    0.57055

 Mulliken charges:
               1
     1  C   -0.114783
     2  C   -1.959120
     3  O    3.446895
     4  C   -2.014411
     5  C   -0.263775
     6  H    0.201475
     7  H    0.269054
     8  H    0.242724
     9  H    0.191940
 Sum of Mulliken charges =   0.00000

 Dipole moment (field-independent basis, Debye):
    X=              6.0773    Y=            -10.3135    Z=              0.3789  Tot=             11.9769
 N-N= 1.032161710577D+02 E-N=-1.683257213060D+02  KE=-1.429808623038D+01
 Orbital energies and kinetic energies (alpha):
                                 1                 2
   1         O                -1.832498         -1.205508
   2         O                -1.118305         -0.967330
   3         O                -0.863237         -0.781974
   4         O                -0.782121         -0.537783
   5         O                -0.745662         -0.618426
   6         O                -0.660360         -0.542141
   7         O                -0.619350         -0.490870

 Normal termination of Gaussian 09 at Tue Dec 15 17:07:44 2015.
