 Gaussian 09, Revision D.01,
 Gaussian 09:  ES64L-G09RevD.01 24-Apr-2013

 ------------------------------------------------------------
 #P AM1(Input,print) CIS(Singlets,NStates=15) pop(full) force
 ------------------------------------------------------------

 -----------------
 AM1-Reparam Input
 -----------------
 Symbolic Z-matrix:
 Charge =  0 Multiplicity = 1

                         Standard orientation:
 ---------------------------------------------------------------------
 Center     Atomic      Atomic             Coordinates (Angstroms)
 Number     Number       Type             X           Y           Z
 ---------------------------------------------------------------------
      1          6           0       -1.157311    0.290330   -0.028214
      2          6           0       -0.572330   -0.964085    0.039219
      3          8           0        0.763191   -0.880420   -0.007601
      4          6           0        1.032317    0.418708   -0.009386
      5          6           0       -0.081540    1.193798    0.014300
      6          1           0       -0.168388    2.210029    0.033333
      7          1           0        2.082468    0.696339   -0.010745
      8          1           0       -1.054420   -1.966954   -0.042835
      9          1           0       -2.292005    0.471443   -0.014456
 ---------------------------------------------------------------------

 SCF Done:  E(RAM1) =   2.52472877792     A.U. after   14 cycles

 Excitation energies and oscillator strengths:

 Excited State   1:      Singlet-A      5.5485 eV  223.46 nm  f=0.3363  <S**2>=0.000
      13 -> 14         0.69416
 This state for optimization and/or second-order correction.
 Total Energy, E(CIS) =   2.72863216701
 Copying the excited state density for this state as the 1-particle RhoCI density.

 Excited State   2:      Singlet-A      6.5158 eV  190.28 nm  f=0.0036  <S**2>=0.000
      13 -> 15         0.64066
      13 -> 16         0.17369
      13 -> 17        -0.17933

 Excited State   3:      Singlet-A      6.6169 eV  187.38 nm  f=0.0004  <S**2>=0.000
      13 -> 15        -0.17926
      13 -> 16         0.63610
      13 -> 18         0.14546
      13 -> 19         0.12540

 Excited State   4:      Singlet-A      7.0198 eV  176.62 nm  f=0.0003  <S**2>=0.000
       9 -> 14        -0.12212
      12 -> 14         0.68939

 Excited State   5:      Singlet-A      7.8714 eV  157.51 nm  f=0.0078  <S**2>=0.000
      10 -> 14         0.66548
      11 -> 14         0.15943
      13 -> 17         0.13447

 Excited State   6:      Singlet-A      8.1768 eV  151.63 nm  f=0.0005  <S**2>=0.000
      11 -> 15         0.10134
      13 -> 17         0.28934
      13 -> 18         0.51443
      13 -> 20         0.19173
      13 -> 21        -0.28995

 Excited State   7:      Singlet-A      8.3187 eV  149.04 nm  f=0.0086  <S**2>=0.000
      10 -> 14        -0.13078
      11 -> 16        -0.15764
      13 -> 15         0.10041
      13 -> 16         0.12336
      13 -> 17         0.58446
      13 -> 18        -0.26120

 Excited State   8:      Singlet-A      8.7744 eV  141.30 nm  f=0.0948  <S**2>=0.000
      10 -> 14        -0.15665
      11 -> 14         0.66984

 Excited State   9:      Singlet-A      9.0040 eV  137.70 nm  f=0.0049  <S**2>=0.000
      11 -> 15         0.13108
      13 -> 19         0.66791

 Excited State  10:      Singlet-A      9.3445 eV  132.68 nm  f=0.0142  <S**2>=0.000
       8 -> 15        -0.15007
       8 -> 16        -0.10388
       9 -> 16        -0.10176
      10 -> 15        -0.16921
      10 -> 16        -0.17689
      10 -> 17         0.22893
      12 -> 15        -0.25342
      12 -> 16         0.35364
      12 -> 17         0.11290
      12 -> 18         0.24593
      13 -> 20         0.10277

 Excited State  11:      Singlet-A      9.5451 eV  129.89 nm  f=0.0255  <S**2>=0.000
      11 -> 15         0.10043
      13 -> 18        -0.34372
      13 -> 20         0.40626
      13 -> 21        -0.39890

 Excited State  12:      Singlet-A      9.7132 eV  127.65 nm  f=0.0706  <S**2>=0.000
      10 -> 15        -0.20021
      10 -> 17         0.12019
      11 -> 15        -0.31635
      11 -> 16        -0.13965
      12 -> 15         0.48940

 Excited State  13:      Singlet-A      9.7476 eV  127.20 nm  f=0.1225  <S**2>=0.000
       9 -> 16         0.15697
      10 -> 15         0.15544
      10 -> 16         0.31699
      10 -> 17        -0.12360
      12 -> 16         0.50833
      12 -> 17        -0.15955

 Excited State  14:      Singlet-A      9.8354 eV  126.06 nm  f=0.0254  <S**2>=0.000
      10 -> 15        -0.23112
      11 -> 15         0.34998
      11 -> 16         0.40181
      12 -> 15         0.24695
      13 -> 16         0.13947
      13 -> 20        -0.10834

 Excited State  15:      Singlet-A      9.9652 eV  124.42 nm  f=0.0353  <S**2>=0.000
       7 -> 15        -0.10403
      10 -> 15        -0.12266
      11 -> 15         0.39098
      11 -> 16        -0.36138
      13 -> 15        -0.11666
      13 -> 20         0.19973
      13 -> 21         0.29269

 The electronic state is 1-A.
 Alpha  occ. eigenvalues --   -1.75026  -1.16546  -0.94486  -0.81009  -0.75593
 Alpha  occ. eigenvalues --   -0.67379  -0.65053  -0.54092  -0.49286  -0.43820
 Alpha  occ. eigenvalues --   -0.43363  -0.41033  -0.29576
 Alpha virt. eigenvalues --    0.11842   0.17307   0.17589   0.25038   0.27287
 Alpha virt. eigenvalues --    0.28887   0.30837   0.32943   0.41684   0.51122
 Alpha virt. eigenvalues --    0.55278

 Mulliken charges:
               1
     1  C   -0.049367
     2  C   -1.952731
     3  O    3.216712
     4  C   -1.936016
     5  C   -0.045942
     6  H    0.113470
     7  H    0.266228
     8  H    0.272354
     9  H    0.115292
 Sum of Mulliken charges =   0.00000

 Dipole moment (field-independent basis, Debye):
    X=              6.7412    Y=             -7.7926    Z=             -0.4421  Tot=             10.3133
 N-N= 1.040412569007D+02 E-N=-1.692543758234D+02  KE=-1.505345088494D+01
 Orbital energies and kinetic energies (alpha):
                                 1                 2
   1         O                -1.750265         -1.261435
   2         O                -1.165461         -1.026341
   3         O                -0.944864         -0.856268
   4         O                -0.810093         -0.614652
   5         O                -0.755925         -0.677160
   6         O                -0.673788         -0.579884
   7         O                -0.650528         -0.528758

 Normal termination of Gaussian 09 at Tue Dec 15 17:06:10 2015.
