 Gaussian 09, Revision D.01,
 Gaussian 09:  ES64L-G09RevD.01 24-Apr-2013

 ------------------------------------------------------------
 #P AM1(Input,print) CIS(Singlets,NStates=15) pop(full) force
 ------------------------------------------------------------

 -----------------
 AM1-Reparam Input
 -----------------
 Symbolic Z-matrix:
 Charge =  0 Multiplicity = 1

                         Standard orientation:
 ---------------------------------------------------------------------
 Center     Atomic      Atomic             Coordinates (Angstroms)
 Number     Number       Type             X           Y           Z
 ---------------------------------------------------------------------
      1          6           0        0.997475    0.685063   -0.014824
      2          6           0        0.940449   -0.633211   -0.000099
      3          8           0       -0.343307   -1.080257   -0.024714
      4          6           0       -1.184418   -0.037306    0.038479
      5          6           0       -0.389944    1.104132    0.005761
      6          1           0       -0.719698    2.168621   -0.062461
      7          1           0       -2.209550   -0.159561   -0.029901
      8          1           0        1.684739   -1.406406    0.074416
      9          1           0        1.809589    1.327340    0.039754
 ---------------------------------------------------------------------

 SCF Done:  E(RAM1) =   1.70157497839     A.U. after   14 cycles

 Excitation energies and oscillator strengths:

 Excited State   1:      Singlet-A      5.2569 eV  235.85 nm  f=0.3432  <S**2>=0.000
      13 -> 14         0.69423
 This state for optimization and/or second-order correction.
 Total Energy, E(CIS) =   1.89476394326
 Copying the excited state density for this state as the 1-particle RhoCI density.

 Excited State   2:      Singlet-A      6.2927 eV  197.03 nm  f=0.0081  <S**2>=0.000
      11 -> 15         0.10357
      13 -> 15         0.64900
      13 -> 17         0.20063
      13 -> 19        -0.11995

 Excited State   3:      Singlet-A      6.6217 eV  187.24 nm  f=0.0051  <S**2>=0.000
      13 -> 16         0.62184
      13 -> 17         0.13866
      13 -> 19         0.22399
      13 -> 21         0.10304

 Excited State   4:      Singlet-A      6.8399 eV  181.27 nm  f=0.0003  <S**2>=0.000
      12 -> 14         0.67667

 Excited State   5:      Singlet-A      7.2720 eV  170.49 nm  f=0.0036  <S**2>=0.000
      12 -> 14        -0.15841
      13 -> 15         0.14446
      13 -> 17        -0.24118
      13 -> 18        -0.11952
      13 -> 19         0.45597
      13 -> 20        -0.39195

 Excited State   6:      Singlet-A      7.8425 eV  158.09 nm  f=0.0114  <S**2>=0.000
      10 -> 14        -0.15856
      13 -> 15        -0.13822
      13 -> 16        -0.14448
      13 -> 17         0.56927
      13 -> 18        -0.22827
      13 -> 19         0.14743
      13 -> 20        -0.12324

 Excited State   7:      Singlet-A      8.1986 eV  151.23 nm  f=0.0028  <S**2>=0.000
      10 -> 14         0.67415
      13 -> 17         0.14855
      13 -> 20        -0.10082

 Excited State   8:      Singlet-A      8.3929 eV  147.72 nm  f=0.0031  <S**2>=0.000
      13 -> 16        -0.18499
      13 -> 17         0.14677
      13 -> 18         0.59112
      13 -> 19         0.24878

 Excited State   9:      Singlet-A      8.5249 eV  145.44 nm  f=0.0166  <S**2>=0.000
      13 -> 18        -0.24045
      13 -> 19         0.25910
      13 -> 20         0.45965
      13 -> 21         0.37763

 Excited State  10:      Singlet-A      8.6437 eV  143.44 nm  f=0.1004  <S**2>=0.000
      11 -> 14         0.67097
      12 -> 15         0.13811

 Excited State  11:      Singlet-A      8.9604 eV  138.37 nm  f=0.0762  <S**2>=0.000
      10 -> 14        -0.10174
      13 -> 19        -0.24280
      13 -> 20        -0.29000
      13 -> 21         0.57089

 Excited State  12:      Singlet-A      9.3342 eV  132.83 nm  f=0.0608  <S**2>=0.000
       8 -> 15        -0.12621
      10 -> 16        -0.13213
      10 -> 17        -0.19927
      11 -> 14        -0.10917
      12 -> 15         0.37213
      12 -> 16        -0.20989
      12 -> 17         0.14576
      12 -> 19        -0.32247
      12 -> 20         0.20607

 Excited State  13:      Singlet-A      9.7806 eV  126.77 nm  f=0.1227  <S**2>=0.000
       8 -> 15        -0.12606
      10 -> 17         0.13425
      11 -> 14        -0.13862
      11 -> 15        -0.15933
      12 -> 15         0.44531
      12 -> 16         0.21569
      12 -> 18         0.16803
      12 -> 19         0.11743
      12 -> 20        -0.26897

 Excited State  14:      Singlet-A      9.8656 eV  125.67 nm  f=0.0067  <S**2>=0.000
      11 -> 15         0.50970
      11 -> 16         0.31969
      11 -> 17         0.14581
      12 -> 15         0.10281
      12 -> 16         0.16613
      13 -> 16         0.11846

 Excited State  15:      Singlet-A      9.9537 eV  124.56 nm  f=0.0726  <S**2>=0.000
       8 -> 15         0.12711
      10 -> 16        -0.17424
      11 -> 15        -0.11468
      11 -> 16        -0.10278
      12 -> 16         0.47309
      12 -> 17         0.26635
      12 -> 18         0.17433
      12 -> 19        -0.12986
      12 -> 20         0.15799

 The electronic state is 1-A.
 Alpha  occ. eigenvalues --   -1.92088  -1.22011  -1.00587  -0.82602  -0.80935
 Alpha  occ. eigenvalues --   -0.69049  -0.63971  -0.55550  -0.52158  -0.44895
 Alpha  occ. eigenvalues --   -0.43062  -0.40686  -0.28138
 Alpha virt. eigenvalues --    0.11677   0.17820   0.19637   0.24723   0.26358
 Alpha virt. eigenvalues --    0.27727   0.28266   0.28715   0.37259   0.45769
 Alpha virt. eigenvalues --    0.51230

 Mulliken charges:
               1
     1  C   -0.101525
     2  C   -1.929240
     3  O    3.191671
     4  C   -1.964468
     5  C   -0.174990
     6  H    0.182838
     7  H    0.315135
     8  H    0.299974
     9  H    0.180605
 Sum of Mulliken charges =   0.00000

 Dipole moment (field-independent basis, Debye):
    X=             -2.5524    Y=             -9.4585    Z=             -0.5999  Tot=              9.8151
 N-N= 1.041703338090D+02 E-N=-1.696615632782D+02  KE=-1.576130618306D+01
 Orbital energies and kinetic energies (alpha):
                                 1                 2
   1         O                -1.920883         -1.393909
   2         O                -1.220108         -1.092363
   3         O                -1.005872         -0.914620
   4         O                -0.826017         -0.639164
   5         O                -0.809349         -0.710324
   6         O                -0.690491         -0.581759
   7         O                -0.639713         -0.513226

 Normal termination of Gaussian 09 at Tue Dec 15 17:07:07 2015.
