 Gaussian 09, Revision D.01,
 Gaussian 09:  ES64L-G09RevD.01 24-Apr-2013

 ------------------------------------------------------------
 #P AM1(Input,print) CIS(Singlets,NStates=15) pop(full) force
 ------------------------------------------------------------

 -----------------
 AM1-Reparam Input
 -----------------
 Symbolic Z-matrix:
 Charge =  0 Multiplicity = 1

                         Standard orientation:
 ---------------------------------------------------------------------
 Center     Atomic      Atomic             Coordinates (Angstroms)
 Number     Number       Type             X           Y           Z
 ---------------------------------------------------------------------
      1          6           0       -0.585602    1.057473   -0.018000
      2          6           0       -1.120263   -0.201910    0.019622
      3          8           0       -0.163898   -1.148734   -0.002021
      4          6           0        1.014724   -0.518693   -0.021482
      5          6           0        0.875538    0.862879    0.004002
      6          1           0        1.588808    1.641524    0.066881
      7          1           0        1.873576   -1.106909    0.044213
      8          1           0       -2.169753   -0.487836    0.012103
      9          1           0       -1.087835    1.944592   -0.011880
 ---------------------------------------------------------------------

 SCF Done:  E(RAM1) =   1.68631499149     A.U. after   13 cycles

 Excitation energies and oscillator strengths:

 Excited State   1:      Singlet-A      5.2759 eV  235.00 nm  f=0.3559  <S**2>=0.000
      13 -> 14         0.69584
 This state for optimization and/or second-order correction.
 Total Energy, E(CIS) =   1.88020158785
 Copying the excited state density for this state as the 1-particle RhoCI density.

 Excited State   2:      Singlet-A      6.3749 eV  194.49 nm  f=0.0082  <S**2>=0.000
      13 -> 15         0.64769
      13 -> 17         0.23650

 Excited State   3:      Singlet-A      6.5441 eV  189.46 nm  f=0.0004  <S**2>=0.000
      11 -> 15        -0.10849
      13 -> 16         0.61766
      13 -> 18         0.16106
      13 -> 19        -0.25856

 Excited State   4:      Singlet-A      6.8796 eV  180.22 nm  f=0.0006  <S**2>=0.000
      12 -> 14         0.68387
      13 -> 19        -0.10482

 Excited State   5:      Singlet-A      7.3910 eV  167.75 nm  f=0.0001  <S**2>=0.000
      12 -> 14         0.13578
      13 -> 16         0.19411
      13 -> 19         0.57915
      13 -> 20        -0.17842
      13 -> 21         0.23873

 Excited State   6:      Singlet-A      7.9056 eV  156.83 nm  f=0.0252  <S**2>=0.000
      10 -> 14        -0.14209
      11 -> 16         0.11101
      13 -> 15        -0.20703
      13 -> 17         0.63373

 Excited State   7:      Singlet-A      8.2533 eV  150.22 nm  f=0.0044  <S**2>=0.000
      10 -> 14         0.65325
      11 -> 14         0.14592
      13 -> 17         0.15422
      13 -> 18         0.12076

 Excited State   8:      Singlet-A      8.3435 eV  148.60 nm  f=0.0022  <S**2>=0.000
      10 -> 14        -0.12164
      13 -> 16        -0.17611
      13 -> 18         0.62816
      13 -> 20        -0.13136
      13 -> 21         0.12229

 Excited State   9:      Singlet-A      8.5179 eV  145.56 nm  f=0.1159  <S**2>=0.000
      10 -> 14        -0.14609
      11 -> 14         0.67054

 Excited State  10:      Singlet-A      8.7101 eV  142.35 nm  f=0.0081  <S**2>=0.000
      13 -> 18        -0.21249
      13 -> 19        -0.26262
      13 -> 20        -0.34671
      13 -> 21         0.50106

 Excited State  11:      Singlet-A      9.0306 eV  137.29 nm  f=0.0737  <S**2>=0.000
      13 -> 20         0.55331
      13 -> 21         0.40912

 Excited State  12:      Singlet-A      9.4407 eV  131.33 nm  f=0.1028  <S**2>=0.000
       8 -> 15        -0.15277
      10 -> 15         0.19222
      10 -> 17         0.22152
      12 -> 15        -0.11115
      12 -> 16         0.41071
      12 -> 18         0.14860
      12 -> 19        -0.30437
      12 -> 21        -0.17593

 Excited State  13:      Singlet-A      9.6585 eV  128.37 nm  f=0.0015  <S**2>=0.000
       7 -> 16         0.11682
      11 -> 15         0.59482
      11 -> 16         0.14804
      11 -> 17         0.15546
      12 -> 15        -0.16848
      13 -> 16         0.15938

 Excited State  14:      Singlet-A      9.8995 eV  125.24 nm  f=0.0499  <S**2>=0.000
       8 -> 16        -0.15154
      10 -> 21         0.11638
      11 -> 14        -0.10818
      11 -> 15         0.18349
      12 -> 15         0.57623
      12 -> 16         0.10950
      12 -> 17         0.11830
      12 -> 20         0.12737

 Excited State  15:      Singlet-A     10.0409 eV  123.48 nm  f=0.0030  <S**2>=0.000
       7 -> 15         0.14793
      11 -> 15        -0.15392
      11 -> 16         0.61431
      12 -> 16        -0.11655
      13 -> 15         0.14613

 The electronic state is 1-A.
 Alpha  occ. eigenvalues --   -1.91514  -1.20869  -0.99410  -0.82674  -0.80438
 Alpha  occ. eigenvalues --   -0.69329  -0.63193  -0.54375  -0.51825  -0.45287
 Alpha  occ. eigenvalues --   -0.42370  -0.40939  -0.27984
 Alpha virt. eigenvalues --    0.11643   0.18206   0.19083   0.25344   0.26818
 Alpha virt. eigenvalues --    0.27921   0.28854   0.29438   0.38053   0.46909
 Alpha virt. eigenvalues --    0.51687

 Mulliken charges:
               1
     1  C   -0.120337
     2  C   -1.953167
     3  O    3.179247
     4  C   -1.951094
     5  C   -0.129447
     6  H    0.180153
     7  H    0.304265
     8  H    0.313807
     9  H    0.176572
 Sum of Mulliken charges =   0.00000

 Dipole moment (field-independent basis, Debye):
    X=             -1.5650    Y=             -9.8546    Z=              0.1571  Tot=              9.9793
 N-N= 1.039337128480D+02 E-N=-1.693415048319D+02  KE=-1.574915230848D+01
 Orbital energies and kinetic energies (alpha):
                                 1                 2
   1         O                -1.915141         -1.390247
   2         O                -1.208691         -1.095777
   3         O                -0.994100         -0.911333
   4         O                -0.826743         -0.640369
   5         O                -0.804383         -0.705095
   6         O                -0.693287         -0.586307
   7         O                -0.631927         -0.506432

 Normal termination of Gaussian 09 at Tue Dec 15 17:07:01 2015.
