 Gaussian 09, Revision D.01,
 Gaussian 09:  ES64L-G09RevD.01 24-Apr-2013

 ------------------------------------------------------------
 #P AM1(Input,print) CIS(Singlets,NStates=15) pop(full) force
 ------------------------------------------------------------

 -----------------
 AM1-Reparam Input
 -----------------
 Symbolic Z-matrix:
 Charge =  0 Multiplicity = 1

                         Standard orientation:
 ---------------------------------------------------------------------
 Center     Atomic      Atomic             Coordinates (Angstroms)
 Number     Number       Type             X           Y           Z
 ---------------------------------------------------------------------
      1          6           0       -0.885270    0.787392    0.015701
      2          6           0       -1.065905   -0.472591   -0.015346
      3          8           0        0.213108   -1.146504    0.022311
      4          6           0        1.169657   -0.156108   -0.021829
      5          6           0        0.536669    1.068398   -0.009674
      6          1           0        1.077165    1.969415    0.057703
      7          1           0        2.133243   -0.528447   -0.004625
      8          1           0       -1.874166   -1.175156   -0.029939
      9          1           0       -1.572016    1.543671   -0.014736
 ---------------------------------------------------------------------

 SCF Done:  E(RAM1) =  -5.22592498057     A.U. after   14 cycles

 Excitation energies and oscillator strengths:

 Excited State   1:      Singlet-A      6.4862 eV  191.15 nm  f=0.0136  <S**2>=0.000
      13 -> 14         0.18629
      13 -> 15         0.67371
 This state for optimization and/or second-order correction.
 Total Energy, E(CIS) =  -4.98756298338
 Copying the excited state density for this state as the 1-particle RhoCI density.

 Excited State   2:      Singlet-A      6.9042 eV  179.58 nm  f=0.2236  <S**2>=0.000
      12 -> 14         0.10975
      13 -> 14         0.64678
      13 -> 15        -0.18340

 Excited State   3:      Singlet-A      7.0736 eV  175.28 nm  f=0.0088  <S**2>=0.000
      12 -> 14         0.67896
      13 -> 14        -0.11004
      13 -> 16         0.11515

 Excited State   4:      Singlet-A      7.3484 eV  168.72 nm  f=0.0040  <S**2>=0.000
      12 -> 14        -0.13012
      13 -> 16         0.67831

 Excited State   5:      Singlet-A      8.0056 eV  154.87 nm  f=0.0027  <S**2>=0.000
      11 -> 14         0.69299

 Excited State   6:      Singlet-A      8.4991 eV  145.88 nm  f=0.0132  <S**2>=0.000
      10 -> 14         0.17255
      12 -> 15        -0.37868
      13 -> 17         0.55096

 Excited State   7:      Singlet-A      8.9914 eV  137.89 nm  f=0.1061  <S**2>=0.000
      10 -> 14         0.21218
      11 -> 15        -0.15263
      11 -> 16         0.13915
      12 -> 15         0.52129
      13 -> 17         0.34282

 Excited State   8:      Singlet-A      9.3370 eV  132.79 nm  f=0.0848  <S**2>=0.000
      11 -> 15         0.33850
      12 -> 16         0.58590

 Excited State   9:      Singlet-A      9.5309 eV  130.09 nm  f=0.0016  <S**2>=0.000
      10 -> 15        -0.24175
      13 -> 18         0.18160
      13 -> 19         0.60932
      13 -> 22        -0.11596

 Excited State  10:      Singlet-A      9.6674 eV  128.25 nm  f=0.0011  <S**2>=0.000
      10 -> 15         0.22331
      10 -> 16        -0.20753
      13 -> 18         0.55344
      13 -> 20         0.26184

 Excited State  11:      Singlet-A      9.7497 eV  127.17 nm  f=0.0027  <S**2>=0.000
      10 -> 14         0.11123
      10 -> 15        -0.28088
      11 -> 15         0.46064
      12 -> 15         0.13087
      12 -> 16        -0.27148
      13 -> 19        -0.18244
      13 -> 20         0.16663

 Excited State  12:      Singlet-A      9.8030 eV  126.48 nm  f=0.0083  <S**2>=0.000
      10 -> 14         0.30519
      10 -> 15         0.48219
      11 -> 15         0.23704
      12 -> 16        -0.12037
      13 -> 19         0.18890
      13 -> 20        -0.12162

 Excited State  13:      Singlet-A     10.1081 eV  122.66 nm  f=0.0117  <S**2>=0.000
       8 -> 14        -0.15500
      10 -> 14        -0.16698
      11 -> 15         0.11599
      12 -> 17         0.61430
      13 -> 20        -0.11788

 Excited State  14:      Singlet-A     10.2527 eV  120.93 nm  f=0.0939  <S**2>=0.000
       8 -> 15        -0.10599
      10 -> 14         0.41034
      10 -> 15        -0.19960
      11 -> 15        -0.16832
      11 -> 16        -0.27984
      12 -> 16         0.12657
      12 -> 17         0.20239
      12 -> 18         0.10685
      13 -> 17        -0.17191
      13 -> 20        -0.12151

 Excited State  15:      Singlet-A     10.3089 eV  120.27 nm  f=0.0097  <S**2>=0.000
      10 -> 16         0.21736
      11 -> 16        -0.12929
      12 -> 17         0.15695
      13 -> 18        -0.19464
      13 -> 19         0.10473
      13 -> 20         0.56265
      13 -> 21         0.13406

 The electronic state is 1-A.
 Alpha  occ. eigenvalues --   -3.84146  -1.32075  -0.96792  -0.96480  -0.95133
 Alpha  occ. eigenvalues --   -0.86958  -0.73567  -0.55427  -0.52804  -0.48719
 Alpha  occ. eigenvalues --   -0.46098  -0.43056  -0.35653
 Alpha virt. eigenvalues --    0.09541   0.12895   0.15163   0.18451   0.23826
 Alpha virt. eigenvalues --    0.24591   0.26242   0.28875   0.35232   0.36454
 Alpha virt. eigenvalues --    0.36661

 Mulliken charges:
               1
     1  C   -0.327148
     2  C   -1.112913
     3  O    2.407132
     4  C   -1.149269
     5  C   -0.405215
     6  H    0.184301
     7  H    0.110849
     8  H    0.111367
     9  H    0.180896
 Sum of Mulliken charges =   0.00000

 Dipole moment (field-independent basis, Debye):
    X=              1.6264    Y=             -9.7560    Z=              0.4409  Tot=              9.9005
 N-N= 1.016997799392D+02 E-N=-1.670079814220D+02  KE=-2.190526658677D+01
 Orbital energies and kinetic energies (alpha):
                                 1                 2
   1         O                -3.841455         -3.113651
   2         O                -1.320752         -1.190553
   3         O                -0.967925         -0.923441
   4         O                -0.964799         -0.887111
   5         O                -0.951331         -0.923323
   6         O                -0.869583         -0.743235
   7         O                -0.735674         -0.637971

 Normal termination of Gaussian 09 at Fri Dec 11 13:41:25 2015.
