 Gaussian 09, Revision D.01,
 Gaussian 09:  ES64L-G09RevD.01 24-Apr-2013

 ------------------------------------------------------------
 #P AM1(Input,print) CIS(Singlets,NStates=15) pop(full) force
 ------------------------------------------------------------

 -----------------
 AM1-Reparam Input
 -----------------
 Symbolic Z-matrix:
 Charge =  0 Multiplicity = 1

                         Standard orientation:
 ---------------------------------------------------------------------
 Center     Atomic      Atomic             Coordinates (Angstroms)
 Number     Number       Type             X           Y           Z
 ---------------------------------------------------------------------
      1          6           0       -0.743460    0.905586    0.007329
      2          6           0       -1.067291   -0.314285    0.004573
      3          8           0        0.009564   -1.178529    0.003626
      4          6           0        1.093313   -0.336497   -0.019341
      5          6           0        0.704809    0.997165   -0.017738
      6          1           0        1.398201    1.779010    0.077998
      7          1           0        2.038640   -0.796708    0.062001
      8          1           0       -2.043865   -0.840370   -0.004796
      9          1           0       -1.393711    1.774489   -0.013147
 ---------------------------------------------------------------------

 SCF Done:  E(RAM1) =   1.75900075729     A.U. after   14 cycles

 Excitation energies and oscillator strengths:

 Excited State   1:      Singlet-A      5.2181 eV  237.60 nm  f=0.3339  <S**2>=0.000
      13 -> 14         0.69357
 This state for optimization and/or second-order correction.
 Total Energy, E(CIS) =   1.95076296312
 Copying the excited state density for this state as the 1-particle RhoCI density.

 Excited State   2:      Singlet-A      5.8023 eV  213.68 nm  f=0.0016  <S**2>=0.000
      11 -> 15         0.10876
      13 -> 15         0.67878
      13 -> 19         0.10512

 Excited State   3:      Singlet-A      6.2271 eV  199.10 nm  f=0.0040  <S**2>=0.000
      11 -> 16        -0.10433
      13 -> 16         0.63542
      13 -> 17         0.23369
      13 -> 19        -0.15033

 Excited State   4:      Singlet-A      6.9589 eV  178.17 nm  f=0.0011  <S**2>=0.000
      12 -> 14         0.67840
      13 -> 20        -0.11792

 Excited State   5:      Singlet-A      7.3288 eV  169.17 nm  f=0.0004  <S**2>=0.000
      12 -> 14         0.16366
      13 -> 16        -0.17945
      13 -> 17         0.25163
      13 -> 19        -0.23023
      13 -> 20         0.45319
      13 -> 21         0.31155

 Excited State   6:      Singlet-A      7.5389 eV  164.46 nm  f=0.0230  <S**2>=0.000
      13 -> 15        -0.10481
      13 -> 16        -0.14228
      13 -> 17         0.59829
      13 -> 19         0.18983
      13 -> 20        -0.18257
      13 -> 21        -0.14666

 Excited State   7:      Singlet-A      8.1814 eV  151.54 nm  f=0.0012  <S**2>=0.000
      10 -> 14         0.35940
      13 -> 16         0.10749
      13 -> 18         0.22201
      13 -> 19         0.47744
      13 -> 20         0.19770
      13 -> 21         0.11453

 Excited State   8:      Singlet-A      8.2455 eV  150.37 nm  f=0.0018  <S**2>=0.000
      10 -> 14         0.56796
      11 -> 14        -0.12751
      13 -> 18        -0.10449
      13 -> 19        -0.30978
      13 -> 21        -0.19401

 Excited State   9:      Singlet-A      8.3968 eV  147.66 nm  f=0.0049  <S**2>=0.000
      13 -> 18         0.64775
      13 -> 19        -0.19609
      13 -> 20        -0.10314
      13 -> 21        -0.14095

 Excited State  10:      Singlet-A      8.6480 eV  143.37 nm  f=0.0409  <S**2>=0.000
       8 -> 15         0.12931
      10 -> 14         0.12182
      11 -> 14         0.56247
      12 -> 15        -0.30769
      12 -> 20         0.10425

 Excited State  11:      Singlet-A      8.9247 eV  138.92 nm  f=0.0849  <S**2>=0.000
      10 -> 14         0.10824
      13 -> 20        -0.42472
      13 -> 21         0.54055

 Excited State  12:      Singlet-A      9.1440 eV  135.59 nm  f=0.2391  <S**2>=0.000
       8 -> 15        -0.15559
      10 -> 17        -0.10071
      11 -> 14         0.34134
      12 -> 15         0.46912
      12 -> 16        -0.22767

 Excited State  13:      Singlet-A      9.5684 eV  129.58 nm  f=0.0156  <S**2>=0.000
       8 -> 16         0.10982
       9 -> 16        -0.10481
      10 -> 15         0.15629
      10 -> 17         0.20130
      11 -> 15        -0.16413
      11 -> 16        -0.12219
      12 -> 15         0.33787
      12 -> 16         0.32425
      12 -> 17         0.17499
      12 -> 20         0.10028
      12 -> 21         0.17298

 Excited State  14:      Singlet-A      9.6549 eV  128.42 nm  f=0.0014  <S**2>=0.000
       7 -> 15        -0.12066
      10 -> 15         0.14803
      11 -> 15         0.56950
      11 -> 16         0.24770
      13 -> 15        -0.10814

 Excited State  15:      Singlet-A      9.8905 eV  125.36 nm  f=0.0076  <S**2>=0.000
       7 -> 16         0.10672
      11 -> 15        -0.27934
      11 -> 16         0.58299
      13 -> 16         0.12232

 The electronic state is 1-A.
 Alpha  occ. eigenvalues --   -1.90883  -1.22786  -0.99545  -0.81963  -0.80312
 Alpha  occ. eigenvalues --   -0.68906  -0.63174  -0.52735  -0.51368  -0.43217
 Alpha  occ. eigenvalues --   -0.41895  -0.39259  -0.26087
 Alpha virt. eigenvalues --    0.13578   0.17241   0.19716   0.26081   0.28728
 Alpha virt. eigenvalues --    0.29364   0.29830   0.31113   0.35518   0.45092
 Alpha virt. eigenvalues --    0.48725

 Mulliken charges:
               1
     1  C   -0.099227
     2  C   -1.871591
     3  O    3.166866
     4  C   -1.940885
     5  C   -0.176505
     6  H    0.179135
     7  H    0.291656
     8  H    0.285384
     9  H    0.165168
 Sum of Mulliken charges =   0.00000

 Dipole moment (field-independent basis, Debye):
    X=             -0.4930    Y=            -11.1984    Z=              0.3648  Tot=             11.2152
 N-N= 1.040591139852D+02 E-N=-1.696093340801D+02  KE=-1.574829985333D+01
 Orbital energies and kinetic energies (alpha):
                                 1                 2
   1         O                -1.908834         -1.369157
   2         O                -1.227858         -1.111456
   3         O                -0.995449         -0.930822
   4         O                -0.819627         -0.624142
   5         O                -0.803121         -0.699297
   6         O                -0.689056         -0.581320
   7         O                -0.631742         -0.516338

 Normal termination of Gaussian 09 at Tue Dec 15 17:06:51 2015.
