 Gaussian 09, Revision D.01,
 Gaussian 09:  ES64L-G09RevD.01 24-Apr-2013

 ------------------------------------------------------------
 #P AM1(Input,print) CIS(Singlets,NStates=15) pop(full) force
 ------------------------------------------------------------

 -----------------
 AM1-Reparam Input
 -----------------
 Symbolic Z-matrix:
 Charge =  0 Multiplicity = 1

                         Standard orientation:
 ---------------------------------------------------------------------
 Center     Atomic      Atomic             Coordinates (Angstroms)
 Number     Number       Type             X           Y           Z
 ---------------------------------------------------------------------
      1          6           0        0.426935    1.086993    0.006452
      2          6           0        1.158484   -0.062068    0.034016
      3          8           0        0.323832   -1.092775   -0.013920
      4          6           0       -0.987586   -0.654582   -0.000887
      5          6           0       -0.950789    0.774502   -0.023468
      6          1           0       -1.781889    1.417671    0.030627
      7          1           0       -1.744242   -1.345937    0.070045
      8          1           0        2.197984   -0.256572   -0.078761
      9          1           0        0.855220    2.057965   -0.007227
 ---------------------------------------------------------------------

 SCF Done:  E(RAM1) =   2.01437414111     A.U. after   13 cycles

 Excitation energies and oscillator strengths:

 Excited State   1:      Singlet-A      5.5120 eV  224.94 nm  f=0.3405  <S**2>=0.000
      13 -> 14         0.69312
 This state for optimization and/or second-order correction.
 Total Energy, E(CIS) =   2.21693618347
 Copying the excited state density for this state as the 1-particle RhoCI density.

 Excited State   2:      Singlet-A      6.9189 eV  179.20 nm  f=0.0071  <S**2>=0.000
      12 -> 14         0.60848
      13 -> 15         0.31346

 Excited State   3:      Singlet-A      6.9667 eV  177.97 nm  f=0.0128  <S**2>=0.000
      12 -> 14        -0.33083
      13 -> 15         0.56879
      13 -> 16         0.15679
      13 -> 17         0.16429

 Excited State   4:      Singlet-A      7.2964 eV  169.93 nm  f=0.0029  <S**2>=0.000
      13 -> 15        -0.12023
      13 -> 16         0.61188
      13 -> 18         0.27362

 Excited State   5:      Singlet-A      7.7008 eV  161.00 nm  f=0.0058  <S**2>=0.000
      10 -> 14         0.69628

 Excited State   6:      Singlet-A      8.1755 eV  151.65 nm  f=0.0004  <S**2>=0.000
      13 -> 16        -0.18709
      13 -> 18         0.35380
      13 -> 19         0.53875
      13 -> 20         0.14272

 Excited State   7:      Singlet-A      8.6111 eV  143.98 nm  f=0.1274  <S**2>=0.000
      11 -> 14         0.69425

 Excited State   8:      Singlet-A      9.0395 eV  137.16 nm  f=0.0132  <S**2>=0.000
      11 -> 15        -0.13914
      11 -> 16         0.11569
      13 -> 15        -0.17533
      13 -> 17         0.62789

 Excited State   9:      Singlet-A      9.5487 eV  129.84 nm  f=0.0137  <S**2>=0.000
      10 -> 15        -0.16587
      11 -> 15         0.13745
      11 -> 16         0.20262
      12 -> 15         0.12499
      12 -> 16         0.16550
      12 -> 19         0.10925
      13 -> 18         0.37993
      13 -> 19        -0.35364

 Excited State  10:      Singlet-A      9.6073 eV  129.05 nm  f=0.0286  <S**2>=0.000
       9 -> 16        -0.10656
      10 -> 15         0.32293
      10 -> 16         0.10104
      10 -> 17         0.16745
      11 -> 16         0.11803
      12 -> 15        -0.16938
      12 -> 16        -0.21344
      12 -> 17        -0.10466
      12 -> 18        -0.20447
      12 -> 19        -0.19774
      13 -> 18         0.20866
      13 -> 19        -0.21295

 Excited State  11:      Singlet-A      9.9433 eV  124.69 nm  f=0.0710  <S**2>=0.000
      10 -> 16         0.12580
      12 -> 15         0.57493
      12 -> 16        -0.15603
      12 -> 17         0.20508
      12 -> 18        -0.19898
      12 -> 19        -0.10301

 Excited State  12:      Singlet-A      9.9762 eV  124.28 nm  f=0.0026  <S**2>=0.000
      13 -> 18        -0.20097
      13 -> 20         0.65291

 Excited State  13:      Singlet-A     10.2395 eV  121.08 nm  f=0.0036  <S**2>=0.000
      11 -> 15         0.56568
      11 -> 16         0.16383
      11 -> 17         0.13065
      13 -> 16         0.15070
      13 -> 18        -0.16116
      13 -> 20        -0.11973

 Excited State  14:      Singlet-A     10.2472 eV  120.99 nm  f=0.0691  <S**2>=0.000
      11 -> 16         0.11365
      13 -> 21         0.67864

 Excited State  15:      Singlet-A     10.4604 eV  118.53 nm  f=0.1535  <S**2>=0.000
      10 -> 15         0.25567
      10 -> 16         0.43156
      10 -> 18         0.14797
      12 -> 16         0.40403
      12 -> 18         0.15651

 The electronic state is 1-A.
 Alpha  occ. eigenvalues --   -1.94359  -1.19707  -0.96330  -0.82611  -0.79495
 Alpha  occ. eigenvalues --   -0.69309  -0.65356  -0.56652  -0.54482  -0.45177
 Alpha  occ. eigenvalues --   -0.44531  -0.42916  -0.31459
 Alpha virt. eigenvalues --    0.09711   0.18180   0.20419   0.24962   0.26714
 Alpha virt. eigenvalues --    0.27540   0.29719   0.29967   0.36135   0.44369
 Alpha virt. eigenvalues --    0.49921

 Mulliken charges:
               1
     1  C   -0.228278
     2  C   -2.027760
     3  O    3.200057
     4  C   -2.042024
     5  C   -0.164461
     6  H    0.256972
     7  H    0.362797
     8  H    0.379134
     9  H    0.263563
 Sum of Mulliken charges =   0.00000

 Dipole moment (field-independent basis, Debye):
    X=              3.1916    Y=             -8.8582    Z=             -0.4671  Tot=              9.4272
 N-N= 1.043374021571D+02 E-N=-1.694880913413D+02  KE=-1.551028656558D+01
 Orbital energies and kinetic energies (alpha):
                                 1                 2
   1         O                -1.943586         -1.392676
   2         O                -1.197072         -1.058580
   3         O                -0.963302         -0.862625
   4         O                -0.826110         -0.609661
   5         O                -0.794951         -0.686484
   6         O                -0.693088         -0.579628
   7         O                -0.653559         -0.517186

 Normal termination of Gaussian 09 at Tue Dec 15 17:07:14 2015.
