 Gaussian 09, Revision D.01,
 Gaussian 09:  ES64L-G09RevD.01 24-Apr-2013

 ------------------------------------------------------------
 #P AM1(Input,print) CIS(Singlets,NStates=15) pop(full) force
 ------------------------------------------------------------

 -----------------
 AM1-Reparam Input
 -----------------
 Symbolic Z-matrix:
 Charge =  0 Multiplicity = 1

                         Standard orientation:
 ---------------------------------------------------------------------
 Center     Atomic      Atomic             Coordinates (Angstroms)
 Number     Number       Type             X           Y           Z
 ---------------------------------------------------------------------
      1          6           0       -1.151780    0.428735   -0.051436
      2          6           0       -0.731541   -0.889562    0.041920
      3          8           0        0.676392   -0.968070   -0.012975
      4          6           0        1.099382    0.333947   -0.022468
      5          6           0        0.067705    1.137959    0.042047
      6          1           0        0.142793    2.267538    0.026043
      7          1           0        2.179964    0.367783    0.010261
      8          1           0       -1.272615   -1.756239    0.021526
      9          1           0       -2.163874    0.799003   -0.014409
 ---------------------------------------------------------------------

 SCF Done:  E(RAM1) =   2.85295622325     A.U. after   14 cycles

 Excitation energies and oscillator strengths:

 Excited State   1:      Singlet-A      5.2996 eV  233.95 nm  f=0.3245  <S**2>=0.000
      13 -> 14         0.69338
 This state for optimization and/or second-order correction.
 Total Energy, E(CIS) =   3.04771457475
 Copying the excited state density for this state as the 1-particle RhoCI density.

 Excited State   2:      Singlet-A      6.3142 eV  196.36 nm  f=0.0004  <S**2>=0.000
      11 -> 15         0.12647
      13 -> 15         0.66341
      13 -> 17        -0.12257
      13 -> 18        -0.11767

 Excited State   3:      Singlet-A      6.6393 eV  186.74 nm  f=0.0051  <S**2>=0.000
      12 -> 14         0.65731
      13 -> 16        -0.20913

 Excited State   4:      Singlet-A      6.6993 eV  185.07 nm  f=0.0047  <S**2>=0.000
      12 -> 14         0.22342
      13 -> 16         0.60934
      13 -> 17        -0.16578
      13 -> 18         0.10771
      13 -> 19         0.13246

 Excited State   5:      Singlet-A      7.7696 eV  159.58 nm  f=0.0101  <S**2>=0.000
      10 -> 14         0.34037
      11 -> 14        -0.10437
      11 -> 16        -0.10366
      13 -> 16         0.15576
      13 -> 17         0.51979
      13 -> 21        -0.20100

 Excited State   6:      Singlet-A      7.9026 eV  156.89 nm  f=0.0050  <S**2>=0.000
      10 -> 14         0.26347
      13 -> 15         0.10619
      13 -> 18         0.46197
      13 -> 21         0.41184

 Excited State   7:      Singlet-A      7.9480 eV  155.99 nm  f=0.0057  <S**2>=0.000
      10 -> 14         0.51334
      11 -> 14        -0.14791
      13 -> 17        -0.38366
      13 -> 18        -0.15937

 Excited State   8:      Singlet-A      8.6061 eV  144.06 nm  f=0.0574  <S**2>=0.000
      10 -> 14         0.17418
      11 -> 14         0.62426
      12 -> 15         0.16975
      13 -> 19        -0.13335

 Excited State   9:      Singlet-A      8.6698 eV  143.01 nm  f=0.0069  <S**2>=0.000
      11 -> 14         0.11525
      11 -> 16         0.10780
      13 -> 16        -0.12979
      13 -> 17        -0.11093
      13 -> 19         0.63213
      13 -> 20        -0.11047
      13 -> 21        -0.12579

 Excited State  10:      Singlet-A      8.9425 eV  138.65 nm  f=0.0075  <S**2>=0.000
      13 -> 18        -0.46357
      13 -> 19         0.14748
      13 -> 20         0.10849
      13 -> 21         0.48082

 Excited State  11:      Singlet-A      9.1196 eV  135.95 nm  f=0.1157  <S**2>=0.000
       8 -> 15        -0.11097
      10 -> 17         0.11017
      11 -> 14        -0.17387
      12 -> 15         0.52044
      12 -> 16        -0.19825
      12 -> 18        -0.20524
      13 -> 20        -0.19275

 Excited State  12:      Singlet-A      9.2950 eV  133.39 nm  f=0.0867  <S**2>=0.000
      12 -> 15         0.33756
      12 -> 16         0.14966
      12 -> 17        -0.17149
      13 -> 20         0.49129
      13 -> 21        -0.10594

 Excited State  13:      Singlet-A      9.4321 eV  131.45 nm  f=0.0756  <S**2>=0.000
      10 -> 15        -0.15729
      10 -> 17         0.16919
      12 -> 15        -0.15142
      12 -> 16        -0.27814
      12 -> 17         0.24834
      12 -> 18        -0.14761
      13 -> 20         0.42026

 Excited State  14:      Singlet-A      9.8508 eV  125.86 nm  f=0.0184  <S**2>=0.000
       7 -> 15        -0.13663
      11 -> 15         0.60189
      11 -> 16         0.12641
      11 -> 17        -0.10211
      12 -> 16         0.13629
      13 -> 15        -0.14509

 Excited State  15:      Singlet-A      9.9558 eV  124.53 nm  f=0.1562  <S**2>=0.000
       8 -> 16         0.15447
       9 -> 16         0.12587
      10 -> 19         0.14561
      11 -> 15        -0.20849
      12 -> 16         0.36592
      12 -> 17         0.29703
      12 -> 18        -0.11041
      12 -> 19         0.25970
      12 -> 20         0.12532

 The electronic state is 1-A.
 Alpha  occ. eigenvalues --   -1.70617  -1.11899  -0.92064  -0.78476  -0.75464
 Alpha  occ. eigenvalues --   -0.66109  -0.62969  -0.52943  -0.49929  -0.42987
 Alpha  occ. eigenvalues --   -0.42265  -0.38813  -0.27735
 Alpha virt. eigenvalues --    0.12443   0.17634   0.21136   0.25298   0.27811
 Alpha virt. eigenvalues --    0.28911   0.30261   0.31496   0.35323   0.44724
 Alpha virt. eigenvalues --    0.48044

 Mulliken charges:
               1
     1  C   -0.122838
     2  C   -1.962159
     3  O    3.206678
     4  C   -1.900281
     5  C   -0.144692
     6  H    0.175583
     7  H    0.278248
     8  H    0.294780
     9  H    0.174682
 Sum of Mulliken charges =   0.00000

 Dipole moment (field-independent basis, Debye):
    X=              6.5358    Y=             -8.8115    Z=             -0.2772  Tot=             10.9743
 N-N= 1.037667268013D+02 E-N=-1.688253950446D+02  KE=-1.475674007018D+01
 Orbital energies and kinetic energies (alpha):
                                 1                 2
   1         O                -1.706173         -1.189706
   2         O                -1.118991         -0.989632
   3         O                -0.920643         -0.848879
   4         O                -0.784762         -0.598266
   5         O                -0.754636         -0.677972
   6         O                -0.661091         -0.567068
   7         O                -0.629685         -0.522618

 Normal termination of Gaussian 09 at Tue Dec 15 17:05:53 2015.
