 Gaussian 09, Revision D.01,
 Gaussian 09:  ES64L-G09RevD.01 24-Apr-2013

 ------------------------------------------------------------
 #P AM1(Input,print) CIS(Singlets,NStates=15) pop(full) force
 ------------------------------------------------------------

 -----------------
 AM1-Reparam Input
 -----------------
 Symbolic Z-matrix:
 Charge =  0 Multiplicity = 1

                         Standard orientation:
 ---------------------------------------------------------------------
 Center     Atomic      Atomic             Coordinates (Angstroms)
 Number     Number       Type             X           Y           Z
 ---------------------------------------------------------------------
      1          6           0        0.666294    1.023339    0.017408
      2          6           0        1.136860   -0.249874   -0.014082
      3          8           0        0.089896   -1.178830   -0.004540
      4          6           0       -1.096074   -0.398709    0.011096
      5          6           0       -0.792337    0.873631   -0.015119
      6          1           0       -1.484298    1.786474   -0.001429
      7          1           0       -2.044421   -0.954456    0.016592
      8          1           0        2.101279   -0.747939    0.035972
      9          1           0        1.219823    1.856243   -0.010626
 ---------------------------------------------------------------------

 SCF Done:  E(RAM1) =   1.73976183680     A.U. after   14 cycles

 Excitation energies and oscillator strengths:

 Excited State   1:      Singlet-A      5.1359 eV  241.41 nm  f=0.3495  <S**2>=0.000
      13 -> 14         0.69582
 This state for optimization and/or second-order correction.
 Total Energy, E(CIS) =   1.92850401037
 Copying the excited state density for this state as the 1-particle RhoCI density.

 Excited State   2:      Singlet-A      5.9791 eV  207.36 nm  f=0.0005  <S**2>=0.000
      11 -> 15        -0.11371
      13 -> 15         0.62733
      13 -> 16        -0.19494
      13 -> 17        -0.15586
      13 -> 19        -0.14380

 Excited State   3:      Singlet-A      6.1258 eV  202.40 nm  f=0.0008  <S**2>=0.000
      11 -> 16         0.11139
      13 -> 15         0.20763
      13 -> 16         0.63015
      13 -> 19         0.16011

 Excited State   4:      Singlet-A      6.8335 eV  181.44 nm  f=0.0002  <S**2>=0.000
      12 -> 14         0.67689
      13 -> 20        -0.14312

 Excited State   5:      Singlet-A      7.1566 eV  173.24 nm  f=0.0027  <S**2>=0.000
      12 -> 14         0.15631
      13 -> 15        -0.13244
      13 -> 16         0.10820
      13 -> 17        -0.28761
      13 -> 18        -0.13068
      13 -> 19        -0.30739
      13 -> 20         0.48386

 Excited State   6:      Singlet-A      7.3894 eV  167.79 nm  f=0.0155  <S**2>=0.000
      13 -> 15         0.12867
      13 -> 17         0.59958
      13 -> 19        -0.16023
      13 -> 20         0.24999

 Excited State   7:      Singlet-A      8.1227 eV  152.64 nm  f=0.0022  <S**2>=0.000
      10 -> 14         0.23528
      13 -> 18         0.13744
      13 -> 19         0.50641
      13 -> 20         0.36517
      13 -> 21         0.11949

 Excited State   8:      Singlet-A      8.1819 eV  151.53 nm  f=0.0221  <S**2>=0.000
      10 -> 14         0.12500
      13 -> 17        -0.11439
      13 -> 18         0.64272
      13 -> 19        -0.20061

 Excited State   9:      Singlet-A      8.2470 eV  150.34 nm  f=0.0081  <S**2>=0.000
      10 -> 14         0.63795
      13 -> 18        -0.14694
      13 -> 19        -0.13424
      13 -> 20        -0.10199
      13 -> 21        -0.16275

 Excited State  10:      Singlet-A      8.6477 eV  143.37 nm  f=0.0430  <S**2>=0.000
      11 -> 14         0.64211
      12 -> 15        -0.12122
      12 -> 16        -0.12508
      13 -> 22         0.13741

 Excited State  11:      Singlet-A      8.9440 eV  138.62 nm  f=0.0635  <S**2>=0.000
      10 -> 14         0.10617
      13 -> 20        -0.16235
      13 -> 21         0.65670

 Excited State  12:      Singlet-A      9.1796 eV  135.06 nm  f=0.1342  <S**2>=0.000
       8 -> 15        -0.16127
      10 -> 17         0.16432
      12 -> 15        -0.25105
      12 -> 16         0.43670
      12 -> 17         0.14781
      12 -> 19         0.21022
      12 -> 20        -0.20951
      13 -> 21         0.10218

 Excited State  13:      Singlet-A      9.6550 eV  128.41 nm  f=0.2160  <S**2>=0.000
       8 -> 15         0.10934
       8 -> 16        -0.12711
      11 -> 14         0.21734
      12 -> 15         0.50050
      12 -> 16         0.24560
      12 -> 18        -0.20743

 Excited State  14:      Singlet-A      9.7369 eV  127.33 nm  f=0.0123  <S**2>=0.000
       7 -> 15         0.11655
      11 -> 15         0.64589
      11 -> 17        -0.10133
      13 -> 15         0.11845

 Excited State  15:      Singlet-A      9.8704 eV  125.61 nm  f=0.2628  <S**2>=0.000
       8 -> 15         0.10277
      10 -> 16        -0.10272
      10 -> 17         0.21931
      10 -> 19        -0.13015
      12 -> 16        -0.37844
      12 -> 17         0.38150
      12 -> 18        -0.17254
      12 -> 20        -0.18607

 The electronic state is 1-A.
 Alpha  occ. eigenvalues --   -1.89389  -1.21213  -0.98681  -0.81883  -0.79827
 Alpha  occ. eigenvalues --   -0.68207  -0.61767  -0.53267  -0.51707  -0.43397
 Alpha  occ. eigenvalues --   -0.41899  -0.38946  -0.25788
 Alpha virt. eigenvalues --    0.13252   0.18380   0.18910   0.25787   0.28056
 Alpha virt. eigenvalues --    0.29214   0.29668   0.31309   0.33544   0.42915
 Alpha virt. eigenvalues --    0.46991

 Mulliken charges:
               1
     1  C   -0.176840
     2  C   -1.904310
     3  O    3.174795
     4  C   -1.891555
     5  C   -0.117212
     6  H    0.166997
     7  H    0.292533
     8  H    0.276160
     9  H    0.179433
 Sum of Mulliken charges =   0.00000

 Dipole moment (field-independent basis, Debye):
    X=              0.5478    Y=            -11.3608    Z=              0.0433  Tot=             11.3741
 N-N= 1.032835595144D+02 E-N=-1.682966385822D+02  KE=-1.567155613238D+01
 Orbital energies and kinetic energies (alpha):
                                 1                 2
   1         O                -1.893889         -1.335239
   2         O                -1.212127         -1.099547
   3         O                -0.986808         -0.923781
   4         O                -0.818826         -0.656964
   5         O                -0.798270         -0.672736
   6         O                -0.682072         -0.584012
   7         O                -0.617668         -0.507568

 Normal termination of Gaussian 09 at Tue Dec 15 17:06:54 2015.
