 Gaussian 09, Revision D.01,
 Gaussian 09:  ES64L-G09RevD.01 24-Apr-2013

 ------------------------------------------------------------
 #P AM1(Input,print) CIS(Singlets,NStates=15) pop(full) force
 ------------------------------------------------------------

 -----------------
 AM1-Reparam Input
 -----------------
 Symbolic Z-matrix:
 Charge =  0 Multiplicity = 1

                         Standard orientation:
 ---------------------------------------------------------------------
 Center     Atomic      Atomic             Coordinates (Angstroms)
 Number     Number       Type             X           Y           Z
 ---------------------------------------------------------------------
      1          6           0       -0.885270    0.787392    0.015701
      2          6           0       -1.065905   -0.472591   -0.015346
      3          8           0        0.213108   -1.146504    0.022311
      4          6           0        1.169657   -0.156108   -0.021829
      5          6           0        0.536669    1.068398   -0.009674
      6          1           0        1.077165    1.969415    0.057703
      7          1           0        2.133243   -0.528447   -0.004625
      8          1           0       -1.874166   -1.175156   -0.029939
      9          1           0       -1.572016    1.543671   -0.014736
 ---------------------------------------------------------------------

 SCF Done:  E(RAM1) =  -6.73243737183     A.U. after   14 cycles

 Excitation energies and oscillator strengths:

 Excited State   1:      Singlet-A      5.5717 eV  222.52 nm  f=0.0014  <S**2>=0.000
      13 -> 14         0.15380
      13 -> 15         0.66506
      13 -> 16        -0.16148
 This state for optimization and/or second-order correction.
 Total Energy, E(CIS) =  -6.52768025877
 Copying the excited state density for this state as the 1-particle RhoCI density.

 Excited State   2:      Singlet-A      6.5385 eV  189.62 nm  f=0.1756  <S**2>=0.000
      11 -> 16         0.10689
      12 -> 15        -0.10447
      13 -> 14         0.63476
      13 -> 16         0.21551

 Excited State   3:      Singlet-A      6.9457 eV  178.51 nm  f=0.1663  <S**2>=0.000
      11 -> 14        -0.12267
      13 -> 14        -0.18603
      13 -> 15         0.19249
      13 -> 16         0.61599

 Excited State   4:      Singlet-A      8.0044 eV  154.90 nm  f=0.0016  <S**2>=0.000
      12 -> 15         0.15704
      12 -> 16         0.44902
      13 -> 17         0.41492
      13 -> 19         0.26108
      13 -> 20        -0.10794

 Excited State   5:      Singlet-A      8.1212 eV  152.67 nm  f=0.0005  <S**2>=0.000
      12 -> 15         0.13709
      12 -> 16         0.45068
      13 -> 17        -0.27655
      13 -> 18         0.17509
      13 -> 19        -0.39105

 Excited State   6:      Singlet-A      8.3428 eV  148.61 nm  f=0.0028  <S**2>=0.000
      10 -> 16         0.11672
      12 -> 14         0.45965
      12 -> 16         0.15782
      13 -> 17        -0.29075
      13 -> 18        -0.23716
      13 -> 19         0.24507

 Excited State   7:      Singlet-A      8.3675 eV  148.17 nm  f=0.0008  <S**2>=0.000
      12 -> 14         0.46680
      13 -> 17         0.28752
      13 -> 18         0.32174
      13 -> 19        -0.22616

 Excited State   8:      Singlet-A      8.6767 eV  142.89 nm  f=0.0695  <S**2>=0.000
      11 -> 14        -0.12349
      11 -> 16         0.13227
      12 -> 15         0.61046
      12 -> 16        -0.20649

 Excited State   9:      Singlet-A      8.8592 eV  139.95 nm  f=0.0476  <S**2>=0.000
      13 -> 17        -0.17172
      13 -> 18         0.49669
      13 -> 19         0.38736
      13 -> 20         0.13415
      13 -> 21         0.14702

 Excited State  10:      Singlet-A      9.0340 eV  137.24 nm  f=0.0021  <S**2>=0.000
      10 -> 14         0.13142
      10 -> 15         0.33341
      11 -> 14         0.18215
      11 -> 15         0.53841
      11 -> 16        -0.11920

 Excited State  11:      Singlet-A      9.2723 eV  133.71 nm  f=0.0187  <S**2>=0.000
      10 -> 14        -0.17026
      10 -> 15         0.11636
      10 -> 16         0.42634
      11 -> 14         0.27201
      11 -> 15        -0.13921
      11 -> 16        -0.29836
      12 -> 14        -0.21729

 Excited State  12:      Singlet-A      9.4467 eV  131.25 nm  f=0.0479  <S**2>=0.000
       9 -> 15         0.14173
      10 -> 14         0.29314
      10 -> 15        -0.13578
      11 -> 14         0.38736
      11 -> 16         0.25627
      12 -> 17        -0.29995
      13 -> 16         0.10025

 Excited State  13:      Singlet-A      9.7932 eV  126.60 nm  f=0.0280  <S**2>=0.000
       9 -> 15         0.10152
      10 -> 15        -0.32694
      10 -> 16        -0.10843
      11 -> 14         0.31626
      12 -> 17         0.41140
      12 -> 19         0.10002

 Excited State  14:      Singlet-A     10.0611 eV  123.23 nm  f=0.0172  <S**2>=0.000
       8 -> 16         0.12430
       9 -> 15         0.10769
      10 -> 14         0.52983
      10 -> 16         0.22947
      11 -> 14        -0.20537
      11 -> 16        -0.19283
      12 -> 17         0.15462

 Excited State  15:      Singlet-A     10.2991 eV  120.38 nm  f=0.1333  <S**2>=0.000
       9 -> 14         0.11736
       9 -> 15         0.16025
      10 -> 15         0.41482
      11 -> 15        -0.22689
      11 -> 16         0.26062
      12 -> 17         0.29098
      12 -> 20        -0.12901

 The electronic state is 1-A.
 Alpha  occ. eigenvalues --   -3.91286  -1.26037  -0.98695  -0.96536  -0.91023
 Alpha  occ. eigenvalues --   -0.88835  -0.78896  -0.62116  -0.61049  -0.53067
 Alpha  occ. eigenvalues --   -0.52338  -0.49201  -0.39123
 Alpha virt. eigenvalues --    0.07034   0.08336   0.08750   0.16772   0.17542
 Alpha virt. eigenvalues --    0.18465   0.23706   0.23835   0.27237   0.28994
 Alpha virt. eigenvalues --    0.30437

 Mulliken charges:
               1
     1  C   -0.104864
     2  C   -1.243605
     3  O    2.087860
     4  C   -1.268657
     5  C   -0.278452
     6  H    0.179301
     7  H    0.237447
     8  H    0.232627
     9  H    0.158342
 Sum of Mulliken charges =   0.00000

 Dipole moment (field-independent basis, Debye):
    X=              1.1497    Y=             -7.8848    Z=              0.4251  Tot=              7.9795
 N-N= 1.035470798634D+02 E-N=-1.692082514785D+02  KE=-2.558669727193D+01
 Orbital energies and kinetic energies (alpha):
                                 1                 2
   1         O                -3.912864         -3.294739
   2         O                -1.260368         -1.262911
   3         O                -0.986952         -1.066068
   4         O                -0.965360         -1.031302
   5         O                -0.910235         -0.874900
   6         O                -0.888352         -0.927860
   7         O                -0.788962         -0.848537

 Normal termination of Gaussian 09 at Fri Dec 11 13:41:28 2015.
