 Gaussian 09, Revision D.01,
 Gaussian 09:  ES64L-G09RevD.01 24-Apr-2013

 ------------------------------------------------------------
 #P AM1(Input,print) CIS(Singlets,NStates=15) pop(full) force
 ------------------------------------------------------------

 -----------------
 AM1-Reparam Input
 -----------------
 Symbolic Z-matrix:
 Charge =  0 Multiplicity = 1

                         Standard orientation:
 ---------------------------------------------------------------------
 Center     Atomic      Atomic             Coordinates (Angstroms)
 Number     Number       Type             X           Y           Z
 ---------------------------------------------------------------------
      1          6           0       -0.197900    1.156390    0.043568
      2          6           0       -1.108520    0.162563   -0.029677
      3          8           0       -0.565897   -1.014703   -0.009038
      4          6           0        0.806026   -0.773399    0.040957
      5          6           0        1.094403    0.493035   -0.035791
      6          1           0        2.056486    1.014981   -0.046533
      7          1           0        1.469283   -1.654014   -0.007324
      8          1           0       -2.224715    0.233390    0.020765
      9          1           0       -0.337938    2.291729   -0.008945
 ---------------------------------------------------------------------

 SCF Done:  E(RAM1) =   2.85095662576     A.U. after   14 cycles

 Excitation energies and oscillator strengths:

 Excited State   1:      Singlet-A      5.1243 eV  241.95 nm  f=0.3379  <S**2>=0.000
      13 -> 14         0.69672
 This state for optimization and/or second-order correction.
 Total Energy, E(CIS) =   3.03927282390
 Copying the excited state density for this state as the 1-particle RhoCI density.

 Excited State   2:      Singlet-A      5.9206 eV  209.41 nm  f=0.0015  <S**2>=0.000
      13 -> 15         0.66385
      13 -> 17         0.14723
      13 -> 18         0.11469

 Excited State   3:      Singlet-A      6.3651 eV  194.79 nm  f=0.0014  <S**2>=0.000
      13 -> 16         0.65381
      13 -> 17         0.11442
      13 -> 18        -0.14225
      13 -> 20        -0.10000

 Excited State   4:      Singlet-A      6.4622 eV  191.86 nm  f=0.0002  <S**2>=0.000
      12 -> 14         0.69694

 Excited State   5:      Singlet-A      7.4914 eV  165.50 nm  f=0.0002  <S**2>=0.000
      13 -> 15        -0.11635
      13 -> 16         0.14172
      13 -> 17         0.10280
      13 -> 18         0.52223
      13 -> 20         0.19397
      13 -> 21        -0.35455

 Excited State   6:      Singlet-A      7.5837 eV  163.49 nm  f=0.0154  <S**2>=0.000
      10 -> 14        -0.15460
      11 -> 14        -0.12252
      13 -> 15        -0.13319
      13 -> 16        -0.10864
      13 -> 17         0.63817

 Excited State   7:      Singlet-A      7.8928 eV  157.09 nm  f=0.0042  <S**2>=0.000
      10 -> 14         0.52439
      11 -> 14         0.41241
      13 -> 17         0.18300

 Excited State   8:      Singlet-A      8.4241 eV  147.18 nm  f=0.0005  <S**2>=0.000
      13 -> 19         0.65267
      13 -> 21         0.19433

 Excited State   9:      Singlet-A      8.5973 eV  144.21 nm  f=0.0204  <S**2>=0.000
      13 -> 18         0.40956
      13 -> 19        -0.11107
      13 -> 20        -0.40408
      13 -> 21         0.36895

 Excited State  10:      Singlet-A      8.6366 eV  143.56 nm  f=0.0766  <S**2>=0.000
      10 -> 14        -0.40891
      11 -> 14         0.50174
      12 -> 16        -0.16387

 Excited State  11:      Singlet-A      8.9145 eV  139.08 nm  f=0.0903  <S**2>=0.000
       8 -> 15         0.11826
      12 -> 15         0.50494
      12 -> 16        -0.24984
      12 -> 18         0.23824
      13 -> 20         0.11557
      13 -> 21         0.16355

 Excited State  12:      Singlet-A      9.1060 eV  136.16 nm  f=0.0926  <S**2>=0.000
      12 -> 15        -0.19912
      13 -> 19        -0.14320
      13 -> 20         0.49917
      13 -> 21         0.38673

 Excited State  13:      Singlet-A      9.3804 eV  132.17 nm  f=0.0675  <S**2>=0.000
       9 -> 15        -0.12268
      10 -> 14        -0.10893
      10 -> 15        -0.17645
      10 -> 17        -0.13602
      11 -> 14         0.17190
      12 -> 15         0.34184
      12 -> 16         0.41980
      12 -> 17         0.11750
      12 -> 18        -0.13558
      12 -> 20        -0.12800

 Excited State  14:      Singlet-A      9.6230 eV  128.84 nm  f=0.0356  <S**2>=0.000
       7 -> 15        -0.12262
       9 -> 15         0.10949
      10 -> 15        -0.15597
      11 -> 15         0.54159
      11 -> 17         0.14782
      12 -> 16         0.18495
      12 -> 18         0.14949
      13 -> 15        -0.10422

 Excited State  15:      Singlet-A      9.7037 eV  127.77 nm  f=0.1107  <S**2>=0.000
       8 -> 16        -0.11028
       9 -> 15         0.11029
      10 -> 15         0.30223
      10 -> 17         0.18476
      11 -> 15        -0.24358
      12 -> 16         0.32603
      12 -> 18         0.26250
      12 -> 21        -0.15244

 The electronic state is 1-A.
 Alpha  occ. eigenvalues --   -1.72813  -1.11860  -0.91797  -0.78706  -0.74394
 Alpha  occ. eigenvalues --   -0.65465  -0.64116  -0.52494  -0.48513  -0.43269
 Alpha  occ. eigenvalues --   -0.42763  -0.38466  -0.26976
 Alpha virt. eigenvalues --    0.12157   0.16898   0.19272   0.25627   0.27031
 Alpha virt. eigenvalues --    0.28875   0.29710   0.31610   0.38632   0.47860
 Alpha virt. eigenvalues --    0.51309

 Mulliken charges:
               1
     1  C   -0.213360
     2  C   -1.958140
     3  O    3.200031
     4  C   -1.917523
     5  C   -0.072635
     6  H    0.167050
     7  H    0.297115
     8  H    0.319701
     9  H    0.177761
 Sum of Mulliken charges =   0.00000

 Dipole moment (field-independent basis, Debye):
    X=             -5.1616    Y=             -9.1751    Z=             -0.2877  Tot=             10.5312
 N-N= 1.041610189039D+02 E-N=-1.696221735518D+02  KE=-1.476529092347D+01
 Orbital energies and kinetic energies (alpha):
                                 1                 2
   1         O                -1.728129         -1.232728
   2         O                -1.118603         -0.989915
   3         O                -0.917968         -0.845598
   4         O                -0.787063         -0.583459
   5         O                -0.743938         -0.681075
   6         O                -0.654645         -0.554139
   7         O                -0.641163         -0.526690

 Normal termination of Gaussian 09 at Tue Dec 15 17:06:02 2015.
