 Gaussian 09, Revision D.01,
 Gaussian 09:  ES64L-G09RevD.01 24-Apr-2013

 ------------------------------------------------------------
 #P AM1(Input,print) CIS(Singlets,NStates=15) pop(full) force
 ------------------------------------------------------------

 -----------------
 AM1-Reparam Input
 -----------------
 Symbolic Z-matrix:
 Charge =  0 Multiplicity = 1

                         Standard orientation:
 ---------------------------------------------------------------------
 Center     Atomic      Atomic             Coordinates (Angstroms)
 Number     Number       Type             X           Y           Z
 ---------------------------------------------------------------------
      1          6           0       -1.130919    0.287243   -0.029313
      2          6           0       -0.637332   -0.884118    0.006210
      3          8           0        0.735099   -0.927321   -0.005206
      4          6           0        1.033423    0.377811   -0.009964
      5          6           0       -0.047682    1.198774    0.038390
      6          1           0        0.041450    2.270713   -0.035986
      7          1           0        2.146735    0.537052   -0.008008
      8          1           0       -1.150029   -1.903191    0.061767
      9          1           0       -2.223890    0.635741   -0.008065
 ---------------------------------------------------------------------

 SCF Done:  E(RAM1) =   2.88796350366     A.U. after   14 cycles

 Excitation energies and oscillator strengths:

 Excited State   1:      Singlet-A      5.3102 eV  233.48 nm  f=0.3268  <S**2>=0.000
      13 -> 14         0.69460
 This state for optimization and/or second-order correction.
 Total Energy, E(CIS) =   3.08311057006
 Copying the excited state density for this state as the 1-particle RhoCI density.

 Excited State   2:      Singlet-A      5.9258 eV  209.23 nm  f=0.0001  <S**2>=0.000
      10 -> 15        -0.10071
      13 -> 15         0.63376
      13 -> 16        -0.21438
      13 -> 17        -0.12007
      13 -> 19        -0.13775

 Excited State   3:      Singlet-A      6.0395 eV  205.29 nm  f=0.0025  <S**2>=0.000
      10 -> 16         0.10165
      13 -> 15         0.20945
      13 -> 16         0.64332
      13 -> 17        -0.11332

 Excited State   4:      Singlet-A      6.7553 eV  183.54 nm  f=0.0009  <S**2>=0.000
      12 -> 14         0.69742

 Excited State   5:      Singlet-A      7.4403 eV  166.64 nm  f=0.0112  <S**2>=0.000
      11 -> 14        -0.13153
      13 -> 15         0.15622
      13 -> 17         0.63004
      13 -> 19         0.13755
      13 -> 21         0.16206

 Excited State   6:      Singlet-A      7.8190 eV  158.57 nm  f=0.0103  <S**2>=0.000
      11 -> 14         0.39490
      13 -> 18        -0.36193
      13 -> 19         0.30528
      13 -> 21         0.28827

 Excited State   7:      Singlet-A      7.8803 eV  157.33 nm  f=0.0008  <S**2>=0.000
      10 -> 14        -0.14034
      11 -> 14         0.53311
      13 -> 17         0.21595
      13 -> 18         0.26747
      13 -> 19        -0.14185
      13 -> 21        -0.20058

 Excited State   8:      Singlet-A      8.3265 eV  148.90 nm  f=0.0026  <S**2>=0.000
      13 -> 18         0.35580
      13 -> 19         0.56652
      13 -> 21        -0.15991

 Excited State   9:      Singlet-A      8.6227 eV  143.79 nm  f=0.0337  <S**2>=0.000
       8 -> 16         0.13302
      10 -> 14         0.52148
      11 -> 14         0.13718
      12 -> 16        -0.35172
      12 -> 17        -0.13221

 Excited State  10:      Singlet-A      8.8984 eV  139.33 nm  f=0.1149  <S**2>=0.000
       8 -> 15         0.14811
       8 -> 16         0.10798
      10 -> 14        -0.28183
      12 -> 15         0.39473
      12 -> 16        -0.28083
      13 -> 18         0.17488
      13 -> 21         0.23182

 Excited State  11:      Singlet-A      8.9118 eV  139.12 nm  f=0.0300  <S**2>=0.000
      10 -> 14         0.15003
      12 -> 15        -0.19632
      12 -> 16         0.11654
      13 -> 18         0.35580
      13 -> 21         0.49874

 Excited State  12:      Singlet-A      9.2602 eV  133.89 nm  f=0.0927  <S**2>=0.000
      10 -> 15         0.12024
      12 -> 16         0.25114
      13 -> 20         0.59530

 Excited State  13:      Singlet-A      9.3140 eV  133.12 nm  f=0.0846  <S**2>=0.000
       8 -> 15         0.11569
      10 -> 14         0.19463
      11 -> 16         0.11116
      12 -> 15         0.34234
      12 -> 16         0.39384
      13 -> 20        -0.31513

 Excited State  14:      Singlet-A      9.4628 eV  131.02 nm  f=0.0086  <S**2>=0.000
       7 -> 15         0.12047
      10 -> 15         0.54795
      10 -> 16         0.11448
      11 -> 15         0.32460
      13 -> 15         0.13893

 Excited State  15:      Singlet-A      9.5861 eV  129.34 nm  f=0.1570  <S**2>=0.000
       9 -> 15        -0.16659
      10 -> 14        -0.12082
      10 -> 15        -0.20806
      11 -> 15         0.31879
      11 -> 16         0.19461
      11 -> 17        -0.27521
      12 -> 15        -0.20492
      12 -> 17        -0.15015
      12 -> 18         0.22798
      12 -> 21        -0.10679

 The electronic state is 1-A.
 Alpha  occ. eigenvalues --   -1.72276  -1.13188  -0.91219  -0.78724  -0.73728
 Alpha  occ. eigenvalues --   -0.65344  -0.64012  -0.50638  -0.48838  -0.41993
 Alpha  occ. eigenvalues --   -0.41669  -0.38190  -0.26613
 Alpha virt. eigenvalues --    0.13650   0.17336   0.17660   0.25821   0.28620
 Alpha virt. eigenvalues --    0.29256   0.31518   0.33105   0.37611   0.47569
 Alpha virt. eigenvalues --    0.49862

 Mulliken charges:
               1
     1  C   -0.088836
     2  C   -1.899004
     3  O    3.183758
     4  C   -1.923807
     5  C   -0.183298
     6  H    0.173077
     7  H    0.281856
     8  H    0.294001
     9  H    0.162253
 Sum of Mulliken charges =   0.00000

 Dipole moment (field-independent basis, Debye):
    X=              6.7527    Y=             -9.1209    Z=             -0.0074  Tot=             11.3486
 N-N= 1.043148322869D+02 E-N=-1.699429455168D+02  KE=-1.478215003044D+01
 Orbital energies and kinetic energies (alpha):
                                 1                 2
   1         O                -1.722758         -1.225076
   2         O                -1.131883         -1.006877
   3         O                -0.912190         -0.851246
   4         O                -0.787239         -0.586194
   5         O                -0.737276         -0.662286
   6         O                -0.653437         -0.559005
   7         O                -0.640122         -0.534711

 Normal termination of Gaussian 09 at Tue Dec 15 17:05:50 2015.
