 Gaussian 09, Revision D.01,
 Gaussian 09:  ES64L-G09RevD.01 24-Apr-2013

 ------------------------------------------------------------
 #P AM1(Input,print) CIS(Singlets,NStates=15) pop(full) force
 ------------------------------------------------------------

 -----------------
 AM1-Reparam Input
 -----------------
 Symbolic Z-matrix:
 Charge =  0 Multiplicity = 1

                         Standard orientation:
 ---------------------------------------------------------------------
 Center     Atomic      Atomic             Coordinates (Angstroms)
 Number     Number       Type             X           Y           Z
 ---------------------------------------------------------------------
      1          6           0        1.007904    0.735301   -0.010651
      2          6           0        0.916886   -0.666669   -0.015906
      3          8           0       -0.356045   -1.062698    0.009082
      4          6           0       -1.117933   -0.040962   -0.017816
      5          6           0       -0.431617    1.100602    0.019935
      6          1           0       -0.735326    2.120375   -0.047185
      7          1           0       -2.221389   -0.217233    0.035419
      8          1           0        1.722424   -1.466074    0.028507
      9          1           0        1.831221    1.294886    0.057225
 ---------------------------------------------------------------------

 SCF Done:  E(RAM1) =   1.81231619552     A.U. after   14 cycles

 Excitation energies and oscillator strengths:

 Excited State   1:      Singlet-A      5.3563 eV  231.48 nm  f=0.3798  <S**2>=0.000
      13 -> 14         0.69478
 This state for optimization and/or second-order correction.
 Total Energy, E(CIS) =   2.00915514056
 Copying the excited state density for this state as the 1-particle RhoCI density.

 Excited State   2:      Singlet-A      6.4923 eV  190.97 nm  f=0.0052  <S**2>=0.000
      13 -> 15         0.67606
      13 -> 18         0.16675

 Excited State   3:      Singlet-A      6.7709 eV  183.11 nm  f=0.0043  <S**2>=0.000
      13 -> 16         0.65685
      13 -> 17        -0.21530

 Excited State   4:      Singlet-A      7.1868 eV  172.52 nm  f=0.0003  <S**2>=0.000
      12 -> 14         0.70066

 Excited State   5:      Singlet-A      7.9940 eV  155.10 nm  f=0.0001  <S**2>=0.000
      13 -> 16         0.16022
      13 -> 17         0.50472
      13 -> 18         0.36595
      13 -> 19         0.17287
      13 -> 21        -0.17405

 Excited State   6:      Singlet-A      8.5490 eV  145.03 nm  f=0.0082  <S**2>=0.000
      10 -> 14         0.68672

 Excited State   7:      Singlet-A      8.9154 eV  139.07 nm  f=0.1226  <S**2>=0.000
      11 -> 14         0.67757

 Excited State   8:      Singlet-A      8.9634 eV  138.32 nm  f=0.0135  <S**2>=0.000
      10 -> 14         0.11312
      11 -> 15        -0.10421
      13 -> 15        -0.12346
      13 -> 17        -0.36869
      13 -> 18         0.53644

 Excited State   9:      Singlet-A      9.4433 eV  131.29 nm  f=0.0028  <S**2>=0.000
      11 -> 16         0.15074
      13 -> 16        -0.10876
      13 -> 17        -0.14512
      13 -> 19         0.65585

 Excited State  10:      Singlet-A      9.6658 eV  128.27 nm  f=0.1087  <S**2>=0.000
       8 -> 15         0.10328
      10 -> 18         0.11929
      12 -> 15         0.43261
      12 -> 16        -0.31535
      12 -> 17         0.26838
      12 -> 18         0.20865

 Excited State  11:      Singlet-A      9.9295 eV  124.86 nm  f=0.0337  <S**2>=0.000
       9 -> 15        -0.13957
      10 -> 15        -0.20753
      10 -> 18        -0.14732
      12 -> 15         0.49931
      12 -> 16         0.23973
      12 -> 17        -0.25261
      12 -> 19        -0.10252

 Excited State  12:      Singlet-A     10.2712 eV  120.71 nm  f=0.0035  <S**2>=0.000
      11 -> 15         0.49938
      11 -> 16         0.28673
      13 -> 18         0.12435
      13 -> 20        -0.18390
      13 -> 21         0.24727

 Excited State  13:      Singlet-A     10.3063 eV  120.30 nm  f=0.0250  <S**2>=0.000
      11 -> 15         0.33565
      13 -> 20         0.44101
      13 -> 21        -0.38625

 Excited State  14:      Singlet-A     10.5446 eV  117.58 nm  f=0.0835  <S**2>=0.000
      10 -> 16         0.21089
      11 -> 15         0.12340
      11 -> 16        -0.35554
      12 -> 16         0.36596
      12 -> 17         0.13217
      12 -> 18         0.10602
      12 -> 19         0.13287
      13 -> 20         0.10488
      13 -> 21         0.25717

 Excited State  15:      Singlet-A     10.5786 eV  117.20 nm  f=0.0910  <S**2>=0.000
       8 -> 16        -0.11028
      10 -> 16         0.15857
      11 -> 15        -0.16797
      11 -> 16         0.37878
      12 -> 16         0.32198
      12 -> 17         0.18095
      12 -> 18         0.10679
      12 -> 19         0.14767
      13 -> 20        -0.14879
      13 -> 21        -0.20351

 The electronic state is 1-A.
 Alpha  occ. eigenvalues --   -2.02346  -1.26490  -1.00835  -0.91230  -0.83610
 Alpha  occ. eigenvalues --   -0.77234  -0.75803  -0.63886  -0.61084  -0.54711
 Alpha  occ. eigenvalues --   -0.52815  -0.50088  -0.37350
 Alpha virt. eigenvalues --    0.02827   0.09089   0.10764   0.18758   0.19664
 Alpha virt. eigenvalues --    0.21919   0.25112   0.26146   0.32753   0.40140
 Alpha virt. eigenvalues --    0.46210

 Mulliken charges:
               1
     1  C   -0.065659
     2  C   -1.926533
     3  O    3.160293
     4  C   -1.908004
     5  C   -0.163670
     6  H    0.155956
     7  H    0.314117
     8  H    0.301008
     9  H    0.132493
 Sum of Mulliken charges =   0.00000

 Dipole moment (field-independent basis, Debye):
    X=             -3.4319    Y=             -9.2771    Z=              0.5040  Tot=              9.9044
 N-N= 1.060790639640D+02 E-N=-1.713037346874D+02  KE=-1.568016099060D+01
 Orbital energies and kinetic energies (alpha):
                                 1                 2
   1         O                -2.023458         -1.425471
   2         O                -1.264895         -1.041318
   3         O                -1.008348         -0.861685
   4         O                -0.912299         -0.603324
   5         O                -0.836098         -0.693372
   6         O                -0.772335         -0.597833
   7         O                -0.758034         -0.555290

 Normal termination of Gaussian 09 at Tue Dec 15 17:09:01 2015.
