 Gaussian 09, Revision D.01,
 Gaussian 09:  ES64L-G09RevD.01 24-Apr-2013

 -------------------------------------------------------
 #P B3LYP/3-21G CIS(Singlets,NStates=15) pop(full) force
 -------------------------------------------------------

 --------
 FuranDFT
 --------
 Symbolic Z-matrix:
 Charge =  0 Multiplicity = 1

                         Standard orientation:
 ---------------------------------------------------------------------
 Center     Atomic      Atomic             Coordinates (Angstroms)
 Number     Number       Type             X           Y           Z
 ---------------------------------------------------------------------
      1          6           0        0.406120    1.091959    0.018226
      2          6           0        1.107284   -0.035841   -0.014882
      3          8           0        0.368895   -1.105081    0.022608
      4          6           0       -1.010431   -0.604028   -0.009463
      5          6           0       -0.913724    0.696158   -0.028902
      6          1           0       -1.827221    1.383583    0.078202
      7          1           0       -1.730922   -1.319018   -0.010736
      8          1           0        2.231231   -0.249486   -0.051530
      9          1           0        0.840253    2.136077    0.013329
 ---------------------------------------------------------------------

 SCF Done:  E(RB3LYP) =  -228.724323165     A.U. after   14 cycles

 Excitation energies and oscillator strengths:

 Excited State   1:      Singlet-A      7.1560 eV  173.26 nm  f=0.1640  <S**2>=0.000
      17 -> 19         0.16232
      18 -> 19         0.63935
      18 -> 20         0.17097
 This state for optimization and/or second-order correction.
 Total Energy, E(CIS) =  -228.461345561
 Copying the excited state density for this state as the 1-particle RhoCI density.

 Excited State   2:      Singlet-A      7.7732 eV  159.50 nm  f=0.0328  <S**2>=0.000
      17 -> 19         0.42188
      18 -> 19        -0.22357
      18 -> 20         0.49119
      18 -> 21        -0.11203

 Excited State   3:      Singlet-A      7.9442 eV  156.07 nm  f=0.0047  <S**2>=0.000
      17 -> 19         0.26803
      18 -> 20        -0.10919
      18 -> 21         0.62990

 Excited State   4:      Singlet-A      8.5019 eV  145.83 nm  f=0.0020  <S**2>=0.000
      18 -> 21         0.11764
      18 -> 22         0.68667

 Excited State   5:      Singlet-A      8.7757 eV  141.28 nm  f=0.0053  <S**2>=0.000
      16 -> 19         0.69200

 Excited State   6:      Singlet-A      9.3506 eV  132.59 nm  f=0.0059  <S**2>=0.000
      17 -> 20        -0.41832
      17 -> 21         0.53755
      17 -> 22        -0.11909

 Excited State   7:      Singlet-A      9.9445 eV  124.68 nm  f=0.1624  <S**2>=0.000
      15 -> 19         0.12834
      17 -> 19        -0.23220
      17 -> 20         0.16252
      17 -> 21         0.10630
      17 -> 22         0.29405
      18 -> 20         0.26312
      18 -> 21         0.13846
      18 -> 23         0.38966
      18 -> 24        -0.16064

 Excited State   8:      Singlet-A      9.9948 eV  124.05 nm  f=0.0053  <S**2>=0.000
      15 -> 19         0.54026
      17 -> 22        -0.34884
      18 -> 23         0.12957
      18 -> 24         0.21071

 Excited State   9:      Singlet-A     10.0810 eV  122.99 nm  f=0.1106  <S**2>=0.000
      15 -> 19         0.28065
      17 -> 19         0.16694
      17 -> 20        -0.19407
      17 -> 22         0.49625
      18 -> 20        -0.17804
      18 -> 21        -0.11842
      18 -> 24         0.18786

 Excited State  10:      Singlet-A     10.1428 eV  122.24 nm  f=0.1846  <S**2>=0.000
      15 -> 19        -0.10813
      17 -> 19         0.22121
      17 -> 22        -0.12237
      18 -> 20        -0.23174
      18 -> 21        -0.13867
      18 -> 23         0.53427
      18 -> 24        -0.14323

 Excited State  11:      Singlet-A     10.2213 eV  121.30 nm  f=0.0174  <S**2>=0.000
      15 -> 19        -0.22858
      17 -> 20         0.15601
      17 -> 21         0.16716
      18 -> 23         0.17315
      18 -> 24         0.58366

 Excited State  12:      Singlet-A     10.2903 eV  120.49 nm  f=0.1525  <S**2>=0.000
      15 -> 19         0.17962
      17 -> 19         0.19157
      17 -> 20         0.43297
      17 -> 21         0.36813
      18 -> 20        -0.13334
      18 -> 24        -0.13512

 Excited State  13:      Singlet-A     10.4166 eV  119.03 nm  f=0.0012  <S**2>=0.000
      14 -> 19         0.67736
      16 -> 20        -0.14620

 Excited State  14:      Singlet-A     10.5826 eV  117.16 nm  f=0.0055  <S**2>=0.000
      18 -> 25         0.69031

 Excited State  15:      Singlet-A     11.0206 eV  112.50 nm  f=0.0283  <S**2>=0.000
      14 -> 19         0.14381
      16 -> 20         0.64144
      16 -> 21         0.17289

 The electronic state is 1-A.
 Alpha  occ. eigenvalues --  -19.10607 -10.17742 -10.16486 -10.12825 -10.11771
 Alpha  occ. eigenvalues --   -1.12529  -0.82508  -0.74732  -0.59518  -0.57611
 Alpha  occ. eigenvalues --   -0.53879  -0.44938  -0.44608  -0.41110  -0.39999
 Alpha  occ. eigenvalues --   -0.35768  -0.28917  -0.23301
 Alpha virt. eigenvalues --    0.02352   0.09491   0.11006   0.12493   0.17665
 Alpha virt. eigenvalues --    0.18374   0.20340   0.25885   0.36527   0.44587
 Alpha virt. eigenvalues --    0.49117   0.67442   0.69518   0.72109   0.76378

 Mulliken charges:
               1
     1  C   -0.259992
     2  C    0.154646
     3  O   -0.475613
     4  C    0.018447
     5  C   -0.231438
     6  H    0.186941
     7  H    0.218842
     8  H    0.206878
     9  H    0.181288
 Sum of Mulliken charges =   0.00000

 Dipole moment (field-independent basis, Debye):
    X=             -0.3219    Y=              0.7110    Z=              0.0050  Tot=              0.7805
 Quadrupole moment (field-independent basis, Debye-Ang):
   XX=            -23.8774   YY=            -27.9849   ZZ=            -31.6358
   XY=              1.2151   XZ=             -0.2703   YZ=              0.1861

 Normal termination of Gaussian 09 at Tue Dec 15 16:21:23 2015.
