 Gaussian 09, Revision D.01,
 Gaussian 09:  ES64L-G09RevD.01 24-Apr-2013

 ------------------------------------------------------------
 #P AM1(Input,print) CIS(Singlets,NStates=15) pop(full) force
 ------------------------------------------------------------

 -----------------
 AM1-Reparam Input
 -----------------
 Symbolic Z-matrix:
 Charge =  0 Multiplicity = 1

                         Standard orientation:
 ---------------------------------------------------------------------
 Center     Atomic      Atomic             Coordinates (Angstroms)
 Number     Number       Type             X           Y           Z
 ---------------------------------------------------------------------
      1          6           0        0.959612    0.811778    0.014553
      2          6           0        0.988970   -0.599361   -0.004518
      3          8           0       -0.284980   -1.155866    0.008552
      4          6           0       -1.119805   -0.053989   -0.024754
      5          6           0       -0.525720    1.073199    0.000333
      6          1           0       -0.919785    2.022008   -0.017033
      7          1           0       -2.191863   -0.412602    0.069901
      8          1           0        1.864087   -1.278295   -0.035103
      9          1           0        1.709057    1.526061    0.000133
 ---------------------------------------------------------------------

 SCF Done:  E(RAM1) =   2.15185098311     A.U. after   14 cycles

 Excitation energies and oscillator strengths:

 Excited State   1:      Singlet-A      5.1398 eV  241.22 nm  f=0.3677  <S**2>=0.000
      13 -> 14         0.69711
 This state for optimization and/or second-order correction.
 Total Energy, E(CIS) =   2.34073640744
 Copying the excited state density for this state as the 1-particle RhoCI density.

 Excited State   2:      Singlet-A      5.6201 eV  220.61 nm  f=0.0019  <S**2>=0.000
      13 -> 15         0.68464
      13 -> 18         0.10843

 Excited State   3:      Singlet-A      6.2525 eV  198.30 nm  f=0.0011  <S**2>=0.000
      11 -> 16        -0.10468
      13 -> 16         0.66463
      13 -> 17        -0.17725

 Excited State   4:      Singlet-A      6.8204 eV  181.78 nm  f=0.0002  <S**2>=0.000
      12 -> 14         0.70210

 Excited State   5:      Singlet-A      7.6423 eV  162.23 nm  f=0.0000  <S**2>=0.000
      13 -> 16         0.13297
      13 -> 17         0.39890
      13 -> 18         0.47677
      13 -> 21        -0.16077
      13 -> 22         0.22725

 Excited State   6:      Singlet-A      8.2035 eV  151.14 nm  f=0.0168  <S**2>=0.000
      10 -> 14        -0.25939
      13 -> 17         0.48155
      13 -> 18        -0.42129

 Excited State   7:      Singlet-A      8.4622 eV  146.52 nm  f=0.0001  <S**2>=0.000
      10 -> 14         0.64869
      13 -> 17         0.20834
      13 -> 18        -0.14470

 Excited State   8:      Singlet-A      8.6986 eV  142.53 nm  f=0.0483  <S**2>=0.000
       9 -> 15         0.10163
      11 -> 14         0.54069
      12 -> 15         0.35539
      13 -> 19         0.19941

 Excited State   9:      Singlet-A      8.9002 eV  139.31 nm  f=0.0010  <S**2>=0.000
      13 -> 20         0.67706
      13 -> 22         0.13039

 Excited State  10:      Singlet-A      9.0814 eV  136.53 nm  f=0.2023  <S**2>=0.000
       9 -> 15         0.10705
      11 -> 14        -0.30731
      12 -> 15         0.51488
      12 -> 16        -0.17117
      12 -> 18         0.10870
      13 -> 19        -0.23489

 Excited State  11:      Singlet-A      9.3366 eV  132.79 nm  f=0.0184  <S**2>=0.000
      13 -> 17         0.14004
      13 -> 18         0.22787
      13 -> 21         0.50585
      13 -> 22        -0.38860

 Excited State  12:      Singlet-A      9.6716 eV  128.19 nm  f=0.1284  <S**2>=0.000
      11 -> 14        -0.22058
      12 -> 15         0.12390
      13 -> 19         0.45798
      13 -> 21        -0.24921
      13 -> 22        -0.35299

 Excited State  13:      Singlet-A      9.7173 eV  127.59 nm  f=0.1222  <S**2>=0.000
      11 -> 14        -0.20321
      12 -> 15         0.10354
      12 -> 16         0.12785
      13 -> 19         0.34183
      13 -> 20        -0.11090
      13 -> 21         0.34565
      13 -> 22         0.37913

 Excited State  14:      Singlet-A      9.8124 eV  126.36 nm  f=0.0278  <S**2>=0.000
       9 -> 16        -0.11380
      10 -> 15        -0.18883
      10 -> 18        -0.14643
      11 -> 15        -0.19751
      12 -> 15         0.16585
      12 -> 16         0.44509
      12 -> 17        -0.21736
      12 -> 18        -0.15504
      13 -> 19        -0.21263

 Excited State  15:      Singlet-A      9.9161 eV  125.03 nm  f=0.0016  <S**2>=0.000
       7 -> 15        -0.14113
      11 -> 15         0.62547
      12 -> 16         0.13080
      13 -> 15        -0.11134
      13 -> 21        -0.12379

 The electronic state is 1-A.
 Alpha  occ. eigenvalues --   -1.92415  -1.17733  -0.92079  -0.80349  -0.77431
 Alpha  occ. eigenvalues --   -0.69092  -0.64733  -0.53794  -0.52797  -0.45479
 Alpha  occ. eigenvalues --   -0.43829  -0.40022  -0.26794
 Alpha virt. eigenvalues --    0.11849   0.15754   0.18861   0.27699   0.28710
 Alpha virt. eigenvalues --    0.30582   0.30884   0.32105   0.33519   0.39448
 Alpha virt. eigenvalues --    0.42684

 Mulliken charges:
               1
     1  C   -0.182004
     2  C   -1.886003
     3  O    3.190623
     4  C   -1.799525
     5  C   -0.134192
     6  H    0.147843
     7  H    0.241391
     8  H    0.268237
     9  H    0.153632
 Sum of Mulliken charges =   0.00000

 Dipole moment (field-independent basis, Debye):
    X=             -3.3197    Y=            -11.3053    Z=              0.3749  Tot=             11.7886
 N-N= 1.035061438397D+02 E-N=-1.683076033333D+02  KE=-1.527003088136D+01
 Orbital energies and kinetic energies (alpha):
                                 1                 2
   1         O                -1.924147         -1.333164
   2         O                -1.177335         -1.052699
   3         O                -0.920789         -0.881457
   4         O                -0.803490         -0.575956
   5         O                -0.774310         -0.663284
   6         O                -0.690922         -0.596976
   7         O                -0.647329         -0.521460

 Normal termination of Gaussian 09 at Tue Dec 15 17:09:27 2015.
