 Gaussian 09, Revision D.01,
 Gaussian 09:  ES64L-G09RevD.01 24-Apr-2013

 ------------------------------------------------------------
 #P AM1(Input,print) CIS(Singlets,NStates=15) pop(full) force
 ------------------------------------------------------------

 -----------------
 AM1-Reparam Input
 -----------------
 Symbolic Z-matrix:
 Charge =  0 Multiplicity = 1

                         Standard orientation:
 ---------------------------------------------------------------------
 Center     Atomic      Atomic             Coordinates (Angstroms)
 Number     Number       Type             X           Y           Z
 ---------------------------------------------------------------------
      1          6           0       -0.885000    0.851222   -0.017525
      2          6           0       -1.028314   -0.529937    0.024752
      3          8           0        0.176282   -1.125813   -0.025403
      4          6           0        1.140646   -0.185201    0.009596
      5          6           0        0.603293    1.036301    0.004514
      6          1           0        1.084755    1.957468   -0.002401
      7          1           0        2.141008   -0.531214    0.041122
      8          1           0       -1.941124   -1.084861    0.040854
      9          1           0       -1.678640    1.630808   -0.004370
 ---------------------------------------------------------------------

 SCF Done:  E(RAM1) =   1.71675366264     A.U. after   13 cycles

 Excitation energies and oscillator strengths:

 Excited State   1:      Singlet-A      5.1835 eV  239.19 nm  f=0.3870  <S**2>=0.000
      13 -> 14         0.69710
 This state for optimization and/or second-order correction.
 Total Energy, E(CIS) =   1.90724544311
 Copying the excited state density for this state as the 1-particle RhoCI density.

 Excited State   2:      Singlet-A      6.7617 eV  183.36 nm  f=0.0006  <S**2>=0.000
      12 -> 14         0.70171

 Excited State   3:      Singlet-A      7.0845 eV  175.01 nm  f=0.0006  <S**2>=0.000
      13 -> 15        -0.38571
      13 -> 16         0.52988
      13 -> 18         0.21398
      13 -> 19        -0.11519

 Excited State   4:      Singlet-A      7.1563 eV  173.25 nm  f=0.0060  <S**2>=0.000
      13 -> 15         0.54577
      13 -> 16         0.39851
      13 -> 17        -0.15567

 Excited State   5:      Singlet-A      8.0516 eV  153.99 nm  f=0.0062  <S**2>=0.000
      11 -> 14         0.70021

 Excited State   6:      Singlet-A      8.5139 eV  145.63 nm  f=0.0001  <S**2>=0.000
      13 -> 15         0.12762
      13 -> 16        -0.13921
      13 -> 17         0.18026
      13 -> 18         0.59077
      13 -> 20         0.12179
      13 -> 21        -0.23546

 Excited State   7:      Singlet-A      9.1995 eV  134.77 nm  f=0.0102  <S**2>=0.000
      10 -> 14        -0.15703
      13 -> 16         0.10866
      13 -> 17         0.63637
      13 -> 18        -0.17030

 Excited State   8:      Singlet-A      9.2431 eV  134.14 nm  f=0.1137  <S**2>=0.000
      10 -> 14         0.66452
      13 -> 17         0.14789

 Excited State   9:      Singlet-A      9.6639 eV  128.30 nm  f=0.0027  <S**2>=0.000
      13 -> 19         0.68713

 Excited State  10:      Singlet-A      9.8958 eV  125.29 nm  f=0.0669  <S**2>=0.000
      11 -> 15         0.10812
      11 -> 16         0.10680
      11 -> 17        -0.19700
      12 -> 15        -0.31989
      12 -> 16         0.36500
      12 -> 18         0.35698

 Excited State  11:      Singlet-A     10.3234 eV  120.10 nm  f=0.0448  <S**2>=0.000
      13 -> 18        -0.22321
      13 -> 20         0.53521
      13 -> 21        -0.37138

 Excited State  12:      Singlet-A     10.4626 eV  118.50 nm  f=0.0590  <S**2>=0.000
      11 -> 15         0.19814
      11 -> 17        -0.10018
      12 -> 15         0.55559
      12 -> 16         0.28231
      12 -> 18         0.10609

 Excited State  13:      Singlet-A     10.6417 eV  116.51 nm  f=0.0609  <S**2>=0.000
      13 -> 18         0.11558
      13 -> 20         0.41390
      13 -> 21         0.54160

 Excited State  14:      Singlet-A     10.7497 eV  115.34 nm  f=0.1901  <S**2>=0.000
       9 -> 14         0.12263
      11 -> 15        -0.15150
      11 -> 16        -0.31327
      11 -> 17         0.16869
      12 -> 15        -0.10356
      12 -> 16         0.43940
      12 -> 17        -0.11799
      12 -> 18        -0.19631
      12 -> 19        -0.14120
      12 -> 20        -0.10447

 Excited State  15:      Singlet-A     10.8366 eV  114.41 nm  f=0.0092  <S**2>=0.000
       9 -> 14         0.67941

 The electronic state is 1-A.
 Alpha  occ. eigenvalues --   -1.91264  -1.15677  -0.93058  -0.82509  -0.77956
 Alpha  occ. eigenvalues --   -0.70222  -0.67787  -0.57799  -0.54991  -0.47781
 Alpha  occ. eigenvalues --   -0.46399  -0.42216  -0.30107
 Alpha virt. eigenvalues --    0.09122   0.18892   0.19290   0.27306   0.27545
 Alpha virt. eigenvalues --    0.29852   0.31894   0.34025   0.35030   0.43254
 Alpha virt. eigenvalues --    0.47749

 Mulliken charges:
               1
     1  C   -0.183379
     2  C   -2.051523
     3  O    3.302653
     4  C   -2.010324
     5  C   -0.162704
     6  H    0.208253
     7  H    0.336244
     8  H    0.350316
     9  H    0.210465
 Sum of Mulliken charges =   0.00000

 Dipole moment (field-independent basis, Debye):
    X=              1.5816    Y=            -10.0709    Z=             -0.4854  Tot=             10.2059
 N-N= 1.036825674565D+02 E-N=-1.689067889889D+02  KE=-1.546951473220D+01
 Orbital energies and kinetic energies (alpha):
                                 1                 2
   1         O                -1.912642         -1.380175
   2         O                -1.156772         -1.029956
   3         O                -0.930579         -0.886370
   4         O                -0.825086         -0.572958
   5         O                -0.779559         -0.703523
   6         O                -0.702217         -0.575457
   7         O                -0.677869         -0.529868

 Normal termination of Gaussian 09 at Tue Dec 15 17:09:45 2015.
