 Gaussian 09, Revision D.01,
 Gaussian 09:  ES64L-G09RevD.01 24-Apr-2013

 ------------------------------------------------------------
 #P AM1(Input,print) CIS(Singlets,NStates=15) pop(full) force
 ------------------------------------------------------------

 -----------------
 AM1-Reparam Input
 -----------------
 Symbolic Z-matrix:
 Charge =  0 Multiplicity = 1

                         Standard orientation:
 ---------------------------------------------------------------------
 Center     Atomic      Atomic             Coordinates (Angstroms)
 Number     Number       Type             X           Y           Z
 ---------------------------------------------------------------------
      1          6           0       -0.997617    0.663434    0.002578
      2          6           0       -0.876975   -0.703491   -0.019168
      3          8           0        0.403608   -1.045229    0.013682
      4          6           0        1.141382    0.032805   -0.004873
      5          6           0        0.313001    1.104345   -0.014920
      6          1           0        0.565638    2.173084    0.016866
      7          1           0        2.267236   -0.017053    0.024764
      8          1           0       -1.574377   -1.494734   -0.004473
      9          1           0       -1.966114    1.117970    0.071685
 ---------------------------------------------------------------------

 SCF Done:  E(RAM1) =  0.347517325225E-01 A.U. after   13 cycles

 Excitation energies and oscillator strengths:

 Excited State   1:      Singlet-A      4.4948 eV  275.84 nm  f=0.0984  <S**2>=0.000
      12 -> 15         0.20905
      13 -> 14         0.66800
 This state for optimization and/or second-order correction.
 Total Energy, E(CIS) =  0.199934343492
 Copying the excited state density for this state as the 1-particle RhoCI density.

 Excited State   2:      Singlet-A      4.7160 eV  262.90 nm  f=0.0002  <S**2>=0.000
      13 -> 16         0.68104
      13 -> 20         0.10527

 Excited State   3:      Singlet-A      5.0439 eV  245.81 nm  f=0.0165  <S**2>=0.000
      12 -> 14        -0.37858
      13 -> 15         0.59096

 Excited State   4:      Singlet-A      5.9887 eV  207.03 nm  f=0.0014  <S**2>=0.000
      12 -> 18         0.20381
      12 -> 21        -0.14736
      13 -> 18         0.51119
      13 -> 21        -0.29997
      13 -> 22         0.13289
      13 -> 23         0.16502

 Excited State   5:      Singlet-A      5.9951 eV  206.81 nm  f=0.0011  <S**2>=0.000
      12 -> 17        -0.12191
      12 -> 19        -0.15250
      12 -> 22        -0.11838
      13 -> 17         0.34791
      13 -> 18        -0.10991
      13 -> 19         0.39279
      13 -> 22         0.23185
      13 -> 23        -0.23387

 Excited State   6:      Singlet-A      6.1372 eV  202.02 nm  f=0.0113  <S**2>=0.000
       7 -> 16        -0.15646
      12 -> 14         0.10461
      12 -> 16         0.63771
      12 -> 20         0.10523
      12 -> 22         0.11261

 Excited State   7:      Singlet-A      6.3089 eV  196.52 nm  f=0.3443  <S**2>=0.000
      12 -> 14         0.54783
      12 -> 16        -0.11660
      13 -> 15         0.35005

 Excited State   8:      Singlet-A      6.5485 eV  189.33 nm  f=0.0066  <S**2>=0.000
      12 -> 15        -0.12688
      12 -> 18        -0.11429
      13 -> 17         0.49905
      13 -> 19        -0.40357
      13 -> 22        -0.11397

 Excited State   9:      Singlet-A      6.5648 eV  188.86 nm  f=0.1613  <S**2>=0.000
      12 -> 15         0.65062
      13 -> 14        -0.19045

 Excited State  10:      Singlet-A      6.9944 eV  177.26 nm  f=0.0098  <S**2>=0.000
       9 -> 14         0.18649
      10 -> 14        -0.37415
      10 -> 15         0.11880
      11 -> 14         0.42207
      11 -> 15         0.27215

 Excited State  11:      Singlet-A      7.1667 eV  173.00 nm  f=0.0002  <S**2>=0.000
      10 -> 14         0.11149
      12 -> 17         0.34975
      12 -> 18         0.11218
      12 -> 19        -0.25154
      12 -> 20         0.19722
      12 -> 23        -0.14411
      13 -> 18        -0.21085
      13 -> 19        -0.17405
      13 -> 20         0.21433
      13 -> 21        -0.16331
      13 -> 22         0.22561

 Excited State  12:      Singlet-A      7.3059 eV  169.71 nm  f=0.0003  <S**2>=0.000
      10 -> 14         0.44087
      10 -> 15        -0.26332
      11 -> 14         0.33863
      11 -> 15         0.18923
      13 -> 20         0.11813

 Excited State  13:      Singlet-A      7.3981 eV  167.59 nm  f=0.0006  <S**2>=0.000
      10 -> 14         0.13175
      12 -> 17         0.26996
      12 -> 19         0.18138
      12 -> 20         0.26466
      12 -> 23        -0.17919
      13 -> 17         0.20680
      13 -> 19         0.26081
      13 -> 21         0.14052
      13 -> 22        -0.25978
      13 -> 24         0.11214

 Excited State  14:      Singlet-A      7.5418 eV  164.40 nm  f=0.0090  <S**2>=0.000
       9 -> 15         0.10135
      10 -> 14        -0.10934
      11 -> 15        -0.12946
      12 -> 17         0.14859
      12 -> 18        -0.28296
      12 -> 19         0.21991
      13 -> 18         0.20975
      13 -> 20         0.38203
      13 -> 21         0.12410
      13 -> 23        -0.23916

 Excited State  15:      Singlet-A      7.6626 eV  161.80 nm  f=0.0006  <S**2>=0.000
      11 -> 14        -0.12615
      11 -> 15         0.10488
      12 -> 18         0.24021
      12 -> 19         0.24522
      12 -> 20        -0.10023
      12 -> 22         0.27599
      12 -> 23         0.20844
      13 -> 18        -0.23009
      13 -> 20         0.31520
      13 -> 24         0.16643

 The electronic state is 1-A.
 Alpha  occ. eigenvalues --   -1.61672  -1.24929  -1.10670  -0.83494  -0.81307
 Alpha  occ. eigenvalues --   -0.69417  -0.62603  -0.57086  -0.51382  -0.49799
 Alpha  occ. eigenvalues --   -0.48929  -0.39693  -0.34276
 Alpha virt. eigenvalues --    0.03544   0.06736   0.09243   0.13914   0.15151
 Alpha virt. eigenvalues --    0.15602   0.18058   0.18588   0.19364   0.20760
 Alpha virt. eigenvalues --    0.23348

 Mulliken charges:
               1
     1  C   -0.198075
     2  C   -0.134462
     3  O   -0.034741
     4  C   -0.116403
     5  C   -0.219864
     6  H    0.152965
     7  H    0.203278
     8  H    0.185181
     9  H    0.162120
 Sum of Mulliken charges =   0.00000

 Dipole moment (field-independent basis, Debye):
    X=              0.0313    Y=              0.1176    Z=              0.1333  Tot=              0.1805
 N-N= 1.043917870702D+02 E-N=-1.725464646059D+02  KE=-1.666244477621D+01
 Orbital energies and kinetic energies (alpha):
                                 1                 2
   1         O                -1.616721         -1.347346
   2         O                -1.249287         -1.062420
   3         O                -1.106702         -0.960474
   4         O                -0.834943         -0.706176
   5         O                -0.813069         -0.720071
   6         O                -0.694174         -0.607799
   7         O                -0.626025         -0.501895

 Normal termination of Gaussian 09 at Tue Dec 15 16:16:23 2015.
