 Gaussian 09, Revision D.01,
 Gaussian 09:  ES64L-G09RevD.01 24-Apr-2013

 -------------------------------------------------------
 #P B3LYP/3-21G CIS(Singlets,NStates=15) pop(full) force
 -------------------------------------------------------

 --------
 FuranDFT
 --------
 Symbolic Z-matrix:
 Charge =  0 Multiplicity = 1

                         Standard orientation:
 ---------------------------------------------------------------------
 Center     Atomic      Atomic             Coordinates (Angstroms)
 Number     Number       Type             X           Y           Z
 ---------------------------------------------------------------------
      1          6           0       -1.157311    0.290330   -0.028214
      2          6           0       -0.572330   -0.964085    0.039219
      3          8           0        0.763191   -0.880420   -0.007601
      4          6           0        1.032317    0.418708   -0.009386
      5          6           0       -0.081540    1.193798    0.014300
      6          1           0       -0.168388    2.210029    0.033333
      7          1           0        2.082468    0.696339   -0.010745
      8          1           0       -1.054420   -1.966954   -0.042835
      9          1           0       -2.292005    0.471443   -0.014456
 ---------------------------------------------------------------------

 SCF Done:  E(RB3LYP) =  -228.734743357     A.U. after   14 cycles

 Excitation energies and oscillator strengths:

 Excited State   1:      Singlet-A      7.2335 eV  171.40 nm  f=0.2285  <S**2>=0.000
      17 -> 19         0.12404
      18 -> 19         0.66737
      18 -> 20         0.10058
 This state for optimization and/or second-order correction.
 Total Energy, E(CIS) =  -228.468916386
 Copying the excited state density for this state as the 1-particle RhoCI density.

 Excited State   2:      Singlet-A      7.2671 eV  170.61 nm  f=0.0125  <S**2>=0.000
      17 -> 19         0.47513
      18 -> 19        -0.15492
      18 -> 20         0.49167

 Excited State   3:      Singlet-A      8.3500 eV  148.48 nm  f=0.0007  <S**2>=0.000
      18 -> 21         0.69976

 Excited State   4:      Singlet-A      8.9766 eV  138.12 nm  f=0.0077  <S**2>=0.000
      16 -> 19         0.69368

 Excited State   5:      Singlet-A      9.1599 eV  135.36 nm  f=0.0199  <S**2>=0.000
      17 -> 19         0.10912
      18 -> 20        -0.11370
      18 -> 22         0.67343

 Excited State   6:      Singlet-A      9.6050 eV  129.08 nm  f=0.1504  <S**2>=0.000
      17 -> 19        -0.23548
      17 -> 20        -0.21608
      17 -> 21         0.27597
      18 -> 20         0.23191
      18 -> 22         0.12900
      18 -> 23         0.46307

 Excited State   7:      Singlet-A      9.7200 eV  127.56 nm  f=0.2324  <S**2>=0.000
      17 -> 19         0.25960
      17 -> 20         0.36082
      17 -> 21         0.12996
      18 -> 20        -0.25409
      18 -> 23         0.40704

 Excited State   8:      Singlet-A      9.8759 eV  125.54 nm  f=0.1262  <S**2>=0.000
      17 -> 19        -0.15550
      17 -> 20         0.38531
      17 -> 21         0.44072
      18 -> 20         0.15507
      18 -> 23        -0.26902

 Excited State   9:      Singlet-A      9.9258 eV  124.91 nm  f=0.2281  <S**2>=0.000
      17 -> 19         0.23501
      17 -> 20        -0.36451
      17 -> 21         0.44364
      18 -> 20        -0.23441
      18 -> 23        -0.15075

 Excited State  10:      Singlet-A     10.0815 eV  122.98 nm  f=0.0041  <S**2>=0.000
      14 -> 19         0.17149
      15 -> 19         0.64949
      16 -> 20        -0.18537

 Excited State  11:      Singlet-A     10.2400 eV  121.08 nm  f=0.0080  <S**2>=0.000
      14 -> 19         0.62824
      15 -> 19        -0.20796
      16 -> 20        -0.17292
      18 -> 24        -0.12747

 Excited State  12:      Singlet-A     10.3595 eV  119.68 nm  f=0.0040  <S**2>=0.000
      14 -> 19         0.10456
      18 -> 24         0.67600

 Excited State  13:      Singlet-A     10.6874 eV  116.01 nm  f=0.0079  <S**2>=0.000
      16 -> 20         0.14630
      17 -> 22         0.67245

 Excited State  14:      Singlet-A     10.7197 eV  115.66 nm  f=0.0054  <S**2>=0.000
      13 -> 19         0.11633
      14 -> 19         0.20382
      15 -> 19         0.12334
      16 -> 20         0.62186
      17 -> 22        -0.16149

 Excited State  15:      Singlet-A     11.2274 eV  110.43 nm  f=0.0050  <S**2>=0.000
      13 -> 19         0.12907
      17 -> 23         0.10558
      18 -> 25         0.55537
      18 -> 26         0.37391

 The electronic state is 1-A.
 Alpha  occ. eigenvalues --  -19.12615 -10.17731 -10.17478 -10.13047 -10.11793
 Alpha  occ. eigenvalues --   -1.15630  -0.81347  -0.75001  -0.60776  -0.56699
 Alpha  occ. eigenvalues --   -0.54781  -0.46436  -0.44504  -0.41268  -0.40403
 Alpha  occ. eigenvalues --   -0.36628  -0.28392  -0.22763
 Alpha virt. eigenvalues --    0.02173   0.08072   0.12404   0.15033   0.17537
 Alpha virt. eigenvalues --    0.19309   0.23340   0.23782   0.34561   0.42279
 Alpha virt. eigenvalues --    0.47416   0.69558   0.69956   0.71764   0.74584

 Mulliken charges:
               1
     1  C   -0.230749
     2  C    0.081425
     3  O   -0.489146
     4  C    0.113579
     5  C   -0.269340
     6  H    0.190760
     7  H    0.212703
     8  H    0.207894
     9  H    0.182874
 Sum of Mulliken charges =   0.00000

 Dipole moment (field-independent basis, Debye):
    X=             -0.4570    Y=              0.5256    Z=             -0.0311  Tot=              0.6972
 Quadrupole moment (field-independent basis, Debye-Ang):
   XX=            -25.6235   YY=            -26.4652   ZZ=            -31.8035
   XY=              1.9938   XZ=              0.0759   YZ=              0.1940

 Normal termination of Gaussian 09 at Tue Dec 15 16:11:17 2015.
