 Gaussian 09, Revision D.01,
 Gaussian 09:  ES64L-G09RevD.01 24-Apr-2013

 ------------------------------------------------------------
 #P AM1(Input,print) CIS(Singlets,NStates=15) pop(full) force
 ------------------------------------------------------------

 -----------------
 AM1-Reparam Input
 -----------------
 Symbolic Z-matrix:
 Charge =  0 Multiplicity = 1

                         Standard orientation:
 ---------------------------------------------------------------------
 Center     Atomic      Atomic             Coordinates (Angstroms)
 Number     Number       Type             X           Y           Z
 ---------------------------------------------------------------------
      1          6           0        0.620232    1.021634   -0.011508
      2          6           0       -0.753987    0.813278   -0.000132
      3          8           0       -1.092145   -0.443872    0.008531
      4          6           0        0.103143   -1.113403   -0.010312
      5          6           0        1.170354   -0.257542    0.001872
      6          1           0        2.244777   -0.537404    0.008794
      7          1           0        0.078390   -2.216367    0.013477
      8          1           0       -1.523544    1.522542   -0.021462
      9          1           0        1.099085    1.998400    0.051417
 ---------------------------------------------------------------------

 SCF Done:  E(RAM1) =   1.72184604706     A.U. after   13 cycles

 Excitation energies and oscillator strengths:

 Excited State   1:      Singlet-A      5.7499 eV  215.63 nm  f=0.3434  <S**2>=0.000
      13 -> 14         0.69123
 This state for optimization and/or second-order correction.
 Total Energy, E(CIS) =   1.93315050426
 Copying the excited state density for this state as the 1-particle RhoCI density.

 Excited State   2:      Singlet-A      7.2787 eV  170.34 nm  f=0.0042  <S**2>=0.000
      10 -> 15         0.10772
      13 -> 15         0.66394
      13 -> 17        -0.15584

 Excited State   3:      Singlet-A      7.3320 eV  169.10 nm  f=0.0003  <S**2>=0.000
      12 -> 14         0.69776

 Excited State   4:      Singlet-A      7.5667 eV  163.85 nm  f=0.0013  <S**2>=0.000
      10 -> 16        -0.12685
      13 -> 16         0.66320
      13 -> 19        -0.12142

 Excited State   5:      Singlet-A      7.9522 eV  155.91 nm  f=0.0052  <S**2>=0.000
      11 -> 14         0.69845

 Excited State   6:      Singlet-A      9.2414 eV  134.16 nm  f=0.0002  <S**2>=0.000
      10 -> 15        -0.10106
      13 -> 17        -0.27478
      13 -> 18         0.55351
      13 -> 19         0.14075
      13 -> 22        -0.25654

 Excited State   7:      Singlet-A      9.3787 eV  132.20 nm  f=0.0098  <S**2>=0.000
      10 -> 16        -0.12222
      13 -> 17         0.60907
      13 -> 18         0.27529

 Excited State   8:      Singlet-A      9.4020 eV  131.87 nm  f=0.0870  <S**2>=0.000
      10 -> 14         0.66843

 Excited State   9:      Singlet-A      9.9362 eV  124.78 nm  f=0.0189  <S**2>=0.000
       8 -> 16        -0.10711
       9 -> 15         0.16811
      10 -> 14        -0.14254
      11 -> 15         0.24630
      11 -> 16         0.19081
      11 -> 17        -0.24267
      12 -> 15         0.28964
      12 -> 16        -0.23689
      12 -> 18         0.25869

 Excited State  10:      Singlet-A      9.9431 eV  124.69 nm  f=0.0010  <S**2>=0.000
      13 -> 18        -0.19182
      13 -> 19         0.64418

 Excited State  11:      Singlet-A     10.3879 eV  119.35 nm  f=0.1150  <S**2>=0.000
      11 -> 15        -0.42914
      11 -> 17         0.12337
      11 -> 19        -0.10054
      12 -> 15         0.49133
      12 -> 17        -0.12711

 Excited State  12:      Singlet-A     10.6099 eV  116.86 nm  f=0.1669  <S**2>=0.000
       9 -> 16        -0.11475
      11 -> 15         0.12000
      11 -> 16         0.20018
      11 -> 18        -0.10533
      12 -> 15         0.14622
      12 -> 16         0.59438

 Excited State  13:      Singlet-A     10.8092 eV  114.70 nm  f=0.0827  <S**2>=0.000
       9 -> 14         0.11790
      10 -> 15         0.22546
      13 -> 20         0.59673
      13 -> 22        -0.18909

 Excited State  14:      Singlet-A     10.8432 eV  114.34 nm  f=0.0571  <S**2>=0.000
       8 -> 16        -0.17738
       9 -> 15        -0.20927
      10 -> 14        -0.10954
      10 -> 15        -0.13017
      11 -> 15        -0.17243
      11 -> 16         0.33990
      11 -> 19        -0.25234
      12 -> 15        -0.21200
      12 -> 17        -0.23379
      12 -> 19        -0.11875

 Excited State  15:      Singlet-A     10.8987 eV  113.76 nm  f=0.0048  <S**2>=0.000
      10 -> 15         0.47954
      10 -> 16         0.11490
      13 -> 15        -0.12025
      13 -> 18         0.17223
      13 -> 19         0.11625
      13 -> 22         0.36082

 The electronic state is 1-A.
 Alpha  occ. eigenvalues --   -1.91383  -1.18154  -0.91627  -0.81823  -0.77849
 Alpha  occ. eigenvalues --   -0.69911  -0.68098  -0.55318  -0.54501  -0.46119
 Alpha  occ. eigenvalues --   -0.44023  -0.42167  -0.31113
 Alpha virt. eigenvalues --    0.11700   0.18712   0.19694   0.27165   0.28743
 Alpha virt. eigenvalues --    0.30357   0.32704   0.36025   0.36413   0.44981
 Alpha virt. eigenvalues --    0.48141

 Mulliken charges:
               1
     1  C   -0.187720
     2  C   -2.047957
     3  O    3.283788
     4  C   -2.029416
     5  C   -0.097181
     6  H    0.197479
     7  H    0.335837
     8  H    0.340368
     9  H    0.204803
 Sum of Mulliken charges =   0.00000

 Dipole moment (field-independent basis, Debye):
    X=             -9.7686    Y=             -3.9544    Z=              0.2628  Tot=             10.5419
 N-N= 1.040959431672D+02 E-N=-1.697886738640D+02  KE=-1.551782365598D+01
 Orbital energies and kinetic energies (alpha):
                                 1                 2
   1         O                -1.913832         -1.390362
   2         O                -1.181537         -1.065983
   3         O                -0.916271         -0.881996
   4         O                -0.818227         -0.569634
   5         O                -0.778485         -0.689046
   6         O                -0.699105         -0.589351
   7         O                -0.680982         -0.540761

 Normal termination of Gaussian 09 at Tue Dec 15 17:09:42 2015.
