 Gaussian 09, Revision D.01,
 Gaussian 09:  ES64L-G09RevD.01 24-Apr-2013

 ------------------------------------------------------------
 #P AM1(Input,print) CIS(Singlets,NStates=15) pop(full) force
 ------------------------------------------------------------

 -----------------
 AM1-Reparam Input
 -----------------
 Symbolic Z-matrix:
 Charge =  0 Multiplicity = 1

                         Standard orientation:
 ---------------------------------------------------------------------
 Center     Atomic      Atomic             Coordinates (Angstroms)
 Number     Number       Type             X           Y           Z
 ---------------------------------------------------------------------
      1          6           0        0.189453    1.179624   -0.007322
      2          6           0        1.110218    0.098785   -0.010080
      3          8           0        0.524540   -1.018994    0.021351
      4          6           0       -0.864042   -0.752405   -0.027256
      5          6           0       -1.003499    0.533802    0.034799
      6          1           0       -2.008220    1.067352   -0.039839
      7          1           0       -1.475100   -1.599951   -0.033952
      8          1           0        2.209512    0.142955   -0.033423
      9          1           0        0.484703    2.182759   -0.004430
 ---------------------------------------------------------------------

 SCF Done:  E(RAM1) =   2.14884828629     A.U. after   13 cycles

 Excitation energies and oscillator strengths:

 Excited State   1:      Singlet-A      5.8490 eV  211.98 nm  f=0.3255  <S**2>=0.000
      13 -> 14         0.69104
 This state for optimization and/or second-order correction.
 Total Energy, E(CIS) =   2.36379427409
 Copying the excited state density for this state as the 1-particle RhoCI density.

 Excited State   2:      Singlet-A      6.2993 eV  196.82 nm  f=0.0030  <S**2>=0.000
      13 -> 15         0.66497
      13 -> 17        -0.16614

 Excited State   3:      Singlet-A      7.2133 eV  171.88 nm  f=0.0026  <S**2>=0.000
      12 -> 14         0.66607
      13 -> 16         0.20225

 Excited State   4:      Singlet-A      7.2949 eV  169.96 nm  f=0.0006  <S**2>=0.000
      10 -> 16         0.10822
      12 -> 14        -0.21655
      13 -> 16         0.63644
      13 -> 19         0.10454

 Excited State   5:      Singlet-A      8.2313 eV  150.62 nm  f=0.0076  <S**2>=0.000
      10 -> 14         0.15326
      11 -> 14        -0.28628
      13 -> 15         0.12286
      13 -> 17         0.55148
      13 -> 18         0.10220
      13 -> 21         0.18093

 Excited State   6:      Singlet-A      8.3790 eV  147.97 nm  f=0.0004  <S**2>=0.000
      10 -> 14        -0.26919
      11 -> 14         0.55533
      13 -> 17         0.29265

 Excited State   7:      Singlet-A      8.7180 eV  142.22 nm  f=0.0082  <S**2>=0.000
      13 -> 17        -0.20542
      13 -> 18         0.55987
      13 -> 19         0.17947
      13 -> 21         0.28749

 Excited State   8:      Singlet-A      9.1194 eV  135.96 nm  f=0.0162  <S**2>=0.000
      10 -> 14         0.48567
      11 -> 14         0.22588
      11 -> 15         0.11335
      11 -> 16         0.12374
      12 -> 15         0.21159
      12 -> 17        -0.26714
      12 -> 18        -0.11101

 Excited State   9:      Singlet-A      9.2623 eV  133.86 nm  f=0.0022  <S**2>=0.000
      10 -> 15        -0.10762
      13 -> 17        -0.12570
      13 -> 18        -0.32230
      13 -> 19         0.52984
      13 -> 20         0.18124
      13 -> 21         0.15350

 Excited State  10:      Singlet-A      9.5369 eV  130.00 nm  f=0.0742  <S**2>=0.000
       9 -> 15         0.17568
      10 -> 14        -0.27683
      11 -> 14        -0.15562
      12 -> 15         0.52085
      12 -> 17        -0.11438
      13 -> 22        -0.10311

 Excited State  11:      Singlet-A      9.7311 eV  127.41 nm  f=0.0067  <S**2>=0.000
       7 -> 15         0.11612
      10 -> 15         0.43309
      11 -> 15         0.46286
      13 -> 15         0.15375
      13 -> 19         0.12069

 Excited State  12:      Singlet-A      9.8918 eV  125.34 nm  f=0.0121  <S**2>=0.000
      13 -> 18        -0.19893
      13 -> 19        -0.35237
      13 -> 20         0.25905
      13 -> 21         0.49372

 Excited State  13:      Singlet-A      9.9492 eV  124.62 nm  f=0.1099  <S**2>=0.000
       9 -> 15        -0.11195
      10 -> 14         0.10616
      10 -> 15         0.45939
      11 -> 15        -0.38944
      11 -> 17         0.13969
      12 -> 15         0.16666

 Excited State  14:      Singlet-A     10.0509 eV  123.36 nm  f=0.1935  <S**2>=0.000
       9 -> 15        -0.12388
      12 -> 16         0.58132
      12 -> 17        -0.20746
      12 -> 18        -0.15723
      12 -> 19         0.14186

 Excited State  15:      Singlet-A     10.1206 eV  122.51 nm  f=0.1860  <S**2>=0.000
       9 -> 15         0.10077
      10 -> 14         0.22631
      11 -> 14         0.12548
      11 -> 16        -0.11023
      12 -> 15         0.14709
      12 -> 16         0.30334
      12 -> 17         0.34231
      12 -> 18         0.33920
      12 -> 20         0.11067

 The electronic state is 1-A.
 Alpha  occ. eigenvalues --   -1.95914  -1.21995  -0.93975  -0.81263  -0.78923
 Alpha  occ. eigenvalues --   -0.69616  -0.67851  -0.56360  -0.53057  -0.45128
 Alpha  occ. eigenvalues --   -0.44637  -0.40787  -0.30328
 Alpha virt. eigenvalues --    0.12773   0.15640   0.20321   0.24285   0.27498
 Alpha virt. eigenvalues --    0.29023   0.32100   0.33179   0.33707   0.41661
 Alpha virt. eigenvalues --    0.46068

 Mulliken charges:
               1
     1  C   -0.230980
     2  C   -1.951543
     3  O    3.210517
     4  C   -1.853988
     5  C   -0.039414
     6  H    0.152367
     7  H    0.252230
     8  H    0.295665
     9  H    0.165147
 Sum of Mulliken charges =   0.00000

 Dipole moment (field-independent basis, Debye):
    X=              5.0555    Y=             -9.1293    Z=              0.4751  Tot=             10.4464
 N-N= 1.049916073744D+02 E-N=-1.706707888917D+02  KE=-1.541807921179D+01
 Orbital energies and kinetic energies (alpha):
                                 1                 2
   1         O                -1.959137         -1.397170
   2         O                -1.219950         -1.069728
   3         O                -0.939745         -0.887635
   4         O                -0.812626         -0.559225
   5         O                -0.789233         -0.687340
   6         O                -0.696160         -0.591046
   7         O                -0.678509         -0.539613

 Normal termination of Gaussian 09 at Tue Dec 15 17:09:28 2015.
