 Gaussian 09, Revision D.01,
 Gaussian 09:  ES64L-G09RevD.01 24-Apr-2013

 ------------------------------------------------------------
 #P AM1(Input,print) CIS(Singlets,NStates=15) pop(full) force
 ------------------------------------------------------------

 -----------------
 AM1-Reparam Input
 -----------------
 Symbolic Z-matrix:
 Charge =  0 Multiplicity = 1

                         Standard orientation:
 ---------------------------------------------------------------------
 Center     Atomic      Atomic             Coordinates (Angstroms)
 Number     Number       Type             X           Y           Z
 ---------------------------------------------------------------------
      1          6           0        0.891225    0.800723    0.015921
      2          6           0        1.016608   -0.509661    0.031629
      3          8           0       -0.214954   -1.150807   -0.014098
      4          6           0       -1.141199   -0.136255   -0.007561
      5          6           0       -0.532356    1.050949   -0.024795
      6          1           0       -1.111574    2.035757    0.060398
      7          1           0       -2.156911   -0.506916    0.075583
      8          1           0        1.919511   -1.151118   -0.050373
      9          1           0        1.662937    1.594196   -0.063994
 ---------------------------------------------------------------------

 SCF Done:  E(RAM1) =   2.71174297307     A.U. after   14 cycles

 Excitation energies and oscillator strengths:

 Excited State   1:      Singlet-A      5.1466 eV  240.91 nm  f=0.3396  <S**2>=0.000
      13 -> 14         0.69288
 This state for optimization and/or second-order correction.
 Total Energy, E(CIS) =   2.90087651749
 Copying the excited state density for this state as the 1-particle RhoCI density.

 Excited State   2:      Singlet-A      5.7617 eV  215.19 nm  f=0.0004  <S**2>=0.000
      10 -> 16        -0.11160
      13 -> 15         0.66304
      13 -> 16        -0.12713
      13 -> 19        -0.14738

 Excited State   3:      Singlet-A      5.8661 eV  211.36 nm  f=0.0087  <S**2>=0.000
      10 -> 15        -0.11097
      13 -> 15         0.11985
      13 -> 16         0.65680
      13 -> 17        -0.17064

 Excited State   4:      Singlet-A      6.7751 eV  183.00 nm  f=0.0006  <S**2>=0.000
      12 -> 14         0.69311

 Excited State   5:      Singlet-A      7.3128 eV  169.54 nm  f=0.0122  <S**2>=0.000
      11 -> 14        -0.12048
      13 -> 16         0.15447
      13 -> 17         0.66801

 Excited State   6:      Singlet-A      7.4656 eV  166.07 nm  f=0.0001  <S**2>=0.000
      13 -> 18         0.54999
      13 -> 19         0.19816
      13 -> 21         0.36241

 Excited State   7:      Singlet-A      7.9009 eV  156.92 nm  f=0.0051  <S**2>=0.000
      11 -> 14         0.68709
      13 -> 17         0.11624

 Excited State   8:      Singlet-A      8.1761 eV  151.64 nm  f=0.0004  <S**2>=0.000
      13 -> 18        -0.31572
      13 -> 19         0.60712

 Excited State   9:      Singlet-A      8.7511 eV  141.68 nm  f=0.0014  <S**2>=0.000
      13 -> 18        -0.29532
      13 -> 19        -0.24084
      13 -> 20        -0.19348
      13 -> 21         0.54695

 Excited State  10:      Singlet-A      8.7872 eV  141.10 nm  f=0.0668  <S**2>=0.000
       8 -> 16         0.16992
      10 -> 14        -0.36593
      11 -> 17         0.15515
      12 -> 15         0.38205
      12 -> 16        -0.29446
      12 -> 18        -0.16379

 Excited State  11:      Singlet-A      8.8322 eV  140.38 nm  f=0.0336  <S**2>=0.000
       8 -> 15         0.13957
      10 -> 14         0.44734
      11 -> 17         0.10627
      12 -> 15         0.42472
      12 -> 16         0.14810
      12 -> 18        -0.11199

 Excited State  12:      Singlet-A      9.1352 eV  135.72 nm  f=0.1122  <S**2>=0.000
      13 -> 20         0.65449
      13 -> 21         0.19502

 Excited State  13:      Singlet-A      9.2851 eV  133.53 nm  f=0.1687  <S**2>=0.000
       9 -> 15        -0.13340
      10 -> 14        -0.14923
      11 -> 15         0.21120
      11 -> 16         0.21714
      11 -> 17        -0.28444
      12 -> 15         0.29595
      12 -> 16         0.19832
      12 -> 17        -0.18647
      12 -> 18         0.27150
      13 -> 20        -0.10251

 Excited State  14:      Singlet-A      9.3743 eV  132.26 nm  f=0.1985  <S**2>=0.000
      10 -> 14        -0.30191
      11 -> 15         0.10916
      11 -> 16        -0.16972
      11 -> 17         0.17780
      12 -> 16         0.50256
      12 -> 18        -0.20337

 Excited State  15:      Singlet-A      9.7317 eV  127.40 nm  f=0.0523  <S**2>=0.000
       7 -> 15         0.11050
       8 -> 15         0.11329
      10 -> 14        -0.12360
      10 -> 15         0.45862
      10 -> 16         0.36984
      11 -> 15        -0.13926
      12 -> 18         0.10849
      13 -> 15         0.11474

 The electronic state is 1-A.
 Alpha  occ. eigenvalues --   -1.75262  -1.12939  -0.92708  -0.78942  -0.74090
 Alpha  occ. eigenvalues --   -0.64791  -0.62901  -0.52854  -0.49207  -0.42768
 Alpha  occ. eigenvalues --   -0.41935  -0.38422  -0.26036
 Alpha virt. eigenvalues --    0.13254   0.17410   0.17749   0.25256   0.27398
 Alpha virt. eigenvalues --    0.29714   0.31155   0.32625   0.46116   0.55394
 Alpha virt. eigenvalues --    0.58856

 Mulliken charges:
               1
     1  C   -0.057738
     2  C   -1.977464
     3  O    3.339466
     4  C   -1.965204
     5  C   -0.097316
     6  H    0.121074
     7  H    0.251067
     8  H    0.269765
     9  H    0.116350
 Sum of Mulliken charges =   0.00000

 Dipole moment (field-independent basis, Debye):
    X=             -1.9384    Y=            -11.5245    Z=             -0.3613  Tot=             11.6920
 N-N= 1.034094947225D+02 E-N=-1.683121250333D+02  KE=-1.482628402870D+01
 Orbital energies and kinetic energies (alpha):
                                 1                 2
   1         O                -1.752621         -1.240579
   2         O                -1.129391         -0.994502
   3         O                -0.927078         -0.861195
   4         O                -0.789417         -0.583675
   5         O                -0.740903         -0.678349
   6         O                -0.647908         -0.546019
   7         O                -0.629014         -0.524654

 Normal termination of Gaussian 09 at Tue Dec 15 17:05:26 2015.
