 Gaussian 09, Revision D.01,
 Gaussian 09:  ES64L-G09RevD.01 24-Apr-2013

 ------------------------------------------------------------
 #P AM1(Input,print) CIS(Singlets,NStates=15) pop(full) force
 ------------------------------------------------------------

 -----------------
 AM1-Reparam Input
 -----------------
 Symbolic Z-matrix:
 Charge =  0 Multiplicity = 1

                         Standard orientation:
 ---------------------------------------------------------------------
 Center     Atomic      Atomic             Coordinates (Angstroms)
 Number     Number       Type             X           Y           Z
 ---------------------------------------------------------------------
      1          6           0       -1.137190    0.380335    0.010335
      2          6           0       -0.696027   -0.885175   -0.005211
      3          8           0        0.690219   -0.967181    0.003865
      4          6           0        1.061751    0.335255   -0.003555
      5          6           0        0.039693    1.178220   -0.013275
      6          1           0        0.091382    2.257813   -0.001811
      7          1           0        2.232895    0.449551    0.037523
      8          1           0       -1.277352   -1.790679   -0.025039
      9          1           0       -2.178041    0.768954    0.028640
 ---------------------------------------------------------------------

 SCF Done:  E(RAM1) =   1.75834127164     A.U. after   14 cycles

 Excitation energies and oscillator strengths:

 Excited State   1:      Singlet-A      5.4534 eV  227.35 nm  f=0.3591  <S**2>=0.000
      13 -> 14         0.69454
 This state for optimization and/or second-order correction.
 Total Energy, E(CIS) =   1.95875021690
 Copying the excited state density for this state as the 1-particle RhoCI density.

 Excited State   2:      Singlet-A      6.3991 eV  193.75 nm  f=0.0001  <S**2>=0.000
      10 -> 15         0.11217
      13 -> 15         0.68509

 Excited State   3:      Singlet-A      7.0371 eV  176.19 nm  f=0.0001  <S**2>=0.000
      12 -> 14         0.70073

 Excited State   4:      Singlet-A      7.1775 eV  172.74 nm  f=0.0018  <S**2>=0.000
      10 -> 16        -0.10873
      13 -> 16         0.67145
      13 -> 18        -0.11179

 Excited State   5:      Singlet-A      8.0158 eV  154.68 nm  f=0.0071  <S**2>=0.000
      11 -> 14         0.69866

 Excited State   6:      Singlet-A      8.6791 eV  142.85 nm  f=0.0013  <S**2>=0.000
      13 -> 17        -0.44122
      13 -> 18         0.45860
      13 -> 19        -0.17631
      13 -> 22         0.20510

 Excited State   7:      Singlet-A      9.0039 eV  137.70 nm  f=0.0076  <S**2>=0.000
      13 -> 16         0.10893
      13 -> 17         0.50871
      13 -> 18         0.44429
      13 -> 22         0.11065

 Excited State   8:      Singlet-A      9.3220 eV  133.00 nm  f=0.0505  <S**2>=0.000
       9 -> 15         0.15962
      10 -> 14         0.45272
      12 -> 15         0.47170
      12 -> 18         0.10210

 Excited State   9:      Singlet-A      9.5089 eV  130.39 nm  f=0.1152  <S**2>=0.000
       9 -> 16        -0.10729
      10 -> 14         0.46277
      11 -> 17         0.12852
      12 -> 15        -0.36797
      12 -> 16         0.22464
      12 -> 17         0.11450
      12 -> 18        -0.13759
      13 -> 20        -0.10313

 Excited State  10:      Singlet-A      9.6099 eV  129.02 nm  f=0.0008  <S**2>=0.000
      13 -> 17        -0.12940
      13 -> 18         0.15980
      13 -> 19         0.66225

 Excited State  11:      Singlet-A     10.0057 eV  123.91 nm  f=0.0454  <S**2>=0.000
       8 -> 15        -0.12562
      10 -> 14         0.14675
      11 -> 15         0.36709
      11 -> 17        -0.23329
      12 -> 15        -0.26269
      12 -> 16        -0.29651
      12 -> 18         0.26598

 Excited State  12:      Singlet-A     10.4876 eV  118.22 nm  f=0.0500  <S**2>=0.000
       7 -> 15        -0.10387
      10 -> 15         0.49691
      11 -> 15         0.22362
      12 -> 16         0.26908
      13 -> 21         0.18112

 Excited State  13:      Singlet-A     10.5208 eV  117.85 nm  f=0.1006  <S**2>=0.000
       8 -> 15        -0.10258
      10 -> 14        -0.13079
      10 -> 15        -0.31682
      11 -> 15         0.21236
      11 -> 16         0.13110
      12 -> 16         0.39834
      13 -> 21        -0.25308

 Excited State  14:      Singlet-A     10.6026 eV  116.94 nm  f=0.0908  <S**2>=0.000
       9 -> 14        -0.10770
      10 -> 15        -0.22289
      11 -> 16         0.11660
      12 -> 16         0.13722
      12 -> 18         0.11090
      13 -> 21         0.57189

 Excited State  15:      Singlet-A     10.6328 eV  116.61 nm  f=0.1420  <S**2>=0.000
       8 -> 15         0.11411
       9 -> 15        -0.16146
      10 -> 15         0.16346
      11 -> 15        -0.27085
      11 -> 16         0.27711
      11 -> 17        -0.14998
      11 -> 19         0.17309
      12 -> 16         0.14511
      12 -> 17        -0.23944
      12 -> 18         0.21339
      13 -> 20         0.13348
      13 -> 21        -0.18616

 The electronic state is 1-A.
 Alpha  occ. eigenvalues --   -1.90068  -1.18067  -0.90944  -0.80671  -0.77570
 Alpha  occ. eigenvalues --   -0.69222  -0.67294  -0.54494  -0.53810  -0.45770
 Alpha  occ. eigenvalues --   -0.43316  -0.40227  -0.28689
 Alpha virt. eigenvalues --    0.12492   0.16451   0.20635   0.28423   0.29573
 Alpha virt. eigenvalues --    0.31685   0.33749   0.34123   0.37599   0.43156
 Alpha virt. eigenvalues --    0.45619

 Mulliken charges:
               1
     1  C   -0.148585
     2  C   -2.014704
     3  O    3.278641
     4  C   -1.983346
     5  C   -0.190448
     6  H    0.200803
     7  H    0.324808
     8  H    0.336102
     9  H    0.196730
 Sum of Mulliken charges =   0.00000

 Dipole moment (field-independent basis, Debye):
    X=              6.8785    Y=             -9.2485    Z=              0.1826  Tot=             11.5275
 N-N= 1.037588213158D+02 E-N=-1.693226448290D+02  KE=-1.547545106568D+01
 Orbital energies and kinetic energies (alpha):
                                 1                 2
   1         O                -1.900684         -1.361252
   2         O                -1.180670         -1.069903
   3         O                -0.909438         -0.894298
   4         O                -0.806709         -0.552726
   5         O                -0.775701         -0.680847
   6         O                -0.692223         -0.590348
   7         O                -0.672942         -0.544581

 Normal termination of Gaussian 09 at Tue Dec 15 17:09:44 2015.
