 Gaussian 09, Revision D.01,
 Gaussian 09:  ES64L-G09RevD.01 24-Apr-2013

 ------------------------------------------------------------
 #P AM1(Input,print) CIS(Singlets,NStates=15) pop(full) force
 ------------------------------------------------------------

 -----------------
 AM1-Reparam Input
 -----------------
 Symbolic Z-matrix:
 Charge =  0 Multiplicity = 1

                         Standard orientation:
 ---------------------------------------------------------------------
 Center     Atomic      Atomic             Coordinates (Angstroms)
 Number     Number       Type             X           Y           Z
 ---------------------------------------------------------------------
      1          6           0       -0.975310    0.715668   -0.009273
      2          6           0       -0.928919   -0.602198   -0.018064
      3          8           0        0.318882   -1.148367    0.018147
      4          6           0        1.166129   -0.012823   -0.013168
      5          6           0        0.405930    1.103118    0.015270
      6          1           0        0.802026    2.164230   -0.016746
      7          1           0        2.195371   -0.198491   -0.022500
      8          1           0       -1.727105   -1.367089   -0.003242
      9          1           0       -1.828327    1.365698    0.048715
 ---------------------------------------------------------------------

 SCF Done:  E(RAM1) =  -9.21238304318     A.U. after   14 cycles

 Excitation energies and oscillator strengths:

 Excited State   1:      Singlet-A      5.7788 eV  214.55 nm  f=0.0004  <S**2>=0.000
      10 -> 14        -0.18875
      11 -> 14        -0.14779
      12 -> 14         0.66300
 This state for optimization and/or second-order correction.
 Total Energy, E(CIS) =  -9.00001594991
 Copying the excited state density for this state as the 1-particle RhoCI density.

 Excited State   2:      Singlet-A      6.5275 eV  189.94 nm  f=0.0144  <S**2>=0.000
      10 -> 14        -0.16972
      11 -> 14         0.65789
      12 -> 14         0.10698
      13 -> 14        -0.14201

 Excited State   3:      Singlet-A      6.7113 eV  184.74 nm  f=0.3126  <S**2>=0.000
      11 -> 14         0.14548
      13 -> 14         0.67536

 Excited State   4:      Singlet-A      8.1687 eV  151.78 nm  f=0.0001  <S**2>=0.000
      10 -> 14         0.65363
      11 -> 14         0.13442
      12 -> 14         0.21814

 Excited State   5:      Singlet-A      9.6416 eV  128.59 nm  f=0.0475  <S**2>=0.000
       8 -> 14        -0.11642
       9 -> 14        -0.27576
      13 -> 15         0.63027

 Excited State   6:      Singlet-A      9.7840 eV  126.72 nm  f=0.0184  <S**2>=0.000
       9 -> 14         0.62039
      12 -> 15        -0.11327
      13 -> 15         0.26588
      13 -> 16        -0.10646

 Excited State   7:      Singlet-A     10.1324 eV  122.36 nm  f=0.0085  <S**2>=0.000
       9 -> 14         0.11526
      13 -> 16         0.68041

 Excited State   8:      Singlet-A     10.5980 eV  116.99 nm  f=0.0047  <S**2>=0.000
       9 -> 14         0.12281
      12 -> 15         0.68200

 Excited State   9:      Singlet-A     10.7063 eV  115.80 nm  f=0.0004  <S**2>=0.000
      13 -> 17         0.64853
      13 -> 18        -0.18963
      13 -> 19        -0.13142

 Excited State  10:      Singlet-A     11.1593 eV  111.10 nm  f=0.0407  <S**2>=0.000
       8 -> 14         0.39181
      12 -> 16         0.51738
      12 -> 20        -0.14695

 Excited State  11:      Singlet-A     11.3007 eV  109.71 nm  f=0.0013  <S**2>=0.000
       8 -> 14        -0.19652
      10 -> 16        -0.10060
      10 -> 17        -0.18886
      11 -> 16        -0.25910
      11 -> 21         0.13856
      12 -> 17         0.42840
      12 -> 18        -0.20994
      12 -> 19        -0.13094
      12 -> 20        -0.18705

 Excited State  12:      Singlet-A     11.4775 eV  108.02 nm  f=0.0010  <S**2>=0.000
       9 -> 15        -0.34671
      10 -> 15         0.25671
      11 -> 15         0.54894

 Excited State  13:      Singlet-A     11.6680 eV  106.26 nm  f=0.1491  <S**2>=0.000
       8 -> 14         0.42087
      10 -> 16         0.12961
      11 -> 16         0.17838
      11 -> 17        -0.19823
      11 -> 18         0.12542
      12 -> 16        -0.26902
      12 -> 17         0.29172
      12 -> 18        -0.12519
      13 -> 15         0.12545

 Excited State  14:      Singlet-A     11.8666 eV  104.48 nm  f=0.0852  <S**2>=0.000
       8 -> 14        -0.20890
      11 -> 16         0.51434
      11 -> 17         0.14988
      11 -> 19        -0.12149
      12 -> 16         0.20177
      12 -> 17         0.23186
      12 -> 18        -0.10102

 Excited State  15:      Singlet-A     12.0653 eV  102.76 nm  f=0.0013  <S**2>=0.000
       9 -> 15        -0.10870
      10 -> 15         0.57994
      11 -> 15        -0.34918
      13 -> 18         0.11010

 The electronic state is 1-A.
 Alpha  occ. eigenvalues --   -3.83297  -1.34207  -1.07571  -1.04518  -1.01703
 Alpha  occ. eigenvalues --   -0.87882  -0.85821  -0.68350  -0.63993  -0.57407
 Alpha  occ. eigenvalues --   -0.54471  -0.51194  -0.48447
 Alpha virt. eigenvalues --   -0.01820   0.10236   0.13863   0.15987   0.21252
 Alpha virt. eigenvalues --    0.22605   0.26799   0.29905   0.32265   0.40015
 Alpha virt. eigenvalues --    0.43991

 Mulliken charges:
               1
     1  C   -0.526917
     2  C   -1.891168
     3  O    3.084531
     4  C   -1.896113
     5  C   -0.479971
     6  H    0.415189
     7  H    0.436946
     8  H    0.450970
     9  H    0.406534
 Sum of Mulliken charges =   0.00000

 Dipole moment (field-independent basis, Debye):
    X=              2.6126    Y=            -11.1019    Z=              0.5058  Tot=             11.4164
 N-N= 1.042550421537D+02 E-N=-1.730275200982D+02  KE=-2.693010143174D+01
 Orbital energies and kinetic energies (alpha):
                                 1                 2
   1         O                -3.832975         -3.162067
   2         O                -1.342069         -1.359697
   3         O                -1.075713         -1.106462
   4         O                -1.045179         -1.036704
   5         O                -1.017028         -1.046232
   6         O                -0.878817         -0.916353
   7         O                -0.858209         -0.911551

 Normal termination of Gaussian 09 at Fri Dec 11 13:41:16 2015.
