 Gaussian 09, Revision D.01,
 Gaussian 09:  ES64L-G09RevD.01 24-Apr-2013

 ------------------------------------------------------------
 #P AM1(Input,print) CIS(Singlets,NStates=15) pop(full) force
 ------------------------------------------------------------

 -----------------
 AM1-Reparam Input
 -----------------
 Symbolic Z-matrix:
 Charge =  0 Multiplicity = 1

                         Standard orientation:
 ---------------------------------------------------------------------
 Center     Atomic      Atomic             Coordinates (Angstroms)
 Number     Number       Type             X           Y           Z
 ---------------------------------------------------------------------
      1          6           0       -0.684561    0.942479   -0.004022
      2          6           0       -1.128426   -0.256752    0.028697
      3          8           0       -0.062078   -1.183638   -0.026626
      4          6           0        1.134487   -0.371953    0.024121
      5          6           0        0.738963    0.954621   -0.025195
      6          1           0        1.430802    1.758637    0.020651
      7          1           0        2.086086   -0.898317    0.043721
      8          1           0       -2.030648   -0.814098   -0.001215
      9          1           0       -1.352394    1.812515    0.008243
 ---------------------------------------------------------------------

 SCF Done:  E(RAM1) =   2.16114245188     A.U. after   13 cycles

 Excitation energies and oscillator strengths:

 Excited State   1:      Singlet-A      5.3744 eV  230.69 nm  f=0.3353  <S**2>=0.000
      13 -> 14         0.69391
 This state for optimization and/or second-order correction.
 Total Energy, E(CIS) =   2.35864866927
 Copying the excited state density for this state as the 1-particle RhoCI density.

 Excited State   2:      Singlet-A      6.1124 eV  202.84 nm  f=0.0002  <S**2>=0.000
      10 -> 15         0.11871
      13 -> 15         0.68055

 Excited State   3:      Singlet-A      6.5952 eV  187.99 nm  f=0.0014  <S**2>=0.000
      10 -> 16        -0.12180
      13 -> 16         0.66318
      13 -> 17        -0.15109
      13 -> 20        -0.12835

 Excited State   4:      Singlet-A      7.2944 eV  169.97 nm  f=0.0009  <S**2>=0.000
      12 -> 14         0.69978

 Excited State   5:      Singlet-A      7.9561 eV  155.84 nm  f=0.0094  <S**2>=0.000
      11 -> 14        -0.41246
      13 -> 16         0.12383
      13 -> 17         0.47345
      13 -> 19        -0.19634
      13 -> 22         0.17734

 Excited State   6:      Singlet-A      8.0685 eV  153.66 nm  f=0.0026  <S**2>=0.000
      11 -> 14         0.48058
      13 -> 17         0.12287
      13 -> 19        -0.40187
      13 -> 20         0.14813
      13 -> 22         0.23993

 Excited State   7:      Singlet-A      8.1922 eV  151.34 nm  f=0.0045  <S**2>=0.000
      11 -> 14         0.30015
      13 -> 17         0.46429
      13 -> 19         0.33423
      13 -> 20        -0.16220
      13 -> 22        -0.17219

 Excited State   8:      Singlet-A      8.7053 eV  142.42 nm  f=0.0026  <S**2>=0.000
      10 -> 14         0.39309
      13 -> 18         0.56892

 Excited State   9:      Singlet-A      8.9592 eV  138.39 nm  f=0.0012  <S**2>=0.000
      13 -> 19         0.31416
      13 -> 20         0.60250

 Excited State  10:      Singlet-A      9.2596 eV  133.90 nm  f=0.0597  <S**2>=0.000
       8 -> 15         0.10700
      10 -> 14         0.41476
      12 -> 15        -0.38797
      13 -> 18        -0.35393

 Excited State  11:      Singlet-A      9.5483 eV  129.85 nm  f=0.0838  <S**2>=0.000
      10 -> 14         0.23208
      12 -> 15         0.30085
      13 -> 18        -0.12356
      13 -> 19         0.22530
      13 -> 20        -0.16764
      13 -> 21        -0.13541
      13 -> 22         0.45148

 Excited State  12:      Singlet-A      9.5662 eV  129.61 nm  f=0.1290  <S**2>=0.000
      10 -> 14         0.28292
      12 -> 15         0.40250
      13 -> 18        -0.13725
      13 -> 19        -0.17670
      13 -> 20         0.11312
      13 -> 22        -0.39118

 Excited State  13:      Singlet-A      9.6704 eV  128.21 nm  f=0.0725  <S**2>=0.000
      10 -> 14         0.10499
      13 -> 21         0.64473
      13 -> 23        -0.13566

 Excited State  14:      Singlet-A      9.8482 eV  125.90 nm  f=0.0723  <S**2>=0.000
       8 -> 15         0.10496
      11 -> 15         0.29299
      11 -> 17        -0.25735
      11 -> 19        -0.13107
      12 -> 15         0.16541
      12 -> 16         0.27478
      12 -> 17        -0.27583
      12 -> 19         0.25028

 Excited State  15:      Singlet-A     10.2890 eV  120.50 nm  f=0.0006  <S**2>=0.000
       7 -> 15        -0.14259
      10 -> 15         0.62824
      10 -> 16         0.17105
      13 -> 15        -0.13654

 The electronic state is 1-A.
 Alpha  occ. eigenvalues --   -1.91829  -1.19258  -0.93430  -0.80342  -0.77787
 Alpha  occ. eigenvalues --   -0.68848  -0.64715  -0.54368  -0.53835  -0.43677
 Alpha  occ. eigenvalues --   -0.42925  -0.40500  -0.27368
 Alpha virt. eigenvalues --    0.13003   0.17641   0.20072   0.26396   0.27918
 Alpha virt. eigenvalues --    0.28913   0.30961   0.32252   0.33570   0.37015
 Alpha virt. eigenvalues --    0.39970

 Mulliken charges:
               1
     1  C   -0.157914
     2  C   -1.807654
     3  O    3.207096
     4  C   -1.874223
     5  C   -0.165854
     6  H    0.157458
     7  H    0.254197
     8  H    0.229707
     9  H    0.157187
 Sum of Mulliken charges =   0.00000

 Dipole moment (field-independent basis, Debye):
    X=             -1.0440    Y=            -11.9554    Z=             -0.6868  Tot=             12.0205
 N-N= 1.035222500782D+02 E-N=-1.682587510151D+02  KE=-1.528584100770D+01
 Orbital energies and kinetic energies (alpha):
                                 1                 2
   1         O                -1.918293         -1.308084
   2         O                -1.192576         -1.056381
   3         O                -0.934303         -0.893751
   4         O                -0.803419         -0.611375
   5         O                -0.777873         -0.642942
   6         O                -0.688477         -0.594385
   7         O                -0.647153         -0.528820

 Normal termination of Gaussian 09 at Tue Dec 15 17:08:36 2015.
