 Gaussian 09, Revision D.01,
 Gaussian 09:  ES64L-G09RevD.01 24-Apr-2013

 ------------------------------------------------------------
 #P AM1(Input,print) CIS(Singlets,NStates=15) pop(full) force
 ------------------------------------------------------------

 -----------------
 AM1-Reparam Input
 -----------------
 Symbolic Z-matrix:
 Charge =  0 Multiplicity = 1

                         Standard orientation:
 ---------------------------------------------------------------------
 Center     Atomic      Atomic             Coordinates (Angstroms)
 Number     Number       Type             X           Y           Z
 ---------------------------------------------------------------------
      1          6           0       -0.197900    1.156390    0.043568
      2          6           0       -1.108520    0.162563   -0.029677
      3          8           0       -0.565897   -1.014703   -0.009038
      4          6           0        0.806026   -0.773399    0.040957
      5          6           0        1.094403    0.493035   -0.035791
      6          1           0        2.056486    1.014981   -0.046533
      7          1           0        1.469283   -1.654014   -0.007324
      8          1           0       -2.224715    0.233390    0.020765
      9          1           0       -0.337938    2.291729   -0.008945
 ---------------------------------------------------------------------

 SCF Done:  E(RAM1) =   1.10119704565     A.U. after   14 cycles

 Excitation energies and oscillator strengths:

 Excited State   1:      Singlet-A      5.3928 eV  229.90 nm  f=0.2193  <S**2>=0.000
      12 -> 16        -0.11844
      13 -> 14         0.68508
 This state for optimization and/or second-order correction.
 Total Energy, E(CIS) =   1.29938057976
 Copying the excited state density for this state as the 1-particle RhoCI density.

 Excited State   2:      Singlet-A      6.1809 eV  200.59 nm  f=0.0032  <S**2>=0.000
      13 -> 15         0.66918
      13 -> 19        -0.13912

 Excited State   3:      Singlet-A      6.6834 eV  185.51 nm  f=0.0012  <S**2>=0.000
      13 -> 17         0.66317
      13 -> 18        -0.14173
      13 -> 21         0.13015

 Excited State   4:      Singlet-A      6.9244 eV  179.06 nm  f=0.0131  <S**2>=0.000
      12 -> 14         0.42263
      13 -> 16         0.53880

 Excited State   5:      Singlet-A      7.1031 eV  174.55 nm  f=0.0089  <S**2>=0.000
       9 -> 14         0.12302
      11 -> 14         0.63274
      12 -> 14        -0.15053
      13 -> 16         0.23116

 Excited State   6:      Singlet-A      7.9028 eV  156.89 nm  f=0.0059  <S**2>=0.000
      13 -> 17         0.12674
      13 -> 18         0.62754
      13 -> 23        -0.15251

 Excited State   7:      Singlet-A      7.9692 eV  155.58 nm  f=0.0443  <S**2>=0.000
      10 -> 14         0.58719
      11 -> 14        -0.13735
      11 -> 16         0.10517
      12 -> 14        -0.23424
      13 -> 16         0.15950
      13 -> 18        -0.14067

 Excited State   8:      Singlet-A      8.1704 eV  151.75 nm  f=0.2001  <S**2>=0.000
      10 -> 14         0.32178
      11 -> 14         0.20703
      12 -> 14         0.45350
      12 -> 15         0.11309
      13 -> 16        -0.29315

 Excited State   9:      Singlet-A      8.5673 eV  144.72 nm  f=0.0015  <S**2>=0.000
      12 -> 15         0.13171
      13 -> 20         0.63468
      13 -> 21         0.14329
      13 -> 22         0.12207

 Excited State  10:      Singlet-A      8.6174 eV  143.88 nm  f=0.0076  <S**2>=0.000
       7 -> 15         0.10882
      11 -> 15         0.13419
      12 -> 15         0.58580
      13 -> 19        -0.28033

 Excited State  11:      Singlet-A      8.8060 eV  140.80 nm  f=0.0249  <S**2>=0.000
       9 -> 15         0.11076
       9 -> 16        -0.22847
      10 -> 14        -0.13412
      11 -> 16         0.36522
      12 -> 15         0.11998
      12 -> 16        -0.34461
      12 -> 17         0.19212
      13 -> 19         0.24237

 Excited State  12:      Singlet-A      8.8720 eV  139.75 nm  f=0.0188  <S**2>=0.000
      11 -> 16        -0.16752
      11 -> 17         0.13844
      12 -> 15         0.14091
      12 -> 16         0.24462
      12 -> 17         0.27335
      13 -> 15         0.11971
      13 -> 19         0.47229

 Excited State  13:      Singlet-A      8.9277 eV  138.88 nm  f=0.0272  <S**2>=0.000
       8 -> 15        -0.10626
       9 -> 15        -0.13753
       9 -> 16        -0.16045
       9 -> 17         0.11127
      11 -> 15        -0.21014
      11 -> 16         0.37223
      11 -> 17         0.14599
      11 -> 18        -0.20209
      12 -> 16         0.27449
      12 -> 17        -0.16648

 Excited State  14:      Singlet-A      9.1843 eV  135.00 nm  f=0.0153  <S**2>=0.000
       9 -> 14         0.17815
       9 -> 15         0.11559
      11 -> 15        -0.15758
      11 -> 16        -0.12684
      12 -> 15         0.17674
      12 -> 17        -0.34847
      13 -> 19         0.12282
      13 -> 20        -0.14419
      13 -> 21         0.41216

 Excited State  15:      Singlet-A      9.2045 eV  134.70 nm  f=0.0354  <S**2>=0.000
       9 -> 15        -0.23299
      10 -> 15        -0.13577
      11 -> 15         0.50789
      11 -> 16         0.10785
      11 -> 19        -0.11622
      12 -> 17        -0.18722
      13 -> 21         0.19460

 The electronic state is 1-A.
 Alpha  occ. eigenvalues --   -1.83957  -1.19797  -0.98447  -0.87267  -0.80043
 Alpha  occ. eigenvalues --   -0.73205  -0.72415  -0.59530  -0.54648  -0.51804
 Alpha  occ. eigenvalues --   -0.48786  -0.47442  -0.37037
 Alpha virt. eigenvalues --    0.03983   0.09318   0.10833   0.11588   0.18031
 Alpha virt. eigenvalues --    0.19017   0.20835   0.22136   0.27098   0.28088
 Alpha virt. eigenvalues --    0.28313

 Mulliken charges:
               1
     1  C   -0.213166
     2  C   -1.244091
     3  O    2.123106
     4  C   -1.251367
     5  C   -0.069238
     6  H    0.104995
     7  H    0.204524
     8  H    0.224293
     9  H    0.120944
 Sum of Mulliken charges =   0.00000

 Dipole moment (field-independent basis, Debye):
    X=             -3.6535    Y=             -6.2652    Z=             -0.2108  Tot=              7.2557
 N-N= 1.045697237037D+02 E-N=-1.716688824024D+02  KE=-1.498059816490D+01
 Orbital energies and kinetic energies (alpha):
                                 1                 2
   1         O                -1.839568         -1.262482
   2         O                -1.197972         -0.974559
   3         O                -0.984467         -0.814641
   4         O                -0.872668         -0.616744
   5         O                -0.800431         -0.676484
   6         O                -0.732051         -0.575281
   7         O                -0.724148         -0.520497

 Normal termination of Gaussian 09 at Tue Dec 15 17:05:41 2015.
