 Gaussian 09, Revision D.01,
 Gaussian 09:  ES64L-G09RevD.01 24-Apr-2013

 ------------------------------------------------------------
 #P AM1(Input,print) CIS(Singlets,NStates=15) pop(full) force
 ------------------------------------------------------------

 -----------------
 AM1-Reparam Input
 -----------------
 Symbolic Z-matrix:
 Charge =  0 Multiplicity = 1

                         Standard orientation:
 ---------------------------------------------------------------------
 Center     Atomic      Atomic             Coordinates (Angstroms)
 Number     Number       Type             X           Y           Z
 ---------------------------------------------------------------------
      1          6           0       -0.244090    1.138976    0.015891
      2          6           0       -1.154905    0.138667   -0.008544
      3          8           0       -0.490985   -1.047759    0.008506
      4          6           0        0.834666   -0.734532   -0.013608
      5          6           0        1.090518    0.567164   -0.001785
      6          1           0        1.981054    1.088215   -0.020108
      7          1           0        1.450457   -1.651998    0.033422
      8          1           0       -2.169599    0.093377   -0.031228
      9          1           0       -0.491172    2.190821   -0.001858
 ---------------------------------------------------------------------

 SCF Done:  E(RAM1) =   1.76301103666     A.U. after   14 cycles

 Excitation energies and oscillator strengths:

 Excited State   1:      Singlet-A      5.3242 eV  232.87 nm  f=0.3675  <S**2>=0.000
      13 -> 14         0.69533
 This state for optimization and/or second-order correction.
 Total Energy, E(CIS) =   1.95867042597
 Copying the excited state density for this state as the 1-particle RhoCI density.

 Excited State   2:      Singlet-A      6.7352 eV  184.08 nm  f=0.0005  <S**2>=0.000
      10 -> 15         0.10727
      13 -> 15         0.67238
      13 -> 17        -0.11505

 Excited State   3:      Singlet-A      6.8389 eV  181.29 nm  f=0.0002  <S**2>=0.000
      12 -> 14         0.69548

 Excited State   4:      Singlet-A      7.3032 eV  169.77 nm  f=0.0030  <S**2>=0.000
      13 -> 16         0.66821
      13 -> 18         0.16869

 Excited State   5:      Singlet-A      8.1068 eV  152.94 nm  f=0.0072  <S**2>=0.000
      11 -> 14         0.69905

 Excited State   6:      Singlet-A      8.5716 eV  144.64 nm  f=0.0033  <S**2>=0.000
      13 -> 15         0.11009
      13 -> 17         0.51506
      13 -> 18         0.40055
      13 -> 22        -0.21193

 Excited State   7:      Singlet-A      9.2720 eV  133.72 nm  f=0.0096  <S**2>=0.000
      10 -> 16         0.10514
      13 -> 16        -0.14074
      13 -> 17        -0.43720
      13 -> 18         0.49226
      13 -> 22        -0.11418

 Excited State   8:      Singlet-A      9.3750 eV  132.25 nm  f=0.0851  <S**2>=0.000
      10 -> 14         0.60936
      12 -> 15         0.26816
      13 -> 21         0.10584

 Excited State   9:      Singlet-A      9.6779 eV  128.11 nm  f=0.0736  <S**2>=0.000
      10 -> 14        -0.26650
      11 -> 16        -0.10082
      12 -> 15         0.48906
      12 -> 16        -0.18027
      12 -> 17        -0.20272
      12 -> 18        -0.18101

 Excited State  10:      Singlet-A      9.7087 eV  127.70 nm  f=0.0030  <S**2>=0.000
      13 -> 19         0.68470

 Excited State  11:      Singlet-A     10.3563 eV  119.72 nm  f=0.0842  <S**2>=0.000
       8 -> 15        -0.11246
      10 -> 14        -0.14621
      11 -> 15         0.23055
      11 -> 16         0.10364
      11 -> 17        -0.15074
      12 -> 15         0.31278
      12 -> 16         0.33744
      12 -> 17         0.20618
      12 -> 18         0.27451
      12 -> 22        -0.10172

 Excited State  12:      Singlet-A     10.4174 eV  119.02 nm  f=0.1682  <S**2>=0.000
       9 -> 16        -0.10114
      11 -> 16        -0.26490
      11 -> 18        -0.12891
      12 -> 16         0.51577
      12 -> 17        -0.28124
      12 -> 19        -0.13380

 Excited State  13:      Singlet-A     10.6114 eV  116.84 nm  f=0.0538  <S**2>=0.000
      13 -> 18        -0.15816
      13 -> 20         0.54725
      13 -> 21         0.13882
      13 -> 22        -0.35738

 Excited State  14:      Singlet-A     10.7418 eV  115.42 nm  f=0.0433  <S**2>=0.000
      13 -> 18         0.16375
      13 -> 20         0.38101
      13 -> 22         0.54582

 Excited State  15:      Singlet-A     10.9446 eV  113.28 nm  f=0.0525  <S**2>=0.000
       9 -> 15        -0.20077
      10 -> 14         0.12244
      11 -> 15         0.43441
      11 -> 19         0.14950
      12 -> 17        -0.11588
      13 -> 20         0.11594
      13 -> 21        -0.40691

 The electronic state is 1-A.
 Alpha  occ. eigenvalues --   -1.91514  -1.17877  -0.93249  -0.82694  -0.78758
 Alpha  occ. eigenvalues --   -0.70405  -0.68019  -0.56378  -0.55310  -0.47205
 Alpha  occ. eigenvalues --   -0.45297  -0.41077  -0.29584
 Alpha virt. eigenvalues --    0.10776   0.17524   0.20461   0.27875   0.29126
 Alpha virt. eigenvalues --    0.30942   0.33320   0.33695   0.35899   0.42570
 Alpha virt. eigenvalues --    0.45887

 Mulliken charges:
               1
     1  C   -0.192195
     2  C   -2.008869
     3  O    3.288673
     4  C   -1.987933
     5  C   -0.158277
     6  H    0.203902
     7  H    0.321404
     8  H    0.324834
     9  H    0.208461
 Sum of Mulliken charges =   0.00000

 Dipole moment (field-independent basis, Debye):
    X=             -4.3104    Y=            -10.2227    Z=              0.2830  Tot=             11.0979
 N-N= 1.041451515368D+02 E-N=-1.696809865500D+02  KE=-1.553595049450D+01
 Orbital energies and kinetic energies (alpha):
                                 1                 2
   1         O                -1.915141         -1.374526
   2         O                -1.178775         -1.057085
   3         O                -0.932493         -0.891171
   4         O                -0.826937         -0.581959
   5         O                -0.787582         -0.695011
   6         O                -0.704047         -0.588185
   7         O                -0.680188         -0.539438

 Normal termination of Gaussian 09 at Tue Dec 15 17:09:42 2015.
