 Gaussian 09, Revision D.01,
 Gaussian 09:  ES64L-G09RevD.01 24-Apr-2013

 ------------------------------------------------------------
 #P AM1(Input,print) CIS(Singlets,NStates=15) pop(full) force
 ------------------------------------------------------------

 -----------------
 AM1-Reparam Input
 -----------------
 Symbolic Z-matrix:
 Charge =  0 Multiplicity = 1

                         Standard orientation:
 ---------------------------------------------------------------------
 Center     Atomic      Atomic             Coordinates (Angstroms)
 Number     Number       Type             X           Y           Z
 ---------------------------------------------------------------------
      1          6           0       -0.635852    0.987878    0.013521
      2          6           0       -1.130008   -0.288040    0.007647
      3          8           0       -0.073227   -1.147976    0.000258
      4          6           0        1.100177   -0.403273   -0.007055
      5          6           0        0.726460    0.910716   -0.029787
      6          1           0        1.488692    1.726728    0.064265
      7          1           0        2.010116   -0.945801    0.059112
      8          1           0       -2.049912   -0.717208   -0.032770
      9          1           0       -1.227742    1.876404    0.001369
 ---------------------------------------------------------------------

 SCF Done:  E(RAM1) =   2.11430015191     A.U. after   13 cycles

 Excitation energies and oscillator strengths:

 Excited State   1:      Singlet-A      5.7789 eV  214.55 nm  f=0.3165  <S**2>=0.000
      13 -> 14         0.68974
 This state for optimization and/or second-order correction.
 Total Energy, E(CIS) =   2.32666916676
 Copying the excited state density for this state as the 1-particle RhoCI density.

 Excited State   2:      Singlet-A      6.8957 eV  179.80 nm  f=0.0066  <S**2>=0.000
      10 -> 16        -0.11251
      13 -> 15         0.66641
      13 -> 17        -0.16880

 Excited State   3:      Singlet-A      7.1875 eV  172.50 nm  f=0.0000  <S**2>=0.000
      10 -> 15        -0.14419
      13 -> 16         0.66154
      13 -> 19        -0.15608

 Excited State   4:      Singlet-A      7.5478 eV  164.27 nm  f=0.0013  <S**2>=0.000
      12 -> 14         0.68952

 Excited State   5:      Singlet-A      7.9277 eV  156.39 nm  f=0.0064  <S**2>=0.000
      10 -> 14        -0.13753
      11 -> 14         0.67681
      12 -> 14        -0.10227

 Excited State   6:      Singlet-A      8.5163 eV  145.58 nm  f=0.0004  <S**2>=0.000
      13 -> 17        -0.22645
      13 -> 18         0.54101
      13 -> 22         0.36123

 Excited State   7:      Singlet-A      8.6587 eV  143.19 nm  f=0.0088  <S**2>=0.000
      10 -> 16        -0.15158
      13 -> 15         0.12708
      13 -> 17         0.62545
      13 -> 18         0.20388

 Excited State   8:      Singlet-A      9.1337 eV  135.74 nm  f=0.0747  <S**2>=0.000
      10 -> 14         0.66011
      11 -> 14         0.13346
      13 -> 21        -0.14237

 Excited State   9:      Singlet-A      9.4855 eV  130.71 nm  f=0.0016  <S**2>=0.000
      10 -> 15        -0.15104
      13 -> 18        -0.24033
      13 -> 19         0.57934
      13 -> 22         0.22642

 Excited State  10:      Singlet-A      9.8092 eV  126.40 nm  f=0.1107  <S**2>=0.000
       8 -> 15        -0.10447
       9 -> 16         0.11707
      11 -> 15         0.34096
      11 -> 16         0.12695
      11 -> 17        -0.27913
      11 -> 18        -0.12238
      12 -> 15        -0.18949
      12 -> 16         0.13828
      12 -> 17         0.18765
      12 -> 18        -0.26465
      12 -> 22        -0.10192
      13 -> 14         0.11379

 Excited State  11:      Singlet-A      9.8915 eV  125.34 nm  f=0.0052  <S**2>=0.000
      13 -> 18        -0.30560
      13 -> 19        -0.28363
      13 -> 20        -0.16977
      13 -> 22         0.51183

 Excited State  12:      Singlet-A     10.1567 eV  122.07 nm  f=0.1001  <S**2>=0.000
      10 -> 16        -0.16513
      13 -> 19        -0.15024
      13 -> 20         0.63259
      13 -> 22         0.13882

 Excited State  13:      Singlet-A     10.2427 eV  121.05 nm  f=0.0665  <S**2>=0.000
      11 -> 16        -0.17360
      12 -> 15         0.42882
      12 -> 16         0.45703

 Excited State  14:      Singlet-A     10.3077 eV  120.28 nm  f=0.1335  <S**2>=0.000
       8 -> 15         0.10278
      11 -> 15         0.39822
      11 -> 16        -0.20051
      12 -> 15         0.29481
      12 -> 16        -0.36064
      12 -> 19         0.10031

 Excited State  15:      Singlet-A     10.4658 eV  118.47 nm  f=0.0262  <S**2>=0.000
      10 -> 15         0.58886
      12 -> 16         0.13780
      13 -> 16         0.16423
      13 -> 21        -0.21538

 The electronic state is 1-A.
 Alpha  occ. eigenvalues --   -1.93854  -1.20601  -0.93895  -0.81025  -0.79453
 Alpha  occ. eigenvalues --   -0.69484  -0.66382  -0.56257  -0.54706  -0.44601
 Alpha  occ. eigenvalues --   -0.43575  -0.42445  -0.30508
 Alpha virt. eigenvalues --    0.12184   0.18724   0.19380   0.24973   0.27123
 Alpha virt. eigenvalues --    0.29764   0.30712   0.31115   0.32394   0.39235
 Alpha virt. eigenvalues --    0.43747

 Mulliken charges:
               1
     1  C   -0.151257
     2  C   -1.898456
     3  O    3.225154
     4  C   -1.897316
     5  C   -0.127178
     6  H    0.163655
     7  H    0.262319
     8  H    0.259809
     9  H    0.163270
 Sum of Mulliken charges =   0.00000

 Dipole moment (field-independent basis, Debye):
    X=             -0.6027    Y=            -10.5077    Z=              0.0970  Tot=             10.5254
 N-N= 1.043161445092D+02 E-N=-1.695007191722D+02  KE=-1.536723416915D+01
 Orbital energies and kinetic energies (alpha):
                                 1                 2
   1         O                -1.938538         -1.358428
   2         O                -1.206008         -1.055799
   3         O                -0.938949         -0.884069
   4         O                -0.810254         -0.602441
   5         O                -0.794534         -0.663621
   6         O                -0.694845         -0.600759
   7         O                -0.663821         -0.533158

 Normal termination of Gaussian 09 at Tue Dec 15 17:09:21 2015.
