 Gaussian 09, Revision D.01,
 Gaussian 09:  ES64L-G09RevD.01 24-Apr-2013

 ------------------------------------------------------------
 #P AM1(Input,print) CIS(Singlets,NStates=15) pop(full) force
 ------------------------------------------------------------

 -----------------
 AM1-Reparam Input
 -----------------
 Symbolic Z-matrix:
 Charge =  0 Multiplicity = 1

                         Standard orientation:
 ---------------------------------------------------------------------
 Center     Atomic      Atomic             Coordinates (Angstroms)
 Number     Number       Type             X           Y           Z
 ---------------------------------------------------------------------
      1          6           0       -0.409688    1.107866    0.020502
      2          6           0       -1.136864   -0.016702   -0.004374
      3          8           0       -0.361389   -1.094562    0.000825
      4          6           0        0.901189   -0.638383    0.008814
      5          6           0        1.003535    0.698559   -0.022100
      6          1           0        1.949464    1.271398    0.049859
      7          1           0        1.671334   -1.509186   -0.021189
      8          1           0       -2.193206   -0.109073   -0.007104
      9          1           0       -0.685512    2.195320   -0.045213
 ---------------------------------------------------------------------

 SCF Done:  E(RAM1) =   1.74184342897     A.U. after   14 cycles

 Excitation energies and oscillator strengths:

 Excited State   1:      Singlet-A      5.2887 eV  234.43 nm  f=0.3755  <S**2>=0.000
      13 -> 14         0.69634
 This state for optimization and/or second-order correction.
 Total Energy, E(CIS) =   1.93620105745
 Copying the excited state density for this state as the 1-particle RhoCI density.

 Excited State   2:      Singlet-A      6.5144 eV  190.32 nm  f=0.0004  <S**2>=0.000
      10 -> 15        -0.10474
      13 -> 15         0.67842
      13 -> 17        -0.12362

 Excited State   3:      Singlet-A      6.7555 eV  183.53 nm  f=0.0004  <S**2>=0.000
      12 -> 14         0.70233

 Excited State   4:      Singlet-A      7.1040 eV  174.53 nm  f=0.0032  <S**2>=0.000
      13 -> 16         0.67385
      13 -> 18        -0.12041
      13 -> 19        -0.11401

 Excited State   5:      Singlet-A      8.0388 eV  154.23 nm  f=0.0073  <S**2>=0.000
      11 -> 14         0.69264
      13 -> 17         0.11346

 Excited State   6:      Singlet-A      8.3853 eV  147.86 nm  f=0.0007  <S**2>=0.000
      11 -> 14        -0.10155
      13 -> 15         0.11335
      13 -> 17         0.55300
      13 -> 18        -0.31373
      13 -> 19        -0.13912
      13 -> 21        -0.19763

 Excited State   7:      Singlet-A      9.0211 eV  137.44 nm  f=0.0059  <S**2>=0.000
      13 -> 16         0.11275
      13 -> 17         0.36800
      13 -> 18         0.55976
      13 -> 21         0.14215

 Excited State   8:      Singlet-A      9.2944 eV  133.40 nm  f=0.0779  <S**2>=0.000
       8 -> 15         0.13312
      10 -> 14         0.59224
      12 -> 15        -0.31113

 Excited State   9:      Singlet-A      9.4478 eV  131.23 nm  f=0.0015  <S**2>=0.000
      13 -> 17         0.11782
      13 -> 18        -0.14503
      13 -> 19         0.66414

 Excited State  10:      Singlet-A      9.5069 eV  130.41 nm  f=0.0953  <S**2>=0.000
       8 -> 15        -0.11194
      10 -> 14         0.29759
      11 -> 17         0.11267
      12 -> 15         0.47231
      12 -> 16        -0.21157
      12 -> 17        -0.20317
      12 -> 18         0.15550

 Excited State  11:      Singlet-A     10.1713 eV  121.90 nm  f=0.0951  <S**2>=0.000
      10 -> 14         0.17247
      11 -> 15         0.28136
      11 -> 17        -0.14908
      12 -> 15         0.29146
      12 -> 16         0.40036
      12 -> 17         0.14352
      12 -> 18        -0.23275

 Excited State  12:      Singlet-A     10.3376 eV  119.93 nm  f=0.1567  <S**2>=0.000
      11 -> 15        -0.14568
      11 -> 16        -0.20025
      11 -> 17         0.11585
      11 -> 18         0.11972
      12 -> 16         0.46076
      12 -> 17        -0.22321
      12 -> 18         0.11445
      13 -> 20        -0.26912

 Excited State  13:      Singlet-A     10.4157 eV  119.04 nm  f=0.0871  <S**2>=0.000
      11 -> 15        -0.12562
      12 -> 16         0.13998
      12 -> 17        -0.10908
      13 -> 18         0.11579
      13 -> 20         0.49489
      13 -> 21        -0.35076

 Excited State  14:      Singlet-A     10.4836 eV  118.27 nm  f=0.0397  <S**2>=0.000
      13 -> 18        -0.17944
      13 -> 20         0.37460
      13 -> 21         0.54046

 Excited State  15:      Singlet-A     10.6284 eV  116.65 nm  f=0.0400  <S**2>=0.000
       8 -> 15         0.18033
       9 -> 15        -0.13240
      10 -> 14        -0.10241
      10 -> 15        -0.21082
      11 -> 15         0.46461
      11 -> 19         0.17728
      12 -> 17        -0.28539
      12 -> 18         0.10169

 The electronic state is 1-A.
 Alpha  occ. eigenvalues --   -1.91806  -1.16778  -0.92075  -0.82039  -0.77154
 Alpha  occ. eigenvalues --   -0.69365  -0.68232  -0.55459  -0.54483  -0.46971
 Alpha  occ. eigenvalues --   -0.44860  -0.40733  -0.29269
 Alpha virt. eigenvalues --    0.10717   0.16542   0.19574   0.27156   0.28454
 Alpha virt. eigenvalues --    0.30313   0.32733   0.35624   0.35817   0.44606
 Alpha virt. eigenvalues --    0.48146

 Mulliken charges:
               1
     1  C   -0.184101
     2  C   -2.023822
     3  O    3.282796
     4  C   -1.996549
     5  C   -0.164220
     6  H    0.203760
     7  H    0.328521
     8  H    0.347241
     9  H    0.206375
 Sum of Mulliken charges =   0.00000

 Dipole moment (field-independent basis, Debye):
    X=             -3.0554    Y=            -10.2641    Z=             -0.0854  Tot=             10.7095
 N-N= 1.039452715919D+02 E-N=-1.695526363142D+02  KE=-1.546975785942D+01
 Orbital energies and kinetic energies (alpha):
                                 1                 2
   1         O                -1.918062         -1.393942
   2         O                -1.167778         -1.045550
   3         O                -0.920748         -0.881348
   4         O                -0.820386         -0.564947
   5         O                -0.771540         -0.693405
   6         O                -0.693648         -0.569937
   7         O                -0.682316         -0.540166

 Normal termination of Gaussian 09 at Tue Dec 15 17:09:46 2015.
