 Gaussian 09, Revision D.01,
 Gaussian 09:  ES64L-G09RevD.01 24-Apr-2013

 ------------------------------------------------------------
 #P AM1(Input,print) CIS(Singlets,NStates=15) pop(full) force
 ------------------------------------------------------------

 -----------------
 AM1-Reparam Input
 -----------------
 Symbolic Z-matrix:
 Charge =  0 Multiplicity = 1

                         Standard orientation:
 ---------------------------------------------------------------------
 Center     Atomic      Atomic             Coordinates (Angstroms)
 Number     Number       Type             X           Y           Z
 ---------------------------------------------------------------------
      1          6           0       -0.771177    0.857452   -0.007565
      2          6           0       -1.028867   -0.432706    0.000097
      3          8           0        0.101544   -1.122845   -0.009403
      4          6           0        1.127116   -0.225692    0.001740
      5          6           0        0.584698    0.984843    0.015259
      6          1           0        1.141704    1.894237   -0.041266
      7          1           0        2.137814   -0.626432    0.017541
      8          1           0       -1.978290   -1.078726    0.041361
      9          1           0       -1.584198    1.690297    0.000396
 ---------------------------------------------------------------------

 SCF Done:  E(RAM1) =   2.57553882654     A.U. after   14 cycles

 Excitation energies and oscillator strengths:

 Excited State   1:      Singlet-A      5.5502 eV  223.39 nm  f=0.3135  <S**2>=0.000
      11 -> 17        -0.10569
      13 -> 14         0.69075
 This state for optimization and/or second-order correction.
 Total Energy, E(CIS) =   2.77950630217
 Copying the excited state density for this state as the 1-particle RhoCI density.

 Excited State   2:      Singlet-A      6.1438 eV  201.81 nm  f=0.0020  <S**2>=0.000
      10 -> 15         0.12819
      13 -> 15         0.67099
      13 -> 17        -0.12227

 Excited State   3:      Singlet-A      6.6727 eV  185.81 nm  f=0.0020  <S**2>=0.000
      10 -> 16        -0.12291
      13 -> 16         0.65841
      13 -> 17        -0.15372
      13 -> 19         0.12671

 Excited State   4:      Singlet-A      7.0702 eV  175.36 nm  f=0.0002  <S**2>=0.000
       9 -> 14        -0.12433
      12 -> 14         0.69152

 Excited State   5:      Singlet-A      7.7095 eV  160.82 nm  f=0.0073  <S**2>=0.000
      11 -> 14         0.67350
      13 -> 17         0.17394

 Excited State   6:      Singlet-A      8.0347 eV  154.31 nm  f=0.0014  <S**2>=0.000
      11 -> 14        -0.13174
      13 -> 16         0.11186
      13 -> 17         0.51393
      13 -> 18        -0.37476
      13 -> 21        -0.20253

 Excited State   7:      Singlet-A      8.0534 eV  153.95 nm  f=0.0053  <S**2>=0.000
      10 -> 15         0.10041
      11 -> 14        -0.14001
      13 -> 15         0.10831
      13 -> 17         0.38532
      13 -> 18         0.49167
      13 -> 21         0.21390

 Excited State   8:      Singlet-A      8.9541 eV  138.47 nm  f=0.0297  <S**2>=0.000
       8 -> 15        -0.12040
      10 -> 14         0.50939
      11 -> 15         0.11980
      12 -> 15         0.42350

 Excited State   9:      Singlet-A      8.9635 eV  138.32 nm  f=0.0008  <S**2>=0.000
      10 -> 16         0.11406
      13 -> 16        -0.11112
      13 -> 18        -0.12620
      13 -> 19         0.65456

 Excited State  10:      Singlet-A      9.1240 eV  135.89 nm  f=0.0702  <S**2>=0.000
      10 -> 14        -0.39859
      11 -> 17         0.16594
      12 -> 15         0.42267
      12 -> 16        -0.19239
      12 -> 18        -0.19923

 Excited State  11:      Singlet-A      9.3085 eV  133.19 nm  f=0.1037  <S**2>=0.000
       9 -> 15         0.20073
      10 -> 14        -0.17005
      11 -> 15         0.40914
      11 -> 16         0.17339
      11 -> 17        -0.29309
      12 -> 15         0.18134
      12 -> 17        -0.13306
      12 -> 18         0.21185

 Excited State  12:      Singlet-A      9.5893 eV  129.29 nm  f=0.0253  <S**2>=0.000
      12 -> 16        -0.11870
      13 -> 18        -0.28817
      13 -> 19        -0.14222
      13 -> 20        -0.33621
      13 -> 21         0.47072

 Excited State  13:      Singlet-A      9.6336 eV  128.70 nm  f=0.1167  <S**2>=0.000
       9 -> 16         0.12067
      11 -> 16        -0.31455
      11 -> 19        -0.10588
      12 -> 16         0.53018
      12 -> 17        -0.10185
      12 -> 18        -0.10426
      13 -> 21         0.12826

 Excited State  14:      Singlet-A      9.7535 eV  127.12 nm  f=0.0150  <S**2>=0.000
       7 -> 15        -0.13021
      10 -> 15         0.63987
      13 -> 15        -0.14311
      13 -> 20         0.16419

 Excited State  15:      Singlet-A     10.0134 eV  123.82 nm  f=0.0846  <S**2>=0.000
       8 -> 15         0.13822
       9 -> 15         0.15635
      10 -> 14         0.14333
      11 -> 15         0.23577
      11 -> 18         0.13528
      11 -> 19        -0.16488
      12 -> 15        -0.14844
      12 -> 16        -0.20820
      12 -> 17        -0.10830
      12 -> 18        -0.20356
      13 -> 20         0.31019
      13 -> 21         0.20049

 The electronic state is 1-A.
 Alpha  occ. eigenvalues --   -1.76555  -1.18350  -0.96080  -0.81243  -0.76036
 Alpha  occ. eigenvalues --   -0.66871  -0.66456  -0.55320  -0.49833  -0.44199
 Alpha  occ. eigenvalues --   -0.42487  -0.40492  -0.29406
 Alpha virt. eigenvalues --    0.12496   0.15494   0.18437   0.24340   0.26819
 Alpha virt. eigenvalues --    0.29124   0.31223   0.33240   0.40698   0.49842
 Alpha virt. eigenvalues --    0.54585

 Mulliken charges:
               1
     1  C   -0.089596
     2  C   -1.927866
     3  O    3.228174
     4  C   -1.924973
     5  C   -0.061196
     6  H    0.121781
     7  H    0.260964
     8  H    0.268027
     9  H    0.124684
 Sum of Mulliken charges =   0.00000

 Dipole moment (field-independent basis, Debye):
    X=              0.5186    Y=            -10.3973    Z=             -0.0632  Tot=             10.4104
 N-N= 1.046525213286D+02 E-N=-1.701891788139D+02  KE=-1.509823757490D+01
 Orbital energies and kinetic energies (alpha):
                                 1                 2
   1         O                -1.765547         -1.280524
   2         O                -1.183502         -1.020913
   3         O                -0.960801         -0.870044
   4         O                -0.812427         -0.607610
   5         O                -0.760360         -0.677726
   6         O                -0.668714         -0.574705
   7         O                -0.664556         -0.540890

 Normal termination of Gaussian 09 at Tue Dec 15 17:06:15 2015.
