 Gaussian 09, Revision D.01,
 Gaussian 09:  ES64L-G09RevD.01 24-Apr-2013

 ------------------------------------------------------------
 #P AM1(Input,print) CIS(Singlets,NStates=15) pop(full) force
 ------------------------------------------------------------

 -----------------
 AM1-Reparam Input
 -----------------
 Symbolic Z-matrix:
 Charge =  0 Multiplicity = 1

                         Standard orientation:
 ---------------------------------------------------------------------
 Center     Atomic      Atomic             Coordinates (Angstroms)
 Number     Number       Type             X           Y           Z
 ---------------------------------------------------------------------
      1          6           0        0.233851    1.154702    0.003250
      2          6           0        1.135344    0.102583   -0.003083
      3          8           0        0.513178   -1.038706   -0.012188
      4          6           0       -0.894355   -0.752286    0.020260
      5          6           0       -1.039467    0.578183   -0.021205
      6          1           0       -1.994764    1.099424   -0.005095
      7          1           0       -1.506241   -1.562490    0.034581
      8          1           0        2.247521    0.079366    0.026829
      9          1           0        0.535823    2.194256    0.045854
 ---------------------------------------------------------------------

 SCF Done:  E(RAM1) =   1.73491719193     A.U. after   14 cycles

 Excitation energies and oscillator strengths:

 Excited State   1:      Singlet-A      5.5835 eV  222.05 nm  f=0.3411  <S**2>=0.000
      13 -> 14         0.69150
 This state for optimization and/or second-order correction.
 Total Energy, E(CIS) =   1.94010814127
 Copying the excited state density for this state as the 1-particle RhoCI density.

 Excited State   2:      Singlet-A      6.8553 eV  180.86 nm  f=0.0027  <S**2>=0.000
      10 -> 15         0.10898
      13 -> 15         0.67183
      13 -> 17         0.16202

 Excited State   3:      Singlet-A      7.2295 eV  171.50 nm  f=0.0008  <S**2>=0.000
      12 -> 14         0.70096

 Excited State   4:      Singlet-A      7.8314 eV  158.32 nm  f=0.0076  <S**2>=0.000
      11 -> 14         0.37083
      13 -> 16         0.56539
      13 -> 19         0.11373

 Excited State   5:      Singlet-A      7.9349 eV  156.25 nm  f=0.0031  <S**2>=0.000
      11 -> 14         0.59588
      13 -> 16        -0.35780

 Excited State   6:      Singlet-A      8.9644 eV  138.31 nm  f=0.0060  <S**2>=0.000
      10 -> 15        -0.10183
      13 -> 15        -0.13993
      13 -> 17         0.55911
      13 -> 18         0.30809
      13 -> 19        -0.12207
      13 -> 22        -0.17988

 Excited State   7:      Singlet-A      9.2277 eV  134.36 nm  f=0.0057  <S**2>=0.000
      10 -> 16        -0.10388
      13 -> 17        -0.35512
      13 -> 18         0.55076
      13 -> 22        -0.20063

 Excited State   8:      Singlet-A      9.4652 eV  130.99 nm  f=0.0667  <S**2>=0.000
      10 -> 14         0.63419
      11 -> 15        -0.11524
      11 -> 17        -0.10318
      12 -> 17        -0.11795
      12 -> 18        -0.11081

 Excited State   9:      Singlet-A      9.9420 eV  124.71 nm  f=0.0084  <S**2>=0.000
       9 -> 15         0.10901
      10 -> 14         0.13572
      11 -> 16         0.14857
      11 -> 17         0.10886
      11 -> 18        -0.10215
      12 -> 15         0.52760
      12 -> 17         0.15720
      12 -> 18         0.17694
      13 -> 19        -0.15192

 Excited State  10:      Singlet-A      9.9829 eV  124.20 nm  f=0.0006  <S**2>=0.000
      10 -> 16         0.10149
      12 -> 15         0.12947
      13 -> 17         0.11722
      13 -> 18         0.12355
      13 -> 19         0.63554

 Excited State  11:      Singlet-A     10.1400 eV  122.27 nm  f=0.1412  <S**2>=0.000
       9 -> 15         0.15027
      10 -> 14         0.18667
      11 -> 15         0.50725
      11 -> 16         0.12833
      11 -> 17         0.23582
      12 -> 15        -0.21320
      12 -> 18         0.16359

 Excited State  12:      Singlet-A     10.6598 eV  116.31 nm  f=0.0469  <S**2>=0.000
      13 -> 18        -0.20695
      13 -> 19         0.14981
      13 -> 20         0.50186
      13 -> 22        -0.39707

 Excited State  13:      Singlet-A     10.8056 eV  114.74 nm  f=0.0664  <S**2>=0.000
       7 -> 15        -0.13230
      10 -> 15         0.58013
      12 -> 16        -0.23387
      13 -> 15        -0.11760
      13 -> 20         0.12518

 Excited State  14:      Singlet-A     10.8323 eV  114.46 nm  f=0.1691  <S**2>=0.000
      10 -> 15         0.26608
      11 -> 16         0.22295
      11 -> 19         0.15016
      12 -> 16         0.49984
      12 -> 17         0.13852
      12 -> 18         0.10980
      12 -> 19         0.15297

 Excited State  15:      Singlet-A     10.8776 eV  113.98 nm  f=0.0488  <S**2>=0.000
       8 -> 16        -0.11027
       9 -> 15         0.16933
      10 -> 14        -0.15632
      11 -> 15         0.23119
      11 -> 16        -0.10676
      11 -> 18        -0.10566
      11 -> 19        -0.19560
      12 -> 15         0.23160
      12 -> 16         0.32463
      12 -> 17        -0.17712
      12 -> 18        -0.23472
      12 -> 20        -0.13184
      13 -> 21        -0.12927

 The electronic state is 1-A.
 Alpha  occ. eigenvalues --   -1.91187  -1.18137  -0.92446  -0.81958  -0.78615
 Alpha  occ. eigenvalues --   -0.70101  -0.67974  -0.57287  -0.54999  -0.47062
 Alpha  occ. eigenvalues --   -0.44059  -0.41993  -0.30701
 Alpha virt. eigenvalues --    0.11332   0.16767   0.22130   0.26636   0.28938
 Alpha virt. eigenvalues --    0.30406   0.33127   0.33785   0.35905   0.42245
 Alpha virt. eigenvalues --    0.46122

 Mulliken charges:
               1
     1  C   -0.256466
     2  C   -2.049295
     3  O    3.300227
     4  C   -2.002976
     5  C   -0.071969
     6  H    0.201140
     7  H    0.314609
     8  H    0.349065
     9  H    0.215665
 Sum of Mulliken charges =   0.00000

 Dipole moment (field-independent basis, Debye):
    X=              5.2444    Y=             -9.4257    Z=             -0.1656  Tot=             10.7877
 N-N= 1.039251155198D+02 E-N=-1.693346422342D+02  KE=-1.551537180738D+01
 Orbital energies and kinetic energies (alpha):
                                 1                 2
   1         O                -1.911874         -1.369566
   2         O                -1.181370         -1.057241
   3         O                -0.924456         -0.890009
   4         O                -0.819583         -0.565628
   5         O                -0.786151         -0.697823
   6         O                -0.701008         -0.587589
   7         O                -0.679737         -0.537425

 Normal termination of Gaussian 09 at Tue Dec 15 17:09:35 2015.
