 Gaussian 09, Revision D.01,
 Gaussian 09:  ES64L-G09RevD.01 24-Apr-2013

 ------------------------------------------------------------
 #P AM1(Input,print) CIS(Singlets,NStates=15) pop(full) force
 ------------------------------------------------------------

 -----------------
 AM1-Reparam Input
 -----------------
 Symbolic Z-matrix:
 Charge =  0 Multiplicity = 1

                         Standard orientation:
 ---------------------------------------------------------------------
 Center     Atomic      Atomic             Coordinates (Angstroms)
 Number     Number       Type             X           Y           Z
 ---------------------------------------------------------------------
      1          6           0       -0.948388    0.813173   -0.020257
      2          6           0       -0.985423   -0.618480   -0.014085
      3          8           0        0.261296   -1.072863    0.015507
      4          6           0        1.185691   -0.120481   -0.012115
      5          6           0        0.485941    1.046557    0.028516
      6          1           0        0.912059    2.022266   -0.028832
      7          1           0        2.133718   -0.338212   -0.046274
      8          1           0       -1.858493   -1.254421    0.018396
      9          1           0       -1.704583    1.428654    0.040298
 ---------------------------------------------------------------------

 SCF Done:  E(RAM1) =   2.11232419771     A.U. after   13 cycles

 Excitation energies and oscillator strengths:

 Excited State   1:      Singlet-A      5.4940 eV  225.67 nm  f=0.3685  <S**2>=0.000
      13 -> 14         0.69530
 This state for optimization and/or second-order correction.
 Total Energy, E(CIS) =   2.31422385285
 Copying the excited state density for this state as the 1-particle RhoCI density.

 Excited State   2:      Singlet-A      6.7524 eV  183.62 nm  f=0.0091  <S**2>=0.000
      12 -> 14        -0.12166
      13 -> 15         0.65653
      13 -> 17        -0.17331

 Excited State   3:      Singlet-A      6.9211 eV  179.14 nm  f=0.0005  <S**2>=0.000
      12 -> 14         0.68823
      13 -> 15         0.11717

 Excited State   4:      Singlet-A      7.2631 eV  170.70 nm  f=0.0019  <S**2>=0.000
      13 -> 16         0.65379
      13 -> 18        -0.13514
      13 -> 19        -0.16412

 Excited State   5:      Singlet-A      8.0910 eV  153.24 nm  f=0.0006  <S**2>=0.000
      10 -> 14        -0.10511
      11 -> 15        -0.11307
      13 -> 15         0.11044
      13 -> 16        -0.11422
      13 -> 17         0.45724
      13 -> 18        -0.39020
      13 -> 20         0.26520
      13 -> 21         0.11830

 Excited State   6:      Singlet-A      8.3192 eV  149.03 nm  f=0.0042  <S**2>=0.000
      10 -> 14         0.68931

 Excited State   7:      Singlet-A      8.7975 eV  140.93 nm  f=0.1288  <S**2>=0.000
      11 -> 14         0.69134

 Excited State   8:      Singlet-A      9.0725 eV  136.66 nm  f=0.0081  <S**2>=0.000
      11 -> 16         0.15123
      13 -> 17         0.47026
      13 -> 18         0.42252
      13 -> 20        -0.21466

 Excited State   9:      Singlet-A      9.4654 eV  130.99 nm  f=0.0069  <S**2>=0.000
      11 -> 15         0.18688
      13 -> 18        -0.15964
      13 -> 19         0.61721
      13 -> 20        -0.10866
      13 -> 21        -0.13189

 Excited State  10:      Singlet-A      9.8147 eV  126.32 nm  f=0.0311  <S**2>=0.000
       9 -> 16        -0.12444
      10 -> 15        -0.14994
      10 -> 16        -0.16205
      10 -> 18         0.15832
      12 -> 15         0.48227
      12 -> 17        -0.30485
      12 -> 18         0.13265

 Excited State  11:      Singlet-A      9.8876 eV  125.39 nm  f=0.0012  <S**2>=0.000
      13 -> 18         0.30448
      13 -> 19         0.19211
      13 -> 20         0.52539
      13 -> 21         0.25364

 Excited State  12:      Singlet-A     10.1367 eV  122.31 nm  f=0.0903  <S**2>=0.000
      10 -> 15         0.10035
      12 -> 15         0.18515
      12 -> 16         0.58474
      12 -> 17         0.10373
      12 -> 18        -0.20768
      13 -> 21        -0.10106

 Excited State  13:      Singlet-A     10.2780 eV  120.63 nm  f=0.0958  <S**2>=0.000
      11 -> 16        -0.17118
      12 -> 16         0.12015
      13 -> 19         0.10479
      13 -> 20        -0.26980
      13 -> 21         0.58039

 Excited State  14:      Singlet-A     10.3219 eV  120.12 nm  f=0.0092  <S**2>=0.000
      11 -> 15         0.59199
      13 -> 15         0.10990
      13 -> 16        -0.14085
      13 -> 19        -0.13573
      13 -> 21         0.14713

 Excited State  15:      Singlet-A     10.4399 eV  118.76 nm  f=0.1677  <S**2>=0.000
       8 -> 15         0.12506
      10 -> 15         0.20909
      11 -> 15        -0.16876
      12 -> 15         0.34471
      12 -> 16        -0.24856
      12 -> 17         0.27709
      12 -> 18        -0.21513
      12 -> 19         0.19618

 The electronic state is 1-A.
 Alpha  occ. eigenvalues --   -1.95627  -1.18565  -0.95642  -0.82441  -0.79097
 Alpha  occ. eigenvalues --   -0.70931  -0.67100  -0.58850  -0.54368  -0.48088
 Alpha  occ. eigenvalues --   -0.46040  -0.43260  -0.31693
 Alpha virt. eigenvalues --    0.08857   0.17105   0.19020   0.24299   0.26734
 Alpha virt. eigenvalues --    0.27663   0.29252   0.29987   0.33977   0.41056
 Alpha virt. eigenvalues --    0.47352

 Mulliken charges:
               1
     1  C   -0.129655
     2  C   -1.960065
     3  O    3.239897
     4  C   -1.904215
     5  C   -0.146903
     6  H    0.170575
     7  H    0.272686
     8  H    0.294946
     9  H    0.162733
 Sum of Mulliken charges =   0.00000

 Dipole moment (field-independent basis, Debye):
    X=              1.9908    Y=             -8.9650    Z=              0.3879  Tot=              9.1916
 N-N= 1.045547849053D+02 E-N=-1.696672173998D+02  KE=-1.538368189466D+01
 Orbital energies and kinetic energies (alpha):
                                 1                 2
   1         O                -1.956270         -1.395003
   2         O                -1.185652         -1.030243
   3         O                -0.956418         -0.882166
   4         O                -0.824407         -0.580940
   5         O                -0.790969         -0.699491
   6         O                -0.709314         -0.595413
   7         O                -0.670998         -0.520958

 Normal termination of Gaussian 09 at Tue Dec 15 17:09:20 2015.
