 Gaussian 09, Revision D.01,
 Gaussian 09:  ES64L-G09RevD.01 24-Apr-2013

 ------------------------------------------------------------
 #P AM1(Input,print) CIS(Singlets,NStates=15) pop(full) force
 ------------------------------------------------------------

 -----------------
 AM1-Reparam Input
 -----------------
 Symbolic Z-matrix:
 Charge =  0 Multiplicity = 1

                         Standard orientation:
 ---------------------------------------------------------------------
 Center     Atomic      Atomic             Coordinates (Angstroms)
 Number     Number       Type             X           Y           Z
 ---------------------------------------------------------------------
      1          6           0        0.476524    1.086467    0.033147
      2          6           0        1.157561   -0.080477   -0.016795
      3          8           0        0.259620   -1.161541   -0.013717
      4          6           0       -0.983331   -0.547575    0.051192
      5          6           0       -0.933816    0.784504   -0.032855
      6          1           0       -1.724804    1.440999   -0.075685
      7          1           0       -1.811747   -1.292232   -0.027602
      8          1           0        2.184792   -0.385207   -0.014027
      9          1           0        0.973178    2.071253    0.018917
 ---------------------------------------------------------------------

 SCF Done:  E(RAM1) =  0.163626070623E-01 A.U. after   13 cycles

 Excitation energies and oscillator strengths:

 Excited State   1:      Singlet-A      4.4669 eV  277.56 nm  f=0.0861  <S**2>=0.000
      12 -> 15         0.18627
      13 -> 14         0.67411
 This state for optimization and/or second-order correction.
 Total Energy, E(CIS) =  0.180517488964
 Copying the excited state density for this state as the 1-particle RhoCI density.

 Excited State   2:      Singlet-A      5.0928 eV  243.45 nm  f=0.0051  <S**2>=0.000
      12 -> 14        -0.38193
      13 -> 15         0.52753
      13 -> 16         0.25275

 Excited State   3:      Singlet-A      5.2995 eV  233.96 nm  f=0.0001  <S**2>=0.000
      12 -> 14         0.22106
      13 -> 15        -0.16027
      13 -> 16         0.63004
      13 -> 22         0.10643

 Excited State   4:      Singlet-A      5.9674 eV  207.77 nm  f=0.0115  <S**2>=0.000
       7 -> 16        -0.14149
      12 -> 15         0.11624
      12 -> 16         0.50445
      12 -> 22         0.20413
      13 -> 18        -0.29841
      13 -> 19         0.15026
      13 -> 23        -0.11799

 Excited State   5:      Singlet-A      6.0356 eV  205.42 nm  f=0.0041  <S**2>=0.000
       7 -> 16         0.12101
      12 -> 15        -0.17654
      12 -> 16        -0.29823
      12 -> 19         0.20316
      13 -> 17        -0.15033
      13 -> 18        -0.22377
      13 -> 19         0.35314
      13 -> 22         0.17849
      13 -> 23        -0.18956
      13 -> 24        -0.12927

 Excited State   6:      Singlet-A      6.1130 eV  202.82 nm  f=0.0017  <S**2>=0.000
      12 -> 15         0.10769
      12 -> 16         0.15430
      12 -> 18        -0.21448
      12 -> 20         0.10679
      12 -> 23        -0.10085
      12 -> 24        -0.11084
      13 -> 18         0.37865
      13 -> 19         0.25656
      13 -> 20        -0.11232
      13 -> 21        -0.11306
      13 -> 22         0.33071

 Excited State   7:      Singlet-A      6.2503 eV  198.36 nm  f=0.3820  <S**2>=0.000
      12 -> 14         0.50190
      13 -> 15         0.41049

 Excited State   8:      Singlet-A      6.4143 eV  193.29 nm  f=0.0085  <S**2>=0.000
      12 -> 15        -0.19473
      13 -> 17         0.58247
      13 -> 18        -0.18372
      13 -> 19         0.10111
      13 -> 22         0.10514
      13 -> 23         0.10180

 Excited State   9:      Singlet-A      6.4598 eV  191.93 nm  f=0.0915  <S**2>=0.000
      12 -> 15         0.59289
      12 -> 16        -0.21335
      13 -> 14        -0.15968
      13 -> 17         0.16511
      13 -> 18        -0.12389

 Excited State  10:      Singlet-A      6.9724 eV  177.82 nm  f=0.0050  <S**2>=0.000
      12 -> 17         0.41971
      12 -> 18        -0.39706
      12 -> 20         0.13184
      13 -> 18        -0.15849
      13 -> 19        -0.23117
      13 -> 22         0.14850

 Excited State  11:      Singlet-A      7.2722 eV  170.49 nm  f=0.0021  <S**2>=0.000
       9 -> 14        -0.30931
       9 -> 15         0.12063
      10 -> 15         0.12806
      11 -> 14         0.47831
      11 -> 15        -0.30757

 Excited State  12:      Singlet-A      7.2802 eV  170.30 nm  f=0.0023  <S**2>=0.000
       9 -> 14         0.11230
      10 -> 14         0.52612
      10 -> 15         0.24772
      11 -> 14         0.21091
      11 -> 15         0.13985
      13 -> 20        -0.11327
      13 -> 24         0.10008

 Excited State  13:      Singlet-A      7.4614 eV  166.17 nm  f=0.0003  <S**2>=0.000
       9 -> 14         0.10071
       9 -> 15        -0.11852
      10 -> 14         0.19465
      12 -> 17         0.32632
      12 -> 18         0.28604
      12 -> 20         0.20337
      12 -> 21        -0.10734
      12 -> 23         0.17109
      13 -> 17         0.12404
      13 -> 18         0.18673
      13 -> 19         0.12144
      13 -> 20         0.19160

 Excited State  14:      Singlet-A      7.5165 eV  164.95 nm  f=0.0017  <S**2>=0.000
       9 -> 14         0.14183
      11 -> 14         0.16321
      11 -> 15         0.12219
      12 -> 18         0.10978
      12 -> 19         0.22692
      12 -> 20        -0.15040
      12 -> 21         0.10558
      12 -> 22         0.12888
      12 -> 23        -0.12523
      13 -> 19        -0.27500
      13 -> 20         0.27616
      13 -> 22         0.26967
      13 -> 24        -0.19146

 Excited State  15:      Singlet-A      7.6049 eV  163.03 nm  f=0.0015  <S**2>=0.000
      12 -> 18         0.19650
      12 -> 19        -0.28132
      12 -> 20        -0.13363
      12 -> 22        -0.15494
      12 -> 24        -0.14204
      13 -> 17        -0.13230
      13 -> 18        -0.19383
      13 -> 21         0.15058
      13 -> 22         0.38858
      13 -> 24         0.18073

 The electronic state is 1-A.
 Alpha  occ. eigenvalues --   -1.54222  -1.23746  -1.09508  -0.81823  -0.81139
 Alpha  occ. eigenvalues --   -0.67920  -0.58871  -0.55563  -0.51457  -0.50967
 Alpha  occ. eigenvalues --   -0.49458  -0.39716  -0.35035
 Alpha virt. eigenvalues --    0.02834   0.06293   0.10256   0.13467   0.14501
 Alpha virt. eigenvalues --    0.14997   0.17417   0.18662   0.18748   0.20719
 Alpha virt. eigenvalues --    0.21754

 Mulliken charges:
               1
     1  C   -0.196682
     2  C   -0.100446
     3  O   -0.110172
     4  C   -0.090426
     5  C   -0.185472
     6  H    0.159112
     7  H    0.181025
     8  H    0.184951
     9  H    0.158110
 Sum of Mulliken charges =   0.00000

 Dipole moment (field-independent basis, Debye):
    X=             -0.0887    Y=              0.4997    Z=             -0.1022  Tot=              0.5177
 N-N= 1.031038647151D+02 E-N=-1.704818272772D+02  KE=-1.650467150342D+01
 Orbital energies and kinetic energies (alpha):
                                 1                 2
   1         O                -1.542222         -1.303081
   2         O                -1.237462         -1.047377
   3         O                -1.095084         -0.958405
   4         O                -0.818231         -0.707931
   5         O                -0.811393         -0.719970
   6         O                -0.679196         -0.601336
   7         O                -0.588714         -0.480106

 Normal termination of Gaussian 09 at Tue Dec 15 16:29:43 2015.
