 Gaussian 09, Revision D.01,
 Gaussian 09:  ES64L-G09RevD.01 24-Apr-2013

 ------------------------------------------------------------
 #P AM1(Input,print) CIS(Singlets,NStates=15) pop(full) force
 ------------------------------------------------------------

 -----------------
 AM1-Reparam Input
 -----------------
 Symbolic Z-matrix:
 Charge =  0 Multiplicity = 1

                         Standard orientation:
 ---------------------------------------------------------------------
 Center     Atomic      Atomic             Coordinates (Angstroms)
 Number     Number       Type             X           Y           Z
 ---------------------------------------------------------------------
      1          6           0       -0.885270    0.787392    0.015701
      2          6           0       -1.065905   -0.472591   -0.015346
      3          8           0        0.213108   -1.146504    0.022311
      4          6           0        1.169657   -0.156108   -0.021829
      5          6           0        0.536669    1.068398   -0.009674
      6          1           0        1.077165    1.969415    0.057703
      7          1           0        2.133243   -0.528447   -0.004625
      8          1           0       -1.874166   -1.175156   -0.029939
      9          1           0       -1.572016    1.543671   -0.014736
 ---------------------------------------------------------------------

 SCF Done:  E(RAM1) =  -4.67183416096     A.U. after   14 cycles

 Excitation energies and oscillator strengths:

 Excited State   1:      Singlet-A      6.4612 eV  191.89 nm  f=0.3615  <S**2>=0.000
      13 -> 14         0.69350
 This state for optimization and/or second-order correction.
 Total Energy, E(CIS) =  -4.43438945404
 Copying the excited state density for this state as the 1-particle RhoCI density.

 Excited State   2:      Singlet-A      7.2153 eV  171.83 nm  f=0.0006  <S**2>=0.000
      12 -> 14         0.70018

 Excited State   3:      Singlet-A      7.7679 eV  159.61 nm  f=0.0002  <S**2>=0.000
      13 -> 15         0.67240
      13 -> 16        -0.14412

 Excited State   4:      Singlet-A      8.0714 eV  153.61 nm  f=0.0023  <S**2>=0.000
      11 -> 14         0.13928
      13 -> 15         0.15010
      13 -> 16         0.65386
      13 -> 18         0.12462

 Excited State   5:      Singlet-A      8.3124 eV  149.16 nm  f=0.0045  <S**2>=0.000
      11 -> 14         0.68395
      13 -> 16        -0.14348

 Excited State   6:      Singlet-A      8.9075 eV  139.19 nm  f=0.0784  <S**2>=0.000
      10 -> 14         0.21382
      13 -> 17         0.66800

 Excited State   7:      Singlet-A     10.2241 eV  121.27 nm  f=0.0650  <S**2>=0.000
       9 -> 16        -0.13045
      10 -> 14        -0.22308
      10 -> 15        -0.10568
      12 -> 15         0.46879
      12 -> 16         0.12069
      12 -> 19        -0.10390
      13 -> 18         0.30885
      13 -> 19        -0.14797

 Excited State   8:      Singlet-A     10.2669 eV  120.76 nm  f=0.0328  <S**2>=0.000
      10 -> 14         0.12905
      10 -> 15        -0.10686
      12 -> 15        -0.28268
      13 -> 18         0.43647
      13 -> 19        -0.38364

 Excited State   9:      Singlet-A     10.2970 eV  120.41 nm  f=0.0052  <S**2>=0.000
      13 -> 18         0.35795
      13 -> 19         0.54029
      13 -> 20         0.18881

 Excited State  10:      Singlet-A     10.7655 eV  115.17 nm  f=0.1554  <S**2>=0.000
      10 -> 14         0.53981
      12 -> 15         0.31187
      12 -> 18         0.11773
      13 -> 17        -0.17629

 Excited State  11:      Singlet-A     10.8083 eV  114.71 nm  f=0.0032  <S**2>=0.000
      13 -> 18        -0.18734
      13 -> 20         0.65992

 Excited State  12:      Singlet-A     10.9649 eV  113.07 nm  f=0.0424  <S**2>=0.000
      11 -> 15         0.21954
      11 -> 20        -0.10048
      12 -> 16         0.58097
      12 -> 18         0.15606
      12 -> 19         0.19934

 Excited State  13:      Singlet-A     11.2734 eV  109.98 nm  f=0.1519  <S**2>=0.000
      10 -> 14        -0.10117
      11 -> 15        -0.23330
      11 -> 16         0.40426
      11 -> 18         0.20763
      11 -> 20        -0.19388
      12 -> 15         0.10541
      12 -> 16        -0.12852
      12 -> 19         0.32353

 Excited State  14:      Singlet-A     11.3556 eV  109.18 nm  f=0.0050  <S**2>=0.000
       9 -> 14        -0.34329
      12 -> 17         0.58493

 Excited State  15:      Singlet-A     11.6462 eV  106.46 nm  f=0.2462  <S**2>=0.000
       8 -> 16        -0.17791
       9 -> 14        -0.24611
       9 -> 15         0.23725
      10 -> 14        -0.18423
      11 -> 15         0.27533
      11 -> 19         0.21798
      12 -> 16        -0.15963
      12 -> 17        -0.17529
      12 -> 18         0.15777
      12 -> 19         0.14216
      12 -> 20        -0.20789

 The electronic state is 1-A.
 Alpha  occ. eigenvalues --   -3.74863  -1.11365  -0.80261  -0.78460  -0.74253
 Alpha  occ. eigenvalues --   -0.73613  -0.62441  -0.47776  -0.46436  -0.41360
 Alpha  occ. eigenvalues --   -0.37096  -0.33638  -0.23535
 Alpha virt. eigenvalues --    0.21434   0.28700   0.30238   0.33302   0.39025
 Alpha virt. eigenvalues --    0.40044   0.41481   0.48609   0.53161   0.57258
 Alpha virt. eigenvalues --    0.58914

 Mulliken charges:
               1
     1  C   -0.165794
     2  C   -1.375638
     3  O    2.802016
     4  C   -1.433559
     5  C   -0.330509
     6  H    0.123710
     7  H    0.142235
     8  H    0.125222
     9  H    0.112317
 Sum of Mulliken charges =   0.00000

 Dipole moment (field-independent basis, Debye):
    X=              1.7086    Y=            -11.3927    Z=              0.5345  Tot=             11.5325
 N-N= 1.019932415711D+02 E-N=-1.694672453189D+02  KE=-2.216094382342D+01
 Orbital energies and kinetic energies (alpha):
                                 1                 2
   1         O                -3.748633         -3.099907
   2         O                -1.113651         -1.167582
   3         O                -0.802615         -0.880995
   4         O                -0.784599         -0.850129
   5         O                -0.742530         -0.762634
   6         O                -0.736131         -0.827661
   7         O                -0.624405         -0.702832

 Normal termination of Gaussian 09 at Fri Dec 11 13:41:38 2015.
