 Gaussian 09, Revision D.01,
 Gaussian 09:  ES64L-G09RevD.01 24-Apr-2013

 ------------------------------------------------------------
 #P AM1(Input,print) CIS(Singlets,NStates=15) pop(full) force
 ------------------------------------------------------------

 -----------------
 AM1-Reparam Input
 -----------------
 Symbolic Z-matrix:
 Charge =  0 Multiplicity = 1

                         Standard orientation:
 ---------------------------------------------------------------------
 Center     Atomic      Atomic             Coordinates (Angstroms)
 Number     Number       Type             X           Y           Z
 ---------------------------------------------------------------------
      1          6           0       -1.157311    0.290330   -0.028214
      2          6           0       -0.572330   -0.964085    0.039219
      3          8           0        0.763191   -0.880420   -0.007601
      4          6           0        1.032317    0.418708   -0.009386
      5          6           0       -0.081540    1.193798    0.014300
      6          1           0       -0.168388    2.210029    0.033333
      7          1           0        2.082468    0.696339   -0.010745
      8          1           0       -1.054420   -1.966954   -0.042835
      9          1           0       -2.292005    0.471443   -0.014456
 ---------------------------------------------------------------------

 SCF Done:  E(RAM1) =   2.10923179175     A.U. after   13 cycles

 Excitation energies and oscillator strengths:

 Excited State   1:      Singlet-A      5.7149 eV  216.95 nm  f=0.3406  <S**2>=0.000
      13 -> 14         0.69397
 This state for optimization and/or second-order correction.
 Total Energy, E(CIS) =   2.31924927488
 Copying the excited state density for this state as the 1-particle RhoCI density.

 Excited State   2:      Singlet-A      6.6304 eV  186.99 nm  f=0.0028  <S**2>=0.000
      11 -> 16        -0.10323
      13 -> 15         0.66786
      13 -> 17        -0.14430

 Excited State   3:      Singlet-A      6.7701 eV  183.14 nm  f=0.0003  <S**2>=0.000
      11 -> 15        -0.12093
      13 -> 16         0.66418
      13 -> 18        -0.10386
      13 -> 19         0.12438

 Excited State   4:      Singlet-A      7.4059 eV  167.41 nm  f=0.0002  <S**2>=0.000
      12 -> 14         0.69280

 Excited State   5:      Singlet-A      8.1070 eV  152.94 nm  f=0.0089  <S**2>=0.000
      10 -> 14         0.65761
      11 -> 14         0.17117
      13 -> 17        -0.15754

 Excited State   6:      Singlet-A      8.4394 eV  146.91 nm  f=0.0010  <S**2>=0.000
      11 -> 15        -0.10290
      13 -> 17        -0.38298
      13 -> 18         0.43203
      13 -> 19        -0.16486
      13 -> 20         0.12115
      13 -> 21         0.30834

 Excited State   7:      Singlet-A      8.5334 eV  145.29 nm  f=0.0072  <S**2>=0.000
      10 -> 14         0.13721
      11 -> 16        -0.14614
      13 -> 17         0.53173
      13 -> 18         0.34224
      13 -> 21         0.15391

 Excited State   8:      Singlet-A      8.9705 eV  138.21 nm  f=0.0940  <S**2>=0.000
      10 -> 14        -0.16543
      11 -> 14         0.65908

 Excited State   9:      Singlet-A      9.3062 eV  133.23 nm  f=0.0089  <S**2>=0.000
      11 -> 15         0.13669
      13 -> 18         0.25739
      13 -> 19         0.61386
      13 -> 20         0.11989

 Excited State  10:      Singlet-A      9.6900 eV  127.95 nm  f=0.0179  <S**2>=0.000
       8 -> 15        -0.13513
      10 -> 15        -0.15270
      10 -> 17         0.17655
      12 -> 15        -0.14139
      12 -> 16         0.32633
      12 -> 17         0.10522
      12 -> 18        -0.16613
      13 -> 18         0.18136
      13 -> 20        -0.29742
      13 -> 21        -0.24313

 Excited State  11:      Singlet-A      9.7662 eV  126.95 nm  f=0.0206  <S**2>=0.000
       8 -> 15        -0.11751
      10 -> 15        -0.12199
      10 -> 16        -0.10548
      10 -> 17         0.12772
      12 -> 15        -0.11426
      12 -> 16         0.26490
      12 -> 18        -0.13808
      13 -> 18        -0.24963
      13 -> 20         0.28228
      13 -> 21         0.37442

 Excited State  12:      Singlet-A      9.9708 eV  124.35 nm  f=0.0151  <S**2>=0.000
      11 -> 15         0.50804
      11 -> 16         0.19749
      12 -> 15        -0.30809
      13 -> 16         0.15564
      13 -> 19        -0.14769

 Excited State  13:      Singlet-A     10.0870 eV  122.91 nm  f=0.0698  <S**2>=0.000
      10 -> 15        -0.12278
      11 -> 15        -0.15286
      11 -> 16         0.32228
      12 -> 15         0.15336
      13 -> 18         0.10563
      13 -> 19        -0.10743
      13 -> 20         0.38191
      13 -> 21        -0.34385

 Excited State  14:      Singlet-A     10.1539 eV  122.10 nm  f=0.0940  <S**2>=0.000
      10 -> 15         0.10031
      10 -> 16         0.23685
      11 -> 15         0.22115
      11 -> 16         0.12129
      12 -> 15         0.34473
      12 -> 16         0.42160
      12 -> 17        -0.12959

 Excited State  15:      Singlet-A     10.1754 eV  121.85 nm  f=0.1688  <S**2>=0.000
      10 -> 15         0.35468
      10 -> 17        -0.16497
      11 -> 15        -0.19089
      12 -> 15        -0.32634
      12 -> 16         0.21975
      13 -> 20         0.20408
      13 -> 21        -0.17347

 The electronic state is 1-A.
 Alpha  occ. eigenvalues --   -1.94618  -1.20018  -0.92367  -0.80957  -0.77905
 Alpha  occ. eigenvalues --   -0.69172  -0.66560  -0.54096  -0.53609  -0.44412
 Alpha  occ. eigenvalues --   -0.43899  -0.42116  -0.29918
 Alpha virt. eigenvalues --    0.12154   0.17455   0.17821   0.25356   0.27656
 Alpha virt. eigenvalues --    0.29756   0.30955   0.33010   0.34107   0.42488
 Alpha virt. eigenvalues --    0.46482

 Mulliken charges:
               1
     1  C   -0.127566
     2  C   -1.911261
     3  O    3.201334
     4  C   -1.894636
     5  C   -0.129208
     6  H    0.152927
     7  H    0.273114
     8  H    0.278934
     9  H    0.156361
 Sum of Mulliken charges =   0.00000

 Dipole moment (field-independent basis, Debye):
    X=              6.8167    Y=             -7.9681    Z=             -0.4306  Tot=             10.4950
 N-N= 1.044242810411D+02 E-N=-1.698873935404D+02  KE=-1.534974387600D+01
 Orbital energies and kinetic energies (alpha):
                                 1                 2
   1         O                -1.946176         -1.387281
   2         O                -1.200181         -1.062583
   3         O                -0.923672         -0.876348
   4         O                -0.809567         -0.574349
   5         O                -0.779053         -0.666130
   6         O                -0.691717         -0.594327
   7         O                -0.665603         -0.534452

 Normal termination of Gaussian 09 at Tue Dec 15 17:08:32 2015.
