 Gaussian 09, Revision D.01,
 Gaussian 09:  ES64L-G09RevD.01 24-Apr-2013

 ------------------------------------------------------------
 #P AM1(Input,print) CIS(Singlets,NStates=15) pop(full) force
 ------------------------------------------------------------

 -----------------
 AM1-Reparam Input
 -----------------
 Symbolic Z-matrix:
 Charge =  0 Multiplicity = 1

                         Standard orientation:
 ---------------------------------------------------------------------
 Center     Atomic      Atomic             Coordinates (Angstroms)
 Number     Number       Type             X           Y           Z
 ---------------------------------------------------------------------
      1          6           0        0.608469    1.005898   -0.009403
      2          6           0        1.143570   -0.228639    0.029399
      3          8           0        0.161140   -1.137871   -0.033686
      4          6           0       -1.110870   -0.443227    0.030924
      5          6           0       -0.795369    0.855524   -0.009594
      6          1           0       -1.613316    1.651251   -0.020170
      7          1           0       -1.966565   -1.098778    0.021567
      8          1           0        2.108609   -0.569144    0.023908
      9          1           0        1.107350    1.982306   -0.003766
 ---------------------------------------------------------------------

 SCF Done:  E(RAM1) = -0.356146775884     A.U. after   13 cycles

 Excitation energies and oscillator strengths:

 Excited State   1:      Singlet-A      4.4351 eV  279.55 nm  f=0.1113  <S**2>=0.000
      12 -> 15         0.16302
      13 -> 14         0.67891
 This state for optimization and/or second-order correction.
 Total Energy, E(CIS) = -0.193159803406
 Copying the excited state density for this state as the 1-particle RhoCI density.

 Excited State   2:      Singlet-A      4.9029 eV  252.88 nm  f=0.0008  <S**2>=0.000
      13 -> 16         0.68848

 Excited State   3:      Singlet-A      5.3024 eV  233.83 nm  f=0.0232  <S**2>=0.000
      12 -> 14        -0.37104
      13 -> 15         0.59265

 Excited State   4:      Singlet-A      6.2777 eV  197.50 nm  f=0.0030  <S**2>=0.000
      12 -> 16         0.19920
      12 -> 19         0.12921
      12 -> 23        -0.10163
      13 -> 17         0.44013
      13 -> 18        -0.16349
      13 -> 19        -0.14615
      13 -> 20         0.16985
      13 -> 21        -0.16866
      13 -> 22        -0.28944

 Excited State   5:      Singlet-A      6.3604 eV  194.93 nm  f=0.0012  <S**2>=0.000
       7 -> 16        -0.12325
      12 -> 16         0.59324
      12 -> 20         0.11355
      13 -> 19         0.14498
      13 -> 20        -0.11144
      13 -> 21         0.11778
      13 -> 23        -0.19310

 Excited State   6:      Singlet-A      6.4240 eV  193.00 nm  f=0.3786  <S**2>=0.000
      10 -> 16         0.10202
      12 -> 14         0.55132
      13 -> 15         0.34227

 Excited State   7:      Singlet-A      6.4664 eV  191.74 nm  f=0.0180  <S**2>=0.000
      10 -> 14         0.10451
      12 -> 16        -0.14943
      12 -> 19         0.11242
      12 -> 22        -0.18804
      12 -> 23        -0.11882
      13 -> 18        -0.28614
      13 -> 19         0.39958
      13 -> 22        -0.22496
      13 -> 23        -0.21918

 Excited State   8:      Singlet-A      6.7033 eV  184.96 nm  f=0.0060  <S**2>=0.000
       9 -> 14        -0.13081
      12 -> 16        -0.14980
      12 -> 18        -0.14150
      13 -> 17         0.43998
      13 -> 18         0.34960
      13 -> 20        -0.13934
      13 -> 23        -0.22599

 Excited State   9:      Singlet-A      6.8265 eV  181.62 nm  f=0.0931  <S**2>=0.000
      12 -> 15         0.66424
      13 -> 14        -0.15095

 Excited State  10:      Singlet-A      7.1587 eV  173.19 nm  f=0.0141  <S**2>=0.000
       9 -> 14        -0.23560
      10 -> 14         0.31384
      10 -> 15         0.15177
      11 -> 14         0.44884
      11 -> 15        -0.24049
      13 -> 23         0.12264

 Excited State  11:      Singlet-A      7.3869 eV  167.84 nm  f=0.0005  <S**2>=0.000
       9 -> 15        -0.18806
      10 -> 14         0.46168
      10 -> 15         0.21370
      11 -> 14        -0.35462
      13 -> 18         0.14383
      13 -> 20         0.10024

 Excited State  12:      Singlet-A      7.5104 eV  165.08 nm  f=0.0011  <S**2>=0.000
      12 -> 17         0.44053
      12 -> 18         0.16245
      12 -> 19        -0.15945
      12 -> 21        -0.10176
      13 -> 17         0.20643
      13 -> 18        -0.24258
      13 -> 22         0.27782
      13 -> 23         0.14383

 Excited State  13:      Singlet-A      7.7451 eV  160.08 nm  f=0.0016  <S**2>=0.000
       9 -> 14         0.37320
      10 -> 14         0.23839
      11 -> 14         0.15716
      12 -> 18        -0.20590
      12 -> 22        -0.12165
      13 -> 18        -0.10037
      13 -> 19        -0.29300
      13 -> 21         0.16345
      13 -> 23        -0.11323
      13 -> 24         0.21024

 Excited State  14:      Singlet-A      7.7876 eV  159.21 nm  f=0.0003  <S**2>=0.000
       9 -> 14         0.34313
       9 -> 15         0.10752
      11 -> 14         0.15563
      12 -> 18         0.16670
      12 -> 19         0.18730
      12 -> 20         0.10588
      13 -> 18         0.18897
      13 -> 19         0.28623
      13 -> 20         0.27662
      13 -> 23         0.17847

 Excited State  15:      Singlet-A      7.9061 eV  156.82 nm  f=0.0002  <S**2>=0.000
       9 -> 14        -0.29336
       9 -> 15         0.13356
      10 -> 14        -0.11972
      12 -> 17         0.11043
      12 -> 19         0.20773
      12 -> 21        -0.14443
      13 -> 19        -0.19361
      13 -> 20         0.35458
      13 -> 21         0.30576

 The electronic state is 1-A.
 Alpha  occ. eigenvalues --   -1.60382  -1.25303  -1.11893  -0.82124  -0.80865
 Alpha  occ. eigenvalues --   -0.69177  -0.61121  -0.57585  -0.50942  -0.50653
 Alpha  occ. eigenvalues --   -0.50418  -0.41249  -0.34836
 Alpha virt. eigenvalues --    0.02546   0.06558   0.09162   0.14637   0.15516
 Alpha virt. eigenvalues --    0.15808   0.18123   0.19123   0.19912   0.21211
 Alpha virt. eigenvalues --    0.21639

 Mulliken charges:
               1
     1  C   -0.252916
     2  C    0.096717
     3  O   -0.389348
     4  C    0.031746
     5  C   -0.197559
     6  H    0.167022
     7  H    0.198923
     8  H    0.179418
     9  H    0.165997
 Sum of Mulliken charges =   0.00000

 Dipole moment (field-independent basis, Debye):
    X=             -0.3890    Y=              1.2166    Z=              0.0949  Tot=              1.2808
 N-N= 1.031276008064D+02 E-N=-1.705081507351D+02  KE=-1.692838228158D+01
 Orbital energies and kinetic energies (alpha):
                                 1                 2
   1         O                -1.603825         -1.375554
   2         O                -1.253026         -1.065042
   3         O                -1.118927         -0.978381
   4         O                -0.821238         -0.727117
   5         O                -0.808653         -0.702455
   6         O                -0.691766         -0.615932
   7         O                -0.611207         -0.514351

 Normal termination of Gaussian 09 at Sat Nov 14 17:36:38 2015.
