 Gaussian 09, Revision D.01,
 Gaussian 09:  ES64L-G09RevD.01 24-Apr-2013

 ------------------------------------------------------------
 #P AM1(Input,print) CIS(Singlets,NStates=15) pop(full) force
 ------------------------------------------------------------

 -----------------
 AM1-Reparam Input
 -----------------
 Symbolic Z-matrix:
 Charge =  0 Multiplicity = 1

                         Standard orientation:
 ---------------------------------------------------------------------
 Center     Atomic      Atomic             Coordinates (Angstroms)
 Number     Number       Type             X           Y           Z
 ---------------------------------------------------------------------
      1          6           0        0.136899    1.145612    0.021080
      2          6           0       -1.020423    0.469537   -0.029252
      3          8           0       -0.771031   -0.829433    0.032619
      4          6           0        0.514860   -0.998840   -0.016891
      5          6           0        1.165948    0.247622   -0.024180
      6          1           0        2.287033    0.389486    0.061056
      7          1           0        0.891306   -1.977307   -0.014250
      8          1           0       -2.083258    0.774374   -0.043303
      9          1           0        0.289466    2.265327    0.031001
 ---------------------------------------------------------------------

 SCF Done:  E(RAM1) =   1.06863712912     A.U. after   14 cycles

 Excitation energies and oscillator strengths:

 Excited State   1:      Singlet-A      5.9083 eV  209.85 nm  f=0.1928  <S**2>=0.000
      12 -> 17        -0.13728
      13 -> 14         0.67549
 This state for optimization and/or second-order correction.
 Total Energy, E(CIS) =   1.28576449638
 Copying the excited state density for this state as the 1-particle RhoCI density.

 Excited State   2:      Singlet-A      6.7985 eV  182.37 nm  f=0.0052  <S**2>=0.000
      13 -> 15         0.68032
      13 -> 19        -0.10012

 Excited State   3:      Singlet-A      7.3028 eV  169.78 nm  f=0.0007  <S**2>=0.000
      12 -> 14         0.18459
      12 -> 15         0.14321
      13 -> 16         0.62478
      13 -> 18        -0.10942
      13 -> 21         0.15756

 Excited State   4:      Singlet-A      7.3718 eV  168.19 nm  f=0.0120  <S**2>=0.000
       9 -> 14        -0.10030
      11 -> 14         0.39330
      12 -> 14         0.47267
      13 -> 16        -0.16109
      13 -> 17         0.25106

 Excited State   5:      Singlet-A      7.5259 eV  164.74 nm  f=0.0049  <S**2>=0.000
       9 -> 14        -0.12407
      10 -> 14        -0.11267
      11 -> 14         0.53152
      12 -> 14        -0.32060
      13 -> 17        -0.26938

 Excited State   6:      Singlet-A      7.8725 eV  157.49 nm  f=0.0016  <S**2>=0.000
       9 -> 14        -0.17609
      10 -> 14         0.66582
      11 -> 14         0.11399

 Excited State   7:      Singlet-A      8.3212 eV  149.00 nm  f=0.0012  <S**2>=0.000
      12 -> 15         0.59935
      12 -> 20         0.10253
      13 -> 18         0.30747
      13 -> 23        -0.10339

 Excited State   8:      Singlet-A      8.4214 eV  147.23 nm  f=0.1854  <S**2>=0.000
      11 -> 17        -0.11513
      12 -> 14        -0.33967
      13 -> 17         0.55120

 Excited State   9:      Singlet-A      8.5978 eV  144.20 nm  f=0.0030  <S**2>=0.000
      12 -> 15        -0.28450
      12 -> 16         0.13663
      13 -> 16         0.16311
      13 -> 18         0.55704
      13 -> 19         0.11954
      13 -> 23        -0.15014

 Excited State  10:      Singlet-A      8.9464 eV  138.59 nm  f=0.0096  <S**2>=0.000
      11 -> 17         0.10250
      12 -> 16         0.59687
      13 -> 18        -0.13266
      13 -> 19         0.20590

 Excited State  11:      Singlet-A      9.0142 eV  137.54 nm  f=0.0163  <S**2>=0.000
       9 -> 15         0.15682
       9 -> 17         0.18343
      10 -> 15         0.18701
      10 -> 17         0.20043
      11 -> 15         0.34270
      11 -> 16         0.11570
      11 -> 17         0.34146
      12 -> 16        -0.16317
      12 -> 17         0.13453
      13 -> 19        -0.10857

 Excited State  12:      Singlet-A      9.1426 eV  135.61 nm  f=0.1388  <S**2>=0.000
       8 -> 15         0.12785
       9 -> 16        -0.21209
      10 -> 15         0.31206
      10 -> 17        -0.11848
      10 -> 19        -0.10390
      11 -> 17        -0.22602
      11 -> 18        -0.15265
      12 -> 17         0.32717
      13 -> 14         0.13147
      13 -> 19        -0.16108
      13 -> 20        -0.11521

 Excited State  13:      Singlet-A      9.1954 eV  134.83 nm  f=0.0662  <S**2>=0.000
       9 -> 16        -0.10125
       9 -> 17         0.10508
      11 -> 15        -0.21054
      11 -> 17         0.18708
      12 -> 16        -0.10819
      12 -> 17         0.25926
      13 -> 19         0.26669
      13 -> 20         0.37952
      13 -> 21         0.10461
      13 -> 22         0.12117

 Excited State  14:      Singlet-A      9.2730 eV  133.70 nm  f=0.0176  <S**2>=0.000
       9 -> 15         0.13200
      10 -> 15         0.31368
      10 -> 16        -0.15399
      10 -> 17        -0.10714
      11 -> 15         0.17291
      11 -> 17        -0.14445
      12 -> 17        -0.28622
      13 -> 19         0.21449
      13 -> 20         0.30665

 Excited State  15:      Singlet-A      9.3688 eV  132.34 nm  f=0.0589  <S**2>=0.000
       9 -> 14         0.12522
      10 -> 15        -0.22765
      10 -> 19         0.15767
      11 -> 15         0.27242
      11 -> 17        -0.20898
      11 -> 18         0.14795
      12 -> 17         0.39216
      13 -> 17        -0.10909
      13 -> 20         0.15214

 The electronic state is 1-A.
 Alpha  occ. eigenvalues --   -1.87119  -1.20915  -0.99891  -0.87592  -0.81171
 Alpha  occ. eigenvalues --   -0.74008  -0.73199  -0.61082  -0.55435  -0.51389
 Alpha  occ. eigenvalues --   -0.50204  -0.47221  -0.40127
 Alpha virt. eigenvalues --    0.03825   0.09518   0.10949   0.11858   0.17420
 Alpha virt. eigenvalues --    0.18381   0.20425   0.21153   0.26579   0.27323
 Alpha virt. eigenvalues --    0.29672

 Mulliken charges:
               1
     1  C   -0.114476
     2  C   -1.297776
     3  O    2.177316
     4  C   -1.304011
     5  C   -0.129537
     6  H    0.121215
     7  H    0.207454
     8  H    0.215651
     9  H    0.124165
 Sum of Mulliken charges =   0.00000

 Dipole moment (field-independent basis, Debye):
    X=             -4.5017    Y=             -4.7219    Z=              0.5336  Tot=              6.5457
 N-N= 1.051389049615D+02 E-N=-1.724802795338D+02  KE=-1.507317032677D+01
 Orbital energies and kinetic energies (alpha):
                                 1                 2
   1         O                -1.871187         -1.293823
   2         O                -1.209151         -0.976980
   3         O                -0.998910         -0.788740
   4         O                -0.875921         -0.649289
   5         O                -0.811709         -0.666084
   6         O                -0.740085         -0.561188
   7         O                -0.731995         -0.564272

 Normal termination of Gaussian 09 at Tue Dec 15 17:05:46 2015.
