 Gaussian 09, Revision D.01,
 Gaussian 09:  ES64L-G09RevD.01 24-Apr-2013

 ------------------------------------------------------------
 #P AM1(Input,print) CIS(Singlets,NStates=15) pop(full) force
 ------------------------------------------------------------

 -----------------
 AM1-Reparam Input
 -----------------
 Symbolic Z-matrix:
 Charge =  0 Multiplicity = 1

                         Standard orientation:
 ---------------------------------------------------------------------
 Center     Atomic      Atomic             Coordinates (Angstroms)
 Number     Number       Type             X           Y           Z
 ---------------------------------------------------------------------
      1          6           0       -0.975310    0.715668   -0.009273
      2          6           0       -0.928919   -0.602198   -0.018064
      3          8           0        0.318882   -1.148367    0.018147
      4          6           0        1.166129   -0.012823   -0.013168
      5          6           0        0.405930    1.103118    0.015270
      6          1           0        0.802026    2.164230   -0.016746
      7          1           0        2.195371   -0.198491   -0.022500
      8          1           0       -1.727105   -1.367089   -0.003242
      9          1           0       -1.828327    1.365698    0.048715
 ---------------------------------------------------------------------

 SCF Done:  E(RAM1) =  -6.07104920646     A.U. after   14 cycles

 Excitation energies and oscillator strengths:

 Excited State   1:      Singlet-A      6.3818 eV  194.28 nm  f=0.0028  <S**2>=0.000
      13 -> 14         0.14435
      13 -> 16         0.68415
 This state for optimization and/or second-order correction.
 Total Energy, E(CIS) =  -5.83652228255
 Copying the excited state density for this state as the 1-particle RhoCI density.

 Excited State   2:      Singlet-A      7.0609 eV  175.59 nm  f=0.2349  <S**2>=0.000
      11 -> 15         0.12165
      13 -> 14         0.63937
      13 -> 15        -0.20737
      13 -> 16        -0.12379

 Excited State   3:      Singlet-A      7.2245 eV  171.62 nm  f=0.1920  <S**2>=0.000
      11 -> 14        -0.14786
      13 -> 14         0.19546
      13 -> 15         0.64374

 Excited State   4:      Singlet-A      8.3589 eV  148.33 nm  f=0.0005  <S**2>=0.000
      12 -> 14         0.56750
      12 -> 15        -0.37924
      13 -> 17         0.13908

 Excited State   5:      Singlet-A      8.5185 eV  145.55 nm  f=0.0003  <S**2>=0.000
      12 -> 14        -0.12477
      13 -> 17         0.66837

 Excited State   6:      Singlet-A      9.2370 eV  134.23 nm  f=0.0032  <S**2>=0.000
      10 -> 14         0.48914
      10 -> 15        -0.43359
      11 -> 14         0.11731
      11 -> 15        -0.12107
      12 -> 14        -0.12813
      12 -> 15        -0.12277

 Excited State   7:      Singlet-A      9.7367 eV  127.34 nm  f=0.0027  <S**2>=0.000
      10 -> 16        -0.14015
      11 -> 14         0.16884
      11 -> 16         0.62786
      13 -> 19        -0.14465

 Excited State   8:      Singlet-A      9.8257 eV  126.18 nm  f=0.0028  <S**2>=0.000
       9 -> 15         0.11301
      10 -> 14         0.17777
      12 -> 14         0.37168
      12 -> 15         0.55110

 Excited State   9:      Singlet-A     10.0717 eV  123.10 nm  f=0.0985  <S**2>=0.000
       9 -> 16         0.15632
      10 -> 14        -0.10543
      11 -> 14         0.43230
      11 -> 15         0.26539
      11 -> 16        -0.16978
      12 -> 16         0.35353

 Excited State  10:      Singlet-A     10.2405 eV  121.07 nm  f=0.0303  <S**2>=0.000
      10 -> 15        -0.11008
      11 -> 15         0.47430
      12 -> 16        -0.41971
      13 -> 18        -0.20092

 Excited State  11:      Singlet-A     10.2795 eV  120.61 nm  f=0.0122  <S**2>=0.000
      11 -> 15         0.18990
      11 -> 16        -0.10129
      11 -> 17         0.13303
      13 -> 18         0.59628
      13 -> 20        -0.17861

 Excited State  12:      Singlet-A     10.6540 eV  116.37 nm  f=0.2326  <S**2>=0.000
      10 -> 14        -0.12344
      11 -> 14         0.36481
      11 -> 15        -0.19318
      12 -> 16        -0.32797
      13 -> 15         0.11311
      13 -> 19         0.23741
      13 -> 20         0.20054
      13 -> 21        -0.17005

 Excited State  13:      Singlet-A     10.6791 eV  116.10 nm  f=0.1069  <S**2>=0.000
      11 -> 14        -0.23565
      11 -> 15         0.10483
      11 -> 16         0.15992
      12 -> 16         0.19888
      13 -> 19         0.35065
      13 -> 20         0.31553
      13 -> 21        -0.27120
      13 -> 22        -0.15531

 Excited State  14:      Singlet-A     10.8770 eV  113.99 nm  f=0.0007  <S**2>=0.000
       8 -> 14        -0.13906
       9 -> 15        -0.13877
      10 -> 14         0.38924
      10 -> 15         0.48830
      10 -> 16         0.10741
      11 -> 14         0.14006
      11 -> 15         0.12263

 Excited State  15:      Singlet-A     11.0008 eV  112.70 nm  f=0.0029  <S**2>=0.000
      13 -> 18        -0.10604
      13 -> 19         0.50965
      13 -> 20        -0.33668
      13 -> 21         0.18773
      13 -> 22         0.11300
      13 -> 23        -0.15000

 The electronic state is 1-A.
 Alpha  occ. eigenvalues --   -4.08974  -1.31671  -0.97037  -0.94587  -0.88957
 Alpha  occ. eigenvalues --   -0.87442  -0.78498  -0.62270  -0.60028  -0.51685
 Alpha  occ. eigenvalues --   -0.51094  -0.48739  -0.37189
 Alpha virt. eigenvalues --    0.10445   0.10956   0.12277   0.19014   0.24996
 Alpha virt. eigenvalues --    0.27732   0.28417   0.30453   0.33586   0.36527
 Alpha virt. eigenvalues --    0.37150

 Mulliken charges:
               1
     1  C   -0.194286
     2  C   -1.303611
     3  O    2.403688
     4  C   -1.311131
     5  C   -0.163672
     6  H    0.120354
     7  H    0.160044
     8  H    0.171534
     9  H    0.117081
 Sum of Mulliken charges =   0.00000

 Dipole moment (field-independent basis, Debye):
    X=              2.0695    Y=             -8.9769    Z=              0.3650  Tot=              9.2196
 N-N= 1.046855073506D+02 E-N=-1.716277717028D+02  KE=-2.392190346195D+01
 Orbital energies and kinetic energies (alpha):
                                 1                 2
   1         O                -4.089738         -3.447735
   2         O                -1.316713         -1.243989
   3         O                -0.970375         -0.933765
   4         O                -0.945870         -0.974793
   5         O                -0.889568         -0.790991
   6         O                -0.874421         -0.816480
   7         O                -0.784980         -0.753870

 Normal termination of Gaussian 09 at Fri Dec 11 13:41:17 2015.
