 Gaussian 09, Revision D.01,
 Gaussian 09:  ES64L-G09RevD.01 24-Apr-2013

 ------------------------------------------------------------
 #P AM1(Input,print) CIS(Singlets,NStates=15) pop(full) force
 ------------------------------------------------------------

 -----------------
 AM1-Reparam Input
 -----------------
 Symbolic Z-matrix:
 Charge =  0 Multiplicity = 1

                         Standard orientation:
 ---------------------------------------------------------------------
 Center     Atomic      Atomic             Coordinates (Angstroms)
 Number     Number       Type             X           Y           Z
 ---------------------------------------------------------------------
      1          6           0        0.840675    0.877418   -0.029393
      2          6           0        1.038816   -0.456998    0.034124
      3          8           0       -0.116515   -1.147392   -0.019207
      4          6           0       -1.156456   -0.208652   -0.009037
      5          6           0       -0.596202    1.016042    0.020733
      6          1           0       -1.148709    1.900270    0.001793
      7          1           0       -2.129475   -0.596731    0.043148
      8          1           0        1.885026   -1.071493    0.022402
      9          1           0        1.564279    1.580225   -0.012250
 ---------------------------------------------------------------------

 SCF Done:  E(RAM1) =   2.72374877752     A.U. after   14 cycles

 Excitation energies and oscillator strengths:

 Excited State   1:      Singlet-A      5.2183 eV  237.59 nm  f=0.3531  <S**2>=0.000
      13 -> 14         0.69492
 This state for optimization and/or second-order correction.
 Total Energy, E(CIS) =   2.91551870042
 Copying the excited state density for this state as the 1-particle RhoCI density.

 Excited State   2:      Singlet-A      5.9223 eV  209.35 nm  f=0.0011  <S**2>=0.000
      11 -> 15         0.11564
      13 -> 15         0.66692
      13 -> 17         0.15799

 Excited State   3:      Singlet-A      6.4069 eV  193.52 nm  f=0.0017  <S**2>=0.000
      11 -> 16        -0.11751
      13 -> 16         0.65374
      13 -> 17         0.14087
      13 -> 18         0.14069

 Excited State   4:      Singlet-A      6.8144 eV  181.95 nm  f=0.0007  <S**2>=0.000
       9 -> 14        -0.11682
      12 -> 14         0.69066

 Excited State   5:      Singlet-A      7.5479 eV  164.26 nm  f=0.0076  <S**2>=0.000
      13 -> 15        -0.14098
      13 -> 17         0.46073
      13 -> 18        -0.40304
      13 -> 20        -0.14192
      13 -> 21         0.24354

 Excited State   6:      Singlet-A      7.8175 eV  158.60 nm  f=0.0139  <S**2>=0.000
      10 -> 14         0.17469
      11 -> 16         0.10370
      13 -> 16        -0.15918
      13 -> 17         0.44014
      13 -> 18         0.39276
      13 -> 19        -0.13131
      13 -> 20         0.16613
      13 -> 21        -0.17029

 Excited State   7:      Singlet-A      8.0177 eV  154.64 nm  f=0.0018  <S**2>=0.000
      10 -> 14         0.65732
      11 -> 14        -0.13588
      13 -> 17        -0.18375

 Excited State   8:      Singlet-A      8.4514 eV  146.70 nm  f=0.0003  <S**2>=0.000
      13 -> 16        -0.10973
      13 -> 18         0.10537
      13 -> 19         0.67076

 Excited State   9:      Singlet-A      8.8102 eV  140.73 nm  f=0.0727  <S**2>=0.000
      10 -> 14         0.13299
      11 -> 14         0.64363
      12 -> 15         0.11533
      12 -> 16         0.10520

 Excited State  10:      Singlet-A      9.0727 eV  136.66 nm  f=0.0400  <S**2>=0.000
       8 -> 15         0.15527
       8 -> 16         0.10021
      10 -> 16         0.11522
      10 -> 17         0.18238
      12 -> 15         0.50224
      12 -> 16        -0.18784
      12 -> 17         0.12065
      12 -> 18        -0.22542

 Excited State  11:      Singlet-A      9.1034 eV  136.20 nm  f=0.0014  <S**2>=0.000
      13 -> 18         0.37230
      13 -> 20        -0.30488
      13 -> 21         0.49974

 Excited State  12:      Singlet-A      9.5137 eV  130.32 nm  f=0.1859  <S**2>=0.000
      10 -> 15         0.22536
      10 -> 16         0.14023
      10 -> 17         0.19987
      11 -> 14         0.13394
      12 -> 15        -0.27664
      12 -> 16         0.12202
      12 -> 18        -0.19584
      12 -> 19         0.16743
      13 -> 20         0.32337
      13 -> 21         0.20102

 Excited State  13:      Singlet-A      9.5931 eV  129.24 nm  f=0.1289  <S**2>=0.000
      10 -> 15        -0.15346
      10 -> 16        -0.12616
      10 -> 17        -0.15533
      12 -> 15         0.10997
      12 -> 18         0.14530
      12 -> 19        -0.11614
      13 -> 20         0.48473
      13 -> 21         0.31299

 Excited State  14:      Singlet-A      9.6168 eV  128.92 nm  f=0.0784  <S**2>=0.000
      10 -> 15        -0.13353
      10 -> 16         0.11257
      11 -> 14        -0.12834
      12 -> 15         0.20070
      12 -> 16         0.58715
      12 -> 17         0.14688

 Excited State  15:      Singlet-A      9.8037 eV  126.47 nm  f=0.0032  <S**2>=0.000
       7 -> 15        -0.14939
      10 -> 15         0.23087
      11 -> 15         0.59077
      13 -> 15        -0.14056

 The electronic state is 1-A.
 Alpha  occ. eigenvalues --   -1.76037  -1.13702  -0.94353  -0.80348  -0.75079
 Alpha  occ. eigenvalues --   -0.66444  -0.63140  -0.54318  -0.49625  -0.43693
 Alpha  occ. eigenvalues --   -0.43265  -0.39631  -0.27316
 Alpha virt. eigenvalues --    0.12244   0.17129   0.19217   0.25307   0.28261
 Alpha virt. eigenvalues --    0.28875   0.31519   0.31811   0.46415   0.55308
 Alpha virt. eigenvalues --    0.59399

 Mulliken charges:
               1
     1  C   -0.096396
     2  C   -1.991027
     3  O    3.344292
     4  C   -1.976522
     5  C   -0.044086
     6  H    0.120095
     7  H    0.259041
     8  H    0.259972
     9  H    0.124631
 Sum of Mulliken charges =   0.00000

 Dipole moment (field-independent basis, Debye):
    X=             -0.8965    Y=            -11.2430    Z=             -0.3626  Tot=             11.2845
 N-N= 1.038807530989D+02 E-N=-1.688655144541D+02  KE=-1.490952667618D+01
 Orbital energies and kinetic energies (alpha):
                                 1                 2
   1         O                -1.760366         -1.248505
   2         O                -1.137017         -1.003408
   3         O                -0.943527         -0.870519
   4         O                -0.803479         -0.601277
   5         O                -0.750785         -0.683227
   6         O                -0.664438         -0.560997
   7         O                -0.631399         -0.519851

 Normal termination of Gaussian 09 at Tue Dec 15 17:05:24 2015.
