 Gaussian 09, Revision D.01,
 Gaussian 09:  ES64L-G09RevD.01 24-Apr-2013

 ------------------------------------------------------------
 #P AM1(Input,print) CIS(Singlets,NStates=15) pop(full) force
 ------------------------------------------------------------

 -----------------
 AM1-Reparam Input
 -----------------
 Symbolic Z-matrix:
 Charge =  0 Multiplicity = 1

                         Standard orientation:
 ---------------------------------------------------------------------
 Center     Atomic      Atomic             Coordinates (Angstroms)
 Number     Number       Type             X           Y           Z
 ---------------------------------------------------------------------
      1          6           0       -0.357273    1.107183    0.008426
      2          6           0       -1.134583   -0.015534   -0.019840
      3          8           0       -0.369875   -1.079863    0.012951
      4          6           0        0.918742   -0.623146   -0.030174
      5          6           0        0.961139    0.656778    0.000726
      6          1           0        1.851394    1.255369    0.024804
      7          1           0        1.690044   -1.408432    0.072972
      8          1           0       -2.200424   -0.150930    0.036690
      9          1           0       -0.710163    2.191213    0.007102
 ---------------------------------------------------------------------

 SCF Done:  E(RAM1) =   2.61677992097     A.U. after   14 cycles

 Excitation energies and oscillator strengths:

 Excited State   1:      Singlet-A      5.1669 eV  239.96 nm  f=0.3423  <S**2>=0.000
      13 -> 14         0.69829
 This state for optimization and/or second-order correction.
 Total Energy, E(CIS) =   2.80666133737
 Copying the excited state density for this state as the 1-particle RhoCI density.

 Excited State   2:      Singlet-A      6.1305 eV  202.24 nm  f=0.0002  <S**2>=0.000
      10 -> 16        -0.10021
      13 -> 15         0.67222
      13 -> 17         0.10976
      13 -> 19        -0.13950

 Excited State   3:      Singlet-A      6.4157 eV  193.25 nm  f=0.0035  <S**2>=0.000
      10 -> 15        -0.11016
      13 -> 16         0.68093
      13 -> 18        -0.11527

 Excited State   4:      Singlet-A      6.6166 eV  187.38 nm  f=0.0001  <S**2>=0.000
      12 -> 14         0.69863

 Excited State   5:      Singlet-A      7.3572 eV  168.52 nm  f=0.0046  <S**2>=0.000
      11 -> 14         0.69922

 Excited State   6:      Singlet-A      7.7883 eV  159.19 nm  f=0.0001  <S**2>=0.000
      13 -> 15        -0.11060
      13 -> 17         0.67642
      13 -> 21        -0.11783

 Excited State   7:      Singlet-A      8.6296 eV  143.67 nm  f=0.1025  <S**2>=0.000
      10 -> 14         0.68142

 Excited State   8:      Singlet-A      9.0841 eV  136.48 nm  f=0.0049  <S**2>=0.000
      10 -> 15        -0.29636
      13 -> 18         0.62033

 Excited State   9:      Singlet-A      9.1594 eV  135.36 nm  f=0.0432  <S**2>=0.000
       8 -> 16         0.13524
      10 -> 14         0.12767
      11 -> 16        -0.17393
      11 -> 18         0.16353
      12 -> 15         0.52540
      12 -> 17         0.29228

 Excited State  10:      Singlet-A      9.4337 eV  131.43 nm  f=0.0031  <S**2>=0.000
      10 -> 16        -0.25666
      13 -> 19         0.62911

 Excited State  11:      Singlet-A      9.5150 eV  130.30 nm  f=0.3164  <S**2>=0.000
       9 -> 15        -0.10936
      11 -> 16         0.44295
      11 -> 18        -0.19687
      12 -> 15         0.37142
      12 -> 17        -0.26943

 Excited State  12:      Singlet-A      9.6317 eV  128.73 nm  f=0.0088  <S**2>=0.000
      11 -> 15         0.41753
      11 -> 19        -0.13774
      12 -> 16         0.51960
      12 -> 18        -0.12073

 Excited State  13:      Singlet-A     10.0721 eV  123.10 nm  f=0.0018  <S**2>=0.000
      10 -> 15         0.50681
      10 -> 16         0.31983
      13 -> 15         0.10316
      13 -> 16         0.11361
      13 -> 18         0.26635
      13 -> 19         0.13015

 Excited State  14:      Singlet-A     10.1876 eV  121.70 nm  f=0.0172  <S**2>=0.000
       8 -> 15        -0.23403
       8 -> 16         0.10321
       9 -> 16        -0.18194
      10 -> 16         0.10266
      11 -> 15         0.34353
      11 -> 16        -0.12508
      11 -> 17        -0.21413
      11 -> 19        -0.17462
      12 -> 16        -0.32709
      12 -> 17        -0.11547

 Excited State  15:      Singlet-A     10.3087 eV  120.27 nm  f=0.0015  <S**2>=0.000
      10 -> 15        -0.32064
      10 -> 16         0.50718
      13 -> 15         0.11790
      13 -> 18        -0.11224
      13 -> 19         0.20738

 The electronic state is 1-A.
 Alpha  occ. eigenvalues --   -1.86246  -1.14954  -0.88605  -0.79896  -0.74895
 Alpha  occ. eigenvalues --   -0.66888  -0.64472  -0.55437  -0.54485  -0.45074
 Alpha  occ. eigenvalues --   -0.43851  -0.42009  -0.29882
 Alpha virt. eigenvalues --    0.09649   0.16291   0.17095   0.25088   0.27428
 Alpha virt. eigenvalues --    0.29713   0.35880   0.41197   0.49882   0.57574
 Alpha virt. eigenvalues --    0.61462

 Mulliken charges:
               1
     1  C   -0.237039
     2  C   -2.021849
     3  O    3.426139
     4  C   -1.970291
     5  C   -0.158313
     6  H    0.193299
     7  H    0.279143
     8  H    0.286155
     9  H    0.202756
 Sum of Mulliken charges =   0.00000

 Dipole moment (field-independent basis, Debye):
    X=             -3.3491    Y=            -10.6173    Z=              0.8370  Tot=             11.1644
 N-N= 1.048530349770D+02 E-N=-1.711241135253D+02  KE=-1.441453899657D+01
 Orbital energies and kinetic energies (alpha):
                                 1                 2
   1         O                -1.862461         -1.280890
   2         O                -1.149536         -0.981954
   3         O                -0.886051         -0.800837
   4         O                -0.798960         -0.526322
   5         O                -0.748948         -0.626766
   6         O                -0.668876         -0.533785
   7         O                -0.644721         -0.508966

 Normal termination of Gaussian 09 at Tue Dec 15 17:07:49 2015.
