 Gaussian 09, Revision D.01,
 Gaussian 09:  ES64L-G09RevD.01 24-Apr-2013

 ------------------------------------------------------------
 #P AM1(Input,print) CIS(Singlets,NStates=15) pop(full) force
 ------------------------------------------------------------

 -----------------
 AM1-Reparam Input
 -----------------
 Symbolic Z-matrix:
 Charge =  0 Multiplicity = 1

                         Standard orientation:
 ---------------------------------------------------------------------
 Center     Atomic      Atomic             Coordinates (Angstroms)
 Number     Number       Type             X           Y           Z
 ---------------------------------------------------------------------
      1          6           0       -0.197900    1.156390    0.043568
      2          6           0       -1.108520    0.162563   -0.029677
      3          8           0       -0.565897   -1.014703   -0.009038
      4          6           0        0.806026   -0.773399    0.040957
      5          6           0        1.094403    0.493035   -0.035791
      6          1           0        2.056486    1.014981   -0.046533
      7          1           0        1.469283   -1.654014   -0.007324
      8          1           0       -2.224715    0.233390    0.020765
      9          1           0       -0.337938    2.291729   -0.008945
 ---------------------------------------------------------------------

 SCF Done:  E(RAM1) =   1.86716254650     A.U. after   14 cycles

 Excitation energies and oscillator strengths:

 Excited State   1:      Singlet-A      5.4870 eV  225.96 nm  f=0.3301  <S**2>=0.000
      13 -> 14         0.69325
 This state for optimization and/or second-order correction.
 Total Energy, E(CIS) =   2.06880641503
 Copying the excited state density for this state as the 1-particle RhoCI density.

 Excited State   2:      Singlet-A      5.9199 eV  209.44 nm  f=0.0014  <S**2>=0.000
      10 -> 15        -0.10141
      13 -> 15         0.67772

 Excited State   3:      Singlet-A      6.3826 eV  194.25 nm  f=0.0009  <S**2>=0.000
      10 -> 16         0.11089
      12 -> 14         0.12921
      13 -> 16         0.66101
      13 -> 17        -0.11499

 Excited State   4:      Singlet-A      6.4415 eV  192.48 nm  f=0.0002  <S**2>=0.000
      12 -> 14         0.69011
      13 -> 16        -0.12451

 Excited State   5:      Singlet-A      7.7582 eV  159.81 nm  f=0.0082  <S**2>=0.000
      11 -> 14         0.50013
      13 -> 17         0.43061
      13 -> 18         0.18859

 Excited State   6:      Singlet-A      7.8030 eV  158.89 nm  f=0.0020  <S**2>=0.000
      11 -> 14        -0.23298
      13 -> 18         0.58643
      13 -> 19        -0.11225
      13 -> 20         0.11387
      13 -> 21        -0.22707

 Excited State   7:      Singlet-A      7.9582 eV  155.79 nm  f=0.0071  <S**2>=0.000
      11 -> 14        -0.42618
      13 -> 17         0.52410
      13 -> 19         0.10167

 Excited State   8:      Singlet-A      8.5387 eV  145.20 nm  f=0.0957  <S**2>=0.000
       8 -> 16         0.10886
      11 -> 17        -0.15210
      12 -> 15         0.49669
      12 -> 16        -0.30086
      12 -> 18         0.25195

 Excited State   9:      Singlet-A      8.7433 eV  141.80 nm  f=0.0013  <S**2>=0.000
      13 -> 18         0.17978
      13 -> 19         0.63588
      13 -> 20        -0.14190

 Excited State  10:      Singlet-A      8.8385 eV  140.28 nm  f=0.0066  <S**2>=0.000
       8 -> 16        -0.10518
      10 -> 14         0.44807
      11 -> 15        -0.10286
      11 -> 18        -0.11169
      12 -> 15         0.32661
      12 -> 16         0.30178
      13 -> 19         0.11620

 Excited State  11:      Singlet-A      9.2119 eV  134.59 nm  f=0.0410  <S**2>=0.000
       9 -> 15         0.14240
      10 -> 14         0.32313
      11 -> 15         0.22921
      11 -> 17        -0.13583
      12 -> 15        -0.23193
      12 -> 16        -0.11192
      12 -> 17         0.20524
      12 -> 18         0.15122
      13 -> 18        -0.10735
      13 -> 19         0.11053
      13 -> 20         0.27988
      13 -> 21        -0.19424

 Excited State  12:      Singlet-A      9.2978 eV  133.35 nm  f=0.0516  <S**2>=0.000
      10 -> 14        -0.22391
      11 -> 15        -0.14809
      12 -> 15         0.12273
      12 -> 16         0.17809
      12 -> 17        -0.10260
      13 -> 18        -0.16968
      13 -> 19         0.13811
      13 -> 20         0.42085
      13 -> 21        -0.32701

 Excited State  13:      Singlet-A      9.4374 eV  131.38 nm  f=0.1809  <S**2>=0.000
       8 -> 16        -0.11317
      10 -> 14        -0.21711
      11 -> 15         0.17343
      11 -> 16         0.15774
      11 -> 17        -0.19956
      12 -> 16         0.43622
      12 -> 18         0.28568
      13 -> 21         0.10470

 Excited State  14:      Singlet-A      9.6257 eV  128.81 nm  f=0.0381  <S**2>=0.000
      10 -> 15         0.52453
      11 -> 15        -0.16617
      12 -> 18         0.15585
      13 -> 20        -0.22992
      13 -> 21        -0.23357

 Excited State  15:      Singlet-A      9.7388 eV  127.31 nm  f=0.0853  <S**2>=0.000
       8 -> 15        -0.13203
       9 -> 15        -0.18562
      10 -> 14         0.16538
      11 -> 15        -0.28796
      11 -> 19         0.16131
      12 -> 15        -0.11959
      12 -> 17        -0.14529
      12 -> 18         0.22546
      13 -> 20         0.25689
      13 -> 21         0.32377

 The electronic state is 1-A.
 Alpha  occ. eigenvalues --   -1.95168  -1.21790  -0.97863  -0.80555  -0.79528
 Alpha  occ. eigenvalues --   -0.69571  -0.66350  -0.50992  -0.48440  -0.42334
 Alpha  occ. eigenvalues --   -0.40764  -0.36324  -0.26306
 Alpha virt. eigenvalues --    0.14460   0.17507   0.19937   0.27221   0.28111
 Alpha virt. eigenvalues --    0.31107   0.32708   0.35907   0.37476   0.46482
 Alpha virt. eigenvalues --    0.50609

 Mulliken charges:
               1
     1  C   -0.175881
     2  C   -1.927358
     3  O    3.118953
     4  C   -1.888498
     5  C   -0.034657
     6  H    0.138587
     7  H    0.297640
     8  H    0.321049
     9  H    0.150165
 Sum of Mulliken charges =   0.00000

 Dipole moment (field-independent basis, Debye):
    X=             -5.1561    Y=             -9.1392    Z=             -0.2749  Tot=             10.4970
 N-N= 1.043996523043D+02 E-N=-1.702814170703D+02  KE=-1.566388601223D+01
 Orbital energies and kinetic energies (alpha):
                                 1                 2
   1         O                -1.951681         -1.433695
   2         O                -1.217898         -1.086509
   3         O                -0.978626         -0.907230
   4         O                -0.805546         -0.606731
   5         O                -0.795281         -0.694745
   6         O                -0.695711         -0.579639
   7         O                -0.663503         -0.564912

 Normal termination of Gaussian 09 at Tue Dec 15 17:10:04 2015.
