 Gaussian 09, Revision D.01,
 Gaussian 09:  ES64L-G09RevD.01 24-Apr-2013

 ------------------------------------------------------------
 #P AM1(Input,print) CIS(Singlets,NStates=15) pop(full) force
 ------------------------------------------------------------

 -----------------
 AM1-Reparam Input
 -----------------
 Symbolic Z-matrix:
 Charge =  0 Multiplicity = 1

                         Standard orientation:
 ---------------------------------------------------------------------
 Center     Atomic      Atomic             Coordinates (Angstroms)
 Number     Number       Type             X           Y           Z
 ---------------------------------------------------------------------
      1          6           0        0.269649    1.157506   -0.027083
      2          6           0        1.157473    0.128801    0.036511
      3          8           0        0.480125   -1.103581   -0.017696
      4          6           0       -0.879646   -0.711124    0.014942
      5          6           0       -1.066506    0.611417   -0.011165
      6          1           0       -1.941303    1.097651    0.039832
      7          1           0       -1.572960   -1.579756    0.011849
      8          1           0        2.206221    0.002054   -0.027439
      9          1           0        0.581217    2.189097    0.038100
 ---------------------------------------------------------------------

 SCF Done:  E(RAM1) =   2.57869684609     A.U. after   14 cycles

 Excitation energies and oscillator strengths:

 Excited State   1:      Singlet-A      5.2298 eV  237.07 nm  f=0.3419  <S**2>=0.000
      13 -> 14         0.69532
 This state for optimization and/or second-order correction.
 Total Energy, E(CIS) =   2.77088990294
 Copying the excited state density for this state as the 1-particle RhoCI density.

 Excited State   2:      Singlet-A      6.0833 eV  203.81 nm  f=0.0004  <S**2>=0.000
      11 -> 15         0.11459
      13 -> 15         0.67320
      13 -> 17         0.10080

 Excited State   3:      Singlet-A      6.3653 eV  194.78 nm  f=0.0010  <S**2>=0.000
      11 -> 16        -0.10858
      13 -> 16         0.66328
      13 -> 17         0.15158
      13 -> 18        -0.12121

 Excited State   4:      Singlet-A      6.8988 eV  179.72 nm  f=0.0012  <S**2>=0.000
      12 -> 14         0.69739

 Excited State   5:      Singlet-A      7.7829 eV  159.30 nm  f=0.0069  <S**2>=0.000
      10 -> 14        -0.15948
      13 -> 15        -0.11289
      13 -> 17         0.41758
      13 -> 18         0.45277
      13 -> 20        -0.13941
      13 -> 21         0.21435

 Excited State   6:      Singlet-A      7.9356 eV  156.24 nm  f=0.0073  <S**2>=0.000
      10 -> 14         0.57206
      11 -> 14         0.24499
      13 -> 17        -0.11032
      13 -> 18         0.26207
      13 -> 20        -0.10352

 Excited State   7:      Singlet-A      8.1226 eV  152.64 nm  f=0.0064  <S**2>=0.000
      10 -> 14         0.24762
      11 -> 14         0.12303
      11 -> 16         0.10418
      13 -> 16        -0.14377
      13 -> 17         0.51777
      13 -> 18        -0.30862
      13 -> 21        -0.11070

 Excited State   8:      Singlet-A      8.7427 eV  141.81 nm  f=0.0033  <S**2>=0.000
      11 -> 14         0.11358
      13 -> 19         0.67290

 Excited State   9:      Singlet-A      8.7775 eV  141.25 nm  f=0.0840  <S**2>=0.000
      10 -> 14        -0.26770
      11 -> 14         0.60400
      12 -> 15         0.12383
      13 -> 19        -0.12538

 Excited State  10:      Singlet-A      9.2684 eV  133.77 nm  f=0.0946  <S**2>=0.000
       8 -> 15         0.14286
       8 -> 16         0.13180
       9 -> 15         0.10168
      10 -> 17        -0.14167
      12 -> 15         0.51188
      12 -> 16        -0.22406
      12 -> 18         0.21193

 Excited State  11:      Singlet-A      9.4817 eV  130.76 nm  f=0.0144  <S**2>=0.000
      13 -> 18         0.30203
      13 -> 20         0.45249
      13 -> 21        -0.41143

 Excited State  12:      Singlet-A      9.7710 eV  126.89 nm  f=0.0913  <S**2>=0.000
       9 -> 16        -0.12593
      10 -> 16        -0.17028
      10 -> 17        -0.10431
      11 -> 16        -0.23105
      12 -> 16         0.54101
      12 -> 17         0.20560

 Excited State  13:      Singlet-A      9.8267 eV  126.17 nm  f=0.0974  <S**2>=0.000
      10 -> 15         0.11525
      10 -> 17         0.16180
      11 -> 15         0.40692
      11 -> 16         0.15497
      11 -> 17         0.10219
      12 -> 15         0.26423
      12 -> 16         0.20384
      12 -> 18        -0.20804
      12 -> 19         0.10253

 Excited State  14:      Singlet-A      9.9113 eV  125.09 nm  f=0.0639  <S**2>=0.000
      10 -> 15        -0.14757
      11 -> 15         0.40339
      12 -> 15        -0.11190
      12 -> 16        -0.10549
      13 -> 20         0.28316
      13 -> 21         0.38157

 Excited State  15:      Singlet-A      9.9438 eV  124.68 nm  f=0.0942  <S**2>=0.000
      10 -> 15         0.17620
      10 -> 16         0.18031
      10 -> 17         0.13768
      11 -> 15        -0.26797
      11 -> 16        -0.12796
      12 -> 15         0.14541
      12 -> 17        -0.12401
      12 -> 18        -0.14446
      13 -> 20         0.37487
      13 -> 21         0.26600

 The electronic state is 1-A.
 Alpha  occ. eigenvalues --   -1.70755  -1.15558  -0.93932  -0.80202  -0.76141
 Alpha  occ. eigenvalues --   -0.67249  -0.62523  -0.53054  -0.50285  -0.43319
 Alpha  occ. eigenvalues --   -0.42603  -0.39674  -0.27052
 Alpha virt. eigenvalues --    0.12608   0.17769   0.19010   0.26879   0.29147
 Alpha virt. eigenvalues --    0.30423   0.32902   0.34084   0.36308   0.46256
 Alpha virt. eigenvalues --    0.49408

 Mulliken charges:
               1
     1  C   -0.089263
     2  C   -1.883039
     3  O    3.216537
     4  C   -1.886689
     5  C   -0.048724
     6  H    0.109204
     7  H    0.238194
     8  H    0.229870
     9  H    0.113912
 Sum of Mulliken charges =   0.00000

 Dipole moment (field-independent basis, Debye):
    X=              4.4389    Y=            -11.0607    Z=             -0.6447  Tot=             11.9356
 N-N= 1.031573177617D+02 E-N=-1.677167439751D+02  KE=-1.499352970693D+01
 Orbital energies and kinetic energies (alpha):
                                 1                 2
   1         O                -1.707550         -1.181149
   2         O                -1.155583         -1.026523
   3         O                -0.939321         -0.876559
   4         O                -0.802023         -0.615712
   5         O                -0.761415         -0.671806
   6         O                -0.672486         -0.574473
   7         O                -0.625230         -0.518155

 Normal termination of Gaussian 09 at Tue Dec 15 17:06:18 2015.
