 Gaussian 09, Revision D.01,
 Gaussian 09:  ES64L-G09RevD.01 24-Apr-2013

 ------------------------------------------------------------
 #P AM1(Input,print) CIS(Singlets,NStates=15) pop(full) force
 ------------------------------------------------------------

 -----------------
 AM1-Reparam Input
 -----------------
 Symbolic Z-matrix:
 Charge =  0 Multiplicity = 1

                         Standard orientation:
 ---------------------------------------------------------------------
 Center     Atomic      Atomic             Coordinates (Angstroms)
 Number     Number       Type             X           Y           Z
 ---------------------------------------------------------------------
      1          6           0        0.476524    1.086467    0.033147
      2          6           0        1.157561   -0.080477   -0.016795
      3          8           0        0.259620   -1.161541   -0.013717
      4          6           0       -0.983331   -0.547575    0.051192
      5          6           0       -0.933816    0.784504   -0.032855
      6          1           0       -1.724804    1.440999   -0.075685
      7          1           0       -1.811747   -1.292232   -0.027602
      8          1           0        2.184792   -0.385207   -0.014027
      9          1           0        0.973178    2.071253    0.018917
 ---------------------------------------------------------------------

 SCF Done:  E(RAM1) =   1.42485796007     A.U. after   13 cycles

 Excitation energies and oscillator strengths:

 Excited State   1:      Singlet-A      5.8099 eV  213.40 nm  f=0.2598  <S**2>=0.000
      13 -> 14         0.65764
      13 -> 15        -0.20632
 This state for optimization and/or second-order correction.
 Total Energy, E(CIS) =   1.63836705559
 Copying the excited state density for this state as the 1-particle RhoCI density.

 Excited State   2:      Singlet-A      5.8975 eV  210.23 nm  f=0.0354  <S**2>=0.000
      12 -> 15         0.11193
      13 -> 14         0.21307
      13 -> 15         0.64395

 Excited State   3:      Singlet-A      6.3660 eV  194.76 nm  f=0.0011  <S**2>=0.000
      12 -> 16        -0.11901
      13 -> 16         0.66254
      13 -> 18        -0.10034
      13 -> 21        -0.10965

 Excited State   4:      Singlet-A      7.4361 eV  166.73 nm  f=0.0007  <S**2>=0.000
      11 -> 14         0.57842
      12 -> 14        -0.36763

 Excited State   5:      Singlet-A      7.5319 eV  164.61 nm  f=0.0130  <S**2>=0.000
      13 -> 15         0.10460
      13 -> 18         0.66334
      13 -> 22        -0.12159

 Excited State   6:      Singlet-A      7.9316 eV  156.32 nm  f=0.0036  <S**2>=0.000
      12 -> 14         0.21584
      13 -> 17        -0.36798
      13 -> 19         0.28190
      13 -> 20         0.19089
      13 -> 22         0.39533

 Excited State   7:      Singlet-A      8.0130 eV  154.73 nm  f=0.0075  <S**2>=0.000
      11 -> 14        -0.23774
      12 -> 14        -0.23214
      13 -> 17         0.44220
      13 -> 19         0.24123
      13 -> 20         0.11853
      13 -> 22         0.30116

 Excited State   8:      Singlet-A      8.4575 eV  146.60 nm  f=0.0116  <S**2>=0.000
      10 -> 14         0.66792
      11 -> 14        -0.10832
      13 -> 17        -0.10060

 Excited State   9:      Singlet-A      8.5176 eV  145.56 nm  f=0.0042  <S**2>=0.000
      12 -> 15         0.15919
      13 -> 19         0.44329
      13 -> 20        -0.40667
      13 -> 21        -0.29122

 Excited State  10:      Singlet-A      8.7284 eV  142.05 nm  f=0.0046  <S**2>=0.000
      12 -> 14         0.12206
      13 -> 19        -0.35634
      13 -> 20        -0.22390
      13 -> 21        -0.35093
      13 -> 22         0.39318

 Excited State  11:      Singlet-A      8.9351 eV  138.76 nm  f=0.0298  <S**2>=0.000
      12 -> 15         0.47578
      12 -> 16        -0.15147
      13 -> 19        -0.10014
      13 -> 20        -0.16775
      13 -> 21         0.31741
      13 -> 22         0.20337
      13 -> 23        -0.12063

 Excited State  12:      Singlet-A      8.9712 eV  138.20 nm  f=0.1715  <S**2>=0.000
      10 -> 14         0.11908
      11 -> 14         0.23842
      11 -> 15        -0.12957
      12 -> 14         0.39909
      12 -> 15        -0.22467
      12 -> 16        -0.11179
      13 -> 17         0.29428
      13 -> 19         0.10631
      13 -> 20        -0.12970
      13 -> 21         0.17725

 Excited State  13:      Singlet-A      9.0724 eV  136.66 nm  f=0.0804  <S**2>=0.000
      10 -> 14         0.11249
      11 -> 14         0.13480
      12 -> 14         0.22773
      12 -> 15         0.29970
      12 -> 16         0.22556
      13 -> 17         0.20519
      13 -> 20         0.34528
      13 -> 21        -0.25131
      13 -> 23         0.10775

 Excited State  14:      Singlet-A      9.4208 eV  131.61 nm  f=0.0917  <S**2>=0.000
       8 -> 15         0.10173
       9 -> 15         0.14251
      11 -> 15         0.27893
      12 -> 15        -0.12181
      12 -> 16         0.48356
      13 -> 16         0.12450
      13 -> 20        -0.15333
      13 -> 21         0.20869
      13 -> 22         0.10533

 Excited State  15:      Singlet-A      9.4749 eV  130.86 nm  f=0.0933  <S**2>=0.000
       8 -> 15         0.12265
       9 -> 15         0.19408
      11 -> 15         0.41966
      11 -> 16        -0.29631
      12 -> 16        -0.26728
      13 -> 20         0.10447
      13 -> 21        -0.13048

 The electronic state is 1-A.
 Alpha  occ. eigenvalues --   -1.87502  -1.18777  -0.94801  -0.78465  -0.77030
 Alpha  occ. eigenvalues --   -0.67242  -0.60695  -0.48678  -0.47662  -0.40235
 Alpha  occ. eigenvalues --   -0.37235  -0.36152  -0.23447
 Alpha virt. eigenvalues --    0.18168   0.20836   0.22796   0.28442   0.29546
 Alpha virt. eigenvalues --    0.31966   0.34169   0.34740   0.36191   0.39685
 Alpha virt. eigenvalues --    0.43903

 Mulliken charges:
               1
     1  C   -0.061638
     2  C   -1.505095
     3  O    2.744894
     4  C   -1.497638
     5  C   -0.068113
     6  H    0.061147
     7  H    0.132918
     8  H    0.137755
     9  H    0.055770
 Sum of Mulliken charges =   0.00000

 Dipole moment (field-independent basis, Debye):
    X=              2.0387    Y=            -10.1034    Z=             -0.4708  Tot=             10.3178
 N-N= 1.031706596435D+02 E-N=-1.693222531383D+02  KE=-1.581093873884D+01
 Orbital energies and kinetic energies (alpha):
                                 1                 2
   1         O                -1.875019         -1.353114
   2         O                -1.187770         -1.082699
   3         O                -0.948008         -0.886544
   4         O                -0.784647         -0.635226
   5         O                -0.770300         -0.687530
   6         O                -0.672420         -0.626533
   7         O                -0.606949         -0.540309

 Normal termination of Gaussian 09 at Tue Dec 15 17:08:09 2015.
