 Gaussian 09, Revision D.01,
 Gaussian 09:  ES64L-G09RevD.01 24-Apr-2013

 ------------------------------------------------------------
 #P AM1(Input,print) CIS(Singlets,NStates=15) pop(full) force
 ------------------------------------------------------------

 -----------------
 AM1-Reparam Input
 -----------------
 Symbolic Z-matrix:
 Charge =  0 Multiplicity = 1

                         Standard orientation:
 ---------------------------------------------------------------------
 Center     Atomic      Atomic             Coordinates (Angstroms)
 Number     Number       Type             X           Y           Z
 ---------------------------------------------------------------------
      1          6           0       -1.115220    0.506248    0.010032
      2          6           0       -0.781567   -0.769679   -0.008981
      3          8           0        0.554626   -1.039254   -0.005218
      4          6           0        1.133608    0.197050    0.015542
      5          6           0        0.174769    1.171781   -0.010840
      6          1           0        0.351075    2.265793    0.005408
      7          1           0        2.262143    0.197772   -0.014644
      8          1           0       -1.455427   -1.702582    0.031262
      9          1           0       -2.064344    0.920648   -0.014796
 ---------------------------------------------------------------------

 SCF Done:  E(RAM1) =   2.83742738203     A.U. after   14 cycles

 Excitation energies and oscillator strengths:

 Excited State   1:      Singlet-A      5.2025 eV  238.32 nm  f=0.3412  <S**2>=0.000
      13 -> 14         0.69628
 This state for optimization and/or second-order correction.
 Total Energy, E(CIS) =   3.02861494036
 Copying the excited state density for this state as the 1-particle RhoCI density.

 Excited State   2:      Singlet-A      5.9297 eV  209.09 nm  f=0.0004  <S**2>=0.000
      11 -> 15         0.12157
      13 -> 15         0.67047
      13 -> 17         0.10819
      13 -> 18         0.11598

 Excited State   3:      Singlet-A      6.3369 eV  195.65 nm  f=0.0008  <S**2>=0.000
      11 -> 16        -0.12346
      13 -> 16         0.65307
      13 -> 17         0.13911
      13 -> 18        -0.16366

 Excited State   4:      Singlet-A      6.6661 eV  185.99 nm  f=0.0001  <S**2>=0.000
      12 -> 14         0.69575

 Excited State   5:      Singlet-A      7.5257 eV  164.75 nm  f=0.0106  <S**2>=0.000
      13 -> 15        -0.13327
      13 -> 17         0.46703
      13 -> 18         0.38759
      13 -> 20        -0.15039
      13 -> 21         0.26521

 Excited State   6:      Singlet-A      7.7740 eV  159.49 nm  f=0.0153  <S**2>=0.000
      10 -> 14         0.21285
      11 -> 16         0.10435
      13 -> 16        -0.18141
      13 -> 17         0.44655
      13 -> 18        -0.37715
      13 -> 20         0.14571
      13 -> 21        -0.20596

 Excited State   7:      Singlet-A      7.9673 eV  155.62 nm  f=0.0002  <S**2>=0.000
      10 -> 14         0.66120
      13 -> 17        -0.20998

 Excited State   8:      Singlet-A      8.4436 eV  146.84 nm  f=0.0011  <S**2>=0.000
      13 -> 18         0.23479
      13 -> 19         0.52489
      13 -> 20         0.26997
      13 -> 21        -0.28466

 Excited State   9:      Singlet-A      8.5573 eV  144.89 nm  f=0.0847  <S**2>=0.000
      11 -> 14         0.65795
      12 -> 15         0.17888

 Excited State  10:      Singlet-A      8.8859 eV  139.53 nm  f=0.0114  <S**2>=0.000
      13 -> 18        -0.31108
      13 -> 19         0.45957
      13 -> 20        -0.24848
      13 -> 21         0.34433

 Excited State  11:      Singlet-A      9.0053 eV  137.68 nm  f=0.1561  <S**2>=0.000
       8 -> 15         0.16628
       8 -> 16         0.10234
      10 -> 17         0.12717
      11 -> 14        -0.15074
      12 -> 15         0.52136
      12 -> 16        -0.25913
      12 -> 18         0.17851

 Excited State  12:      Singlet-A      9.3362 eV  132.80 nm  f=0.0779  <S**2>=0.000
      13 -> 20         0.55381
      13 -> 21         0.40573

 Excited State  13:      Singlet-A      9.5167 eV  130.28 nm  f=0.1102  <S**2>=0.000
      10 -> 15        -0.11426
      11 -> 14        -0.16313
      12 -> 15         0.28984
      12 -> 16         0.53002
      12 -> 18        -0.18405

 Excited State  14:      Singlet-A      9.6243 eV  128.82 nm  f=0.0009  <S**2>=0.000
       7 -> 15        -0.13515
      11 -> 15         0.63110
      11 -> 16         0.18079
      11 -> 17         0.10406
      13 -> 15        -0.13600

 Excited State  15:      Singlet-A      9.7428 eV  127.26 nm  f=0.1031  <S**2>=0.000
       9 -> 16        -0.15380
       9 -> 18         0.10021
      10 -> 15         0.19509
      10 -> 16         0.23491
      10 -> 17         0.27342
      12 -> 15        -0.10920
      12 -> 16         0.24365
      12 -> 17         0.27395
      12 -> 18         0.17389
      12 -> 19        -0.17689
      12 -> 20        -0.12848
      12 -> 21         0.14035

 The electronic state is 1-A.
 Alpha  occ. eigenvalues --   -1.70976  -1.11529  -0.90555  -0.78788  -0.73649
 Alpha  occ. eigenvalues --   -0.65575  -0.62999  -0.51813  -0.48891  -0.43275
 Alpha  occ. eigenvalues --   -0.42143  -0.38933  -0.27044
 Alpha virt. eigenvalues --    0.12408   0.16934   0.18298   0.25987   0.27940
 Alpha virt. eigenvalues --    0.29375   0.30797   0.31876   0.37266   0.46816
 Alpha virt. eigenvalues --    0.49890

 Mulliken charges:
               1
     1  C   -0.126091
     2  C   -1.925176
     3  O    3.194990
     4  C   -1.931988
     5  C   -0.145239
     6  H    0.171162
     7  H    0.294150
     8  H    0.297680
     9  H    0.170514
 Sum of Mulliken charges =   0.00000

 Dipole moment (field-independent basis, Debye):
    X=              4.8062    Y=             -9.9827    Z=             -0.1020  Tot=             11.0799
 N-N= 1.037037068068D+02 E-N=-1.688749371376D+02  KE=-1.473423437488D+01
 Orbital energies and kinetic energies (alpha):
                                 1                 2
   1         O                -1.709760         -1.204362
   2         O                -1.115286         -0.995992
   3         O                -0.905548         -0.842605
   4         O                -0.787878         -0.589207
   5         O                -0.736494         -0.663920
   6         O                -0.655747         -0.568652
   7         O                -0.629994         -0.522709

 Normal termination of Gaussian 09 at Tue Dec 15 17:05:51 2015.
