 Gaussian 09, Revision D.01,
 Gaussian 09:  ES64L-G09RevD.01 24-Apr-2013

 ------------------------------------------------------------
 #P AM1(Input,print) CIS(Singlets,NStates=15) pop(full) force
 ------------------------------------------------------------

 -----------------
 AM1-Reparam Input
 -----------------
 Symbolic Z-matrix:
 Charge =  0 Multiplicity = 1

                         Standard orientation:
 ---------------------------------------------------------------------
 Center     Atomic      Atomic             Coordinates (Angstroms)
 Number     Number       Type             X           Y           Z
 ---------------------------------------------------------------------
      1          6           0       -1.151780    0.428735   -0.051436
      2          6           0       -0.731541   -0.889562    0.041920
      3          8           0        0.676392   -0.968070   -0.012975
      4          6           0        1.099382    0.333947   -0.022468
      5          6           0        0.067705    1.137959    0.042047
      6          1           0        0.142793    2.267538    0.026043
      7          1           0        2.179964    0.367783    0.010261
      8          1           0       -1.272615   -1.756239    0.021526
      9          1           0       -2.163874    0.799003   -0.014409
 ---------------------------------------------------------------------

 SCF Done:  E(RAM1) =   2.13836582661     A.U. after   13 cycles

 Excitation energies and oscillator strengths:

 Excited State   1:      Singlet-A      5.5022 eV  225.34 nm  f=0.3346  <S**2>=0.000
      13 -> 14         0.69345
 This state for optimization and/or second-order correction.
 Total Energy, E(CIS) =   2.34056781374
 Copying the excited state density for this state as the 1-particle RhoCI density.

 Excited State   2:      Singlet-A      6.3284 eV  195.92 nm  f=0.0003  <S**2>=0.000
      11 -> 15         0.11226
      13 -> 15         0.67688

 Excited State   3:      Singlet-A      6.7802 eV  182.86 nm  f=0.0027  <S**2>=0.000
      11 -> 16        -0.10285
      13 -> 16         0.66388
      13 -> 17        -0.12741
      13 -> 20         0.12022

 Excited State   4:      Singlet-A      7.0754 eV  175.23 nm  f=0.0042  <S**2>=0.000
      12 -> 14         0.69565

 Excited State   5:      Singlet-A      8.0860 eV  153.33 nm  f=0.0039  <S**2>=0.000
      10 -> 14         0.19515
      11 -> 14        -0.12996
      13 -> 16         0.11666
      13 -> 17         0.53753
      13 -> 18        -0.24381
      13 -> 22        -0.24761

 Excited State   6:      Singlet-A      8.2584 eV  150.13 nm  f=0.0068  <S**2>=0.000
      10 -> 14         0.51186
      11 -> 14        -0.30350
      13 -> 18         0.31580
      13 -> 22         0.16166

 Excited State   7:      Singlet-A      8.4229 eV  147.20 nm  f=0.0062  <S**2>=0.000
      10 -> 14        -0.23659
      11 -> 14         0.15289
      13 -> 17         0.40346
      13 -> 18         0.39256
      13 -> 20         0.17752
      13 -> 22         0.20269

 Excited State   8:      Singlet-A      8.9650 eV  138.30 nm  f=0.0308  <S**2>=0.000
      10 -> 14         0.32307
      11 -> 14         0.52866
      12 -> 15         0.18203
      13 -> 19         0.22755

 Excited State   9:      Singlet-A      9.1342 eV  135.74 nm  f=0.0031  <S**2>=0.000
      11 -> 16         0.10006
      13 -> 18        -0.33807
      13 -> 19        -0.22532
      13 -> 20         0.52471
      13 -> 22         0.14429

 Excited State  10:      Singlet-A      9.4296 eV  131.48 nm  f=0.0965  <S**2>=0.000
       9 -> 15        -0.10241
      11 -> 14        -0.12893
      12 -> 15         0.58216
      12 -> 16        -0.17610
      12 -> 18        -0.12914
      13 -> 19        -0.12911
      13 -> 21         0.10538

 Excited State  11:      Singlet-A      9.6110 eV  129.00 nm  f=0.0130  <S**2>=0.000
      12 -> 15         0.11584
      12 -> 17        -0.11188
      13 -> 18        -0.22682
      13 -> 19         0.12874
      13 -> 20        -0.20596
      13 -> 21        -0.24225
      13 -> 22         0.51778

 Excited State  12:      Singlet-A      9.6917 eV  127.93 nm  f=0.0552  <S**2>=0.000
      10 -> 15         0.14595
      10 -> 17        -0.10794
      10 -> 18        -0.13092
      11 -> 15        -0.10864
      12 -> 15         0.24855
      12 -> 16         0.31328
      12 -> 17        -0.27520
      12 -> 18         0.13655
      13 -> 20         0.10797
      13 -> 21        -0.19808
      13 -> 22        -0.23271

 Excited State  13:      Singlet-A      9.8392 eV  126.01 nm  f=0.0867  <S**2>=0.000
      11 -> 14        -0.14272
      11 -> 15         0.13396
      12 -> 16         0.12679
      12 -> 17        -0.10060
      13 -> 19         0.41444
      13 -> 20         0.10024
      13 -> 21         0.46307

 Excited State  14:      Singlet-A      9.9738 eV  124.31 nm  f=0.1813  <S**2>=0.000
      10 -> 14        -0.11719
      10 -> 15        -0.13439
      11 -> 14        -0.17503
      12 -> 17         0.12284
      12 -> 18        -0.10678
      13 -> 19         0.39262
      13 -> 20         0.24863
      13 -> 21        -0.36177

 Excited State  15:      Singlet-A     10.1522 eV  122.13 nm  f=0.0141  <S**2>=0.000
       7 -> 15        -0.12970
      10 -> 15         0.23192
      11 -> 15         0.57345
      11 -> 16         0.13181
      13 -> 15        -0.14372
      13 -> 21        -0.11265

 The electronic state is 1-A.
 Alpha  occ. eigenvalues --   -1.93086  -1.19512  -0.93283  -0.80274  -0.78826
 Alpha  occ. eigenvalues --   -0.69092  -0.65568  -0.54646  -0.53698  -0.44348
 Alpha  occ. eigenvalues --   -0.43769  -0.40243  -0.28446
 Alpha virt. eigenvalues --    0.12596   0.17156   0.20504   0.25907   0.27987
 Alpha virt. eigenvalues --    0.30234   0.30703   0.31574   0.33248   0.38991
 Alpha virt. eigenvalues --    0.42487

 Mulliken charges:
               1
     1  C   -0.131632
     2  C   -1.896947
     3  O    3.206028
     4  C   -1.836005
     5  C   -0.158549
     6  H    0.156491
     7  H    0.244798
     8  H    0.260389
     9  H    0.155427
 Sum of Mulliken charges =   0.00000

 Dipole moment (field-independent basis, Debye):
    X=              6.7111    Y=             -9.0948    Z=             -0.2806  Tot=             11.3064
 N-N= 1.039650930112D+02 E-N=-1.690360749569D+02  KE=-1.532156779045D+01
 Orbital energies and kinetic energies (alpha):
                                 1                 2
   1         O                -1.930861         -1.342219
   2         O                -1.195125         -1.056284
   3         O                -0.932829         -0.884531
   4         O                -0.802739         -0.590418
   5         O                -0.788258         -0.671009
   6         O                -0.690917         -0.589778
   7         O                -0.655676         -0.530414

 Normal termination of Gaussian 09 at Tue Dec 15 17:09:15 2015.
