 Gaussian 09, Revision D.01,
 Gaussian 09:  ES64L-G09RevD.01 24-Apr-2013

 ------------------------------------------------------------
 #P AM1(Input,print) CIS(Singlets,NStates=15) pop(full) force
 ------------------------------------------------------------

 -----------------
 AM1-Reparam Input
 -----------------
 Symbolic Z-matrix:
 Charge =  0 Multiplicity = 1

                         Standard orientation:
 ---------------------------------------------------------------------
 Center     Atomic      Atomic             Coordinates (Angstroms)
 Number     Number       Type             X           Y           Z
 ---------------------------------------------------------------------
      1          6           0       -0.791361    0.865569   -0.019063
      2          6           0       -1.080120   -0.487728    0.038010
      3          8           0        0.150444   -1.116339   -0.018479
      4          6           0        1.149966   -0.213091   -0.005149
      5          6           0        0.564242    0.995773    0.007387
      6          1           0        1.120018    1.939580    0.030739
      7          1           0        2.137831   -0.601887    0.036199
      8          1           0       -1.978883   -1.080538   -0.012795
      9          1           0       -1.538885    1.710418   -0.033425
 ---------------------------------------------------------------------

 SCF Done:  E(RAM1) =   2.52320777828     A.U. after   13 cycles

 Excitation energies and oscillator strengths:

 Excited State   1:      Singlet-A      5.5817 eV  222.13 nm  f=0.3154  <S**2>=0.000
      13 -> 14         0.69057
 This state for optimization and/or second-order correction.
 Total Energy, E(CIS) =   2.72833205620
 Copying the excited state density for this state as the 1-particle RhoCI density.

 Excited State   2:      Singlet-A      6.7155 eV  184.62 nm  f=0.0064  <S**2>=0.000
      10 -> 15         0.10199
      13 -> 15         0.63040
      13 -> 16         0.18611
      13 -> 17        -0.20065

 Excited State   3:      Singlet-A      7.0228 eV  176.55 nm  f=0.0012  <S**2>=0.000
      10 -> 16        -0.10627
      13 -> 15        -0.18789
      13 -> 16         0.62500
      13 -> 19         0.17455

 Excited State   4:      Singlet-A      7.0729 eV  175.29 nm  f=0.0005  <S**2>=0.000
       9 -> 14        -0.13870
      12 -> 14         0.68880

 Excited State   5:      Singlet-A      7.6881 eV  161.27 nm  f=0.0075  <S**2>=0.000
      11 -> 14         0.69466

 Excited State   6:      Singlet-A      8.1351 eV  152.41 nm  f=0.0001  <S**2>=0.000
      13 -> 18         0.60806
      13 -> 21        -0.31543

 Excited State   7:      Singlet-A      8.4425 eV  146.86 nm  f=0.0088  <S**2>=0.000
      10 -> 16        -0.14122
      13 -> 15         0.14814
      13 -> 17         0.65312

 Excited State   8:      Singlet-A      8.8609 eV  139.92 nm  f=0.0853  <S**2>=0.000
      10 -> 14         0.68555

 Excited State   9:      Singlet-A      9.1984 eV  134.79 nm  f=0.0001  <S**2>=0.000
      10 -> 15         0.12611
      10 -> 16         0.11887
      13 -> 16        -0.11671
      13 -> 19         0.63016
      13 -> 21        -0.16752

 Excited State  10:      Singlet-A      9.3867 eV  132.08 nm  f=0.0919  <S**2>=0.000
       9 -> 15         0.10637
       9 -> 16        -0.10918
      11 -> 15         0.31663
      11 -> 16         0.17055
      11 -> 17        -0.32318
      12 -> 16         0.19237
      12 -> 18         0.34876
      13 -> 14        -0.11412

 Excited State  11:      Singlet-A      9.6156 eV  128.94 nm  f=0.0584  <S**2>=0.000
      11 -> 15         0.17934
      12 -> 15         0.58672
      12 -> 16        -0.10393
      12 -> 17        -0.11507
      13 -> 21         0.13758

 Excited State  12:      Singlet-A      9.6638 eV  128.30 nm  f=0.0127  <S**2>=0.000
       9 -> 14         0.12694
      12 -> 15        -0.17766
      13 -> 18         0.30805
      13 -> 19         0.17255
      13 -> 20        -0.15968
      13 -> 21         0.52321

 Excited State  13:      Singlet-A      9.9716 eV  124.34 nm  f=0.1175  <S**2>=0.000
      11 -> 16        -0.34635
      12 -> 16         0.50598
      13 -> 20         0.21759

 Excited State  14:      Singlet-A     10.0063 eV  123.91 nm  f=0.1106  <S**2>=0.000
      10 -> 16        -0.12552
      12 -> 16        -0.19130
      13 -> 20         0.61334
      13 -> 21         0.19317

 Excited State  15:      Singlet-A     10.1233 eV  122.47 nm  f=0.0002  <S**2>=0.000
       9 -> 14         0.65622
      12 -> 14         0.12641
      13 -> 21        -0.13723

 The electronic state is 1-A.
 Alpha  occ. eigenvalues --   -1.74633  -1.16931  -0.96023  -0.80595  -0.77033
 Alpha  occ. eigenvalues --   -0.67468  -0.65280  -0.56848  -0.50563  -0.44226
 Alpha  occ. eigenvalues --   -0.43424  -0.41496  -0.30632
 Alpha virt. eigenvalues --    0.11317   0.17602   0.18921   0.24020   0.25897
 Alpha virt. eigenvalues --    0.28230   0.29906   0.31708   0.39431   0.48038
 Alpha virt. eigenvalues --    0.53758

 Mulliken charges:
               1
     1  C   -0.055345
     2  C   -1.953596
     3  O    3.246868
     4  C   -1.937648
     5  C   -0.087970
     6  H    0.131961
     7  H    0.263174
     8  H    0.264311
     9  H    0.128244
 Sum of Mulliken charges =   0.00000

 Dipole moment (field-independent basis, Debye):
    X=              1.5345    Y=             -9.7546    Z=             -0.4973  Tot=              9.8870
 N-N= 1.039728638085D+02 E-N=-1.689452005789D+02  KE=-1.505111310790D+01
 Orbital energies and kinetic energies (alpha):
                                 1                 2
   1         O                -1.746329         -1.248288
   2         O                -1.169308         -1.006912
   3         O                -0.960229         -0.860552
   4         O                -0.805951         -0.612638
   5         O                -0.770325         -0.685561
   6         O                -0.674676         -0.585868
   7         O                -0.652801         -0.529288

 Normal termination of Gaussian 09 at Tue Dec 15 17:06:17 2015.
