 Gaussian 09, Revision D.01,
 Gaussian 09:  ES64L-G09RevD.01 24-Apr-2013

 -------------------------------------------------------
 #P B3LYP/3-21G CIS(Singlets,NStates=15) pop(full) force
 -------------------------------------------------------

 --------
 FuranDFT
 --------
 Symbolic Z-matrix:
 Charge =  0 Multiplicity = 1

                         Standard orientation:
 ---------------------------------------------------------------------
 Center     Atomic      Atomic             Coordinates (Angstroms)
 Number     Number       Type             X           Y           Z
 ---------------------------------------------------------------------
      1          6           0       -0.997617    0.663434    0.002578
      2          6           0       -0.876975   -0.703491   -0.019168
      3          8           0        0.403608   -1.045229    0.013682
      4          6           0        1.141382    0.032805   -0.004873
      5          6           0        0.313001    1.104345   -0.014920
      6          1           0        0.565638    2.173084    0.016866
      7          1           0        2.267236   -0.017053    0.024764
      8          1           0       -1.574377   -1.494734   -0.004473
      9          1           0       -1.966114    1.117970    0.071685
 ---------------------------------------------------------------------

 SCF Done:  E(RB3LYP) =  -228.733181212     A.U. after   14 cycles

 Excitation energies and oscillator strengths:

 Excited State   1:      Singlet-A      7.3745 eV  168.13 nm  f=0.0965  <S**2>=0.000
      17 -> 19         0.38325
      18 -> 19         0.44154
      18 -> 20         0.37541
 This state for optimization and/or second-order correction.
 Total Energy, E(CIS) =  -228.462173486
 Copying the excited state density for this state as the 1-particle RhoCI density.

 Excited State   2:      Singlet-A      7.5441 eV  164.35 nm  f=0.1615  <S**2>=0.000
      17 -> 19        -0.32301
      18 -> 19         0.52207
      18 -> 20        -0.31704

 Excited State   3:      Singlet-A      8.5475 eV  145.05 nm  f=0.0006  <S**2>=0.000
      18 -> 21         0.69205

 Excited State   4:      Singlet-A      8.8795 eV  139.63 nm  f=0.0059  <S**2>=0.000
      16 -> 19         0.69203
      18 -> 22        -0.10017

 Excited State   5:      Singlet-A      9.1825 eV  135.02 nm  f=0.0017  <S**2>=0.000
      18 -> 22         0.68282

 Excited State   6:      Singlet-A      9.8263 eV  126.18 nm  f=0.0126  <S**2>=0.000
      17 -> 20         0.15196
      17 -> 21        -0.43347
      18 -> 23         0.50486

 Excited State   7:      Singlet-A      9.8465 eV  125.92 nm  f=0.5423  <S**2>=0.000
      17 -> 19        -0.43815
      18 -> 20         0.45380
      18 -> 23         0.13363

 Excited State   8:      Singlet-A      9.9771 eV  124.27 nm  f=0.0160  <S**2>=0.000
      15 -> 19         0.47089
      16 -> 20        -0.12853
      17 -> 20         0.10755
      17 -> 21        -0.34110
      18 -> 23        -0.33470

 Excited State   9:      Singlet-A      9.9896 eV  124.11 nm  f=0.0904  <S**2>=0.000
      15 -> 19        -0.40527
      16 -> 20         0.12522
      17 -> 20         0.43301
      17 -> 21        -0.18117
      18 -> 23        -0.26238

 Excited State  10:      Singlet-A     10.0919 eV  122.85 nm  f=0.1231  <S**2>=0.000
      15 -> 19         0.26962
      17 -> 20         0.47964
      17 -> 21         0.36878
      18 -> 23         0.17838

 Excited State  11:      Singlet-A     10.3454 eV  119.84 nm  f=0.0194  <S**2>=0.000
      17 -> 21         0.10212
      18 -> 24         0.68479

 Excited State  12:      Singlet-A     10.5888 eV  117.09 nm  f=0.0048  <S**2>=0.000
      14 -> 19        -0.44102
      15 -> 19         0.13773
      16 -> 20         0.46545
      17 -> 22        -0.23950

 Excited State  13:      Singlet-A     10.6439 eV  116.48 nm  f=0.0082  <S**2>=0.000
      14 -> 19        -0.16631
      16 -> 20         0.16504
      17 -> 22         0.64701

 Excited State  14:      Singlet-A     10.8506 eV  114.26 nm  f=0.0055  <S**2>=0.000
      14 -> 19         0.51268
      16 -> 20         0.45965

 Excited State  15:      Singlet-A     11.2058 eV  110.64 nm  f=0.0012  <S**2>=0.000
      18 -> 25         0.69729

 The electronic state is 1-A.
 Alpha  occ. eigenvalues --  -19.12067 -10.17634 -10.16946 -10.11924 -10.11790
 Alpha  occ. eigenvalues --   -1.16385  -0.81160  -0.76121  -0.60938  -0.56928
 Alpha  occ. eigenvalues --   -0.54626  -0.46907  -0.45339  -0.42105  -0.39490
 Alpha  occ. eigenvalues --   -0.35794  -0.28213  -0.22868
 Alpha virt. eigenvalues --    0.02792   0.08819   0.12835   0.15320   0.18023
 Alpha virt. eigenvalues --    0.19003   0.23484   0.25216   0.35747   0.42155
 Alpha virt. eigenvalues --    0.50529   0.69590   0.69736   0.72779   0.75237

 Mulliken charges:
               1
     1  C   -0.235888
     2  C    0.082231
     3  O   -0.507248
     4  C    0.144477
     5  C   -0.286351
     6  H    0.181516
     7  H    0.214079
     8  H    0.216849
     9  H    0.190335
 Sum of Mulliken charges =   0.00000

 Dipole moment (field-independent basis, Debye):
    X=             -0.2468    Y=              0.4407    Z=              0.1055  Tot=              0.5160
 Quadrupole moment (field-independent basis, Debye-Ang):
   XX=            -24.0312   YY=            -27.8729   ZZ=            -31.6617
   XY=              1.2553   XZ=             -0.0872   YZ=              0.1645

 Normal termination of Gaussian 09 at Tue Dec 15 16:17:14 2015.
