 Gaussian 09, Revision D.01,
 Gaussian 09:  ES64L-G09RevD.01 24-Apr-2013

 ------------------------------------------------------------
 #P AM1(Input,print) CIS(Singlets,NStates=15) pop(full) force
 ------------------------------------------------------------

 -----------------
 AM1-Reparam Input
 -----------------
 Symbolic Z-matrix:
 Charge =  0 Multiplicity = 1

                         Standard orientation:
 ---------------------------------------------------------------------
 Center     Atomic      Atomic             Coordinates (Angstroms)
 Number     Number       Type             X           Y           Z
 ---------------------------------------------------------------------
      1          6           0       -0.611481    1.018234   -0.012699
      2          6           0       -1.096582   -0.170793    0.015960
      3          8           0       -0.181562   -1.109748   -0.010608
      4          6           0        1.017743   -0.505011    0.001332
      5          6           0        0.894040    0.834652    0.013340
      6          1           0        1.602161    1.597933   -0.015683
      7          1           0        1.865715   -1.158445   -0.001804
      8          1           0       -2.192187   -0.563814    0.011929
      9          1           0       -1.045513    1.939813   -0.017174
 ---------------------------------------------------------------------

 SCF Done:  E(RAM1) =   1.86006977567     A.U. after   14 cycles

 Excitation energies and oscillator strengths:

 Excited State   1:      Singlet-A      5.0805 eV  244.04 nm  f=0.3819  <S**2>=0.000
      13 -> 14         0.69691
 This state for optimization and/or second-order correction.
 Total Energy, E(CIS) =   2.04677328258
 Copying the excited state density for this state as the 1-particle RhoCI density.

 Excited State   2:      Singlet-A      5.9006 eV  210.12 nm  f=0.0011  <S**2>=0.000
      13 -> 15         0.67807
      13 -> 17         0.12950

 Excited State   3:      Singlet-A      6.4233 eV  193.02 nm  f=0.0038  <S**2>=0.000
      13 -> 16         0.66232
      13 -> 17        -0.16003
      13 -> 18         0.12780

 Excited State   4:      Singlet-A      6.9850 eV  177.50 nm  f=0.0001  <S**2>=0.000
      12 -> 14         0.70273

 Excited State   5:      Singlet-A      7.5426 eV  164.38 nm  f=0.0005  <S**2>=0.000
      13 -> 16         0.15221
      13 -> 17         0.64651
      13 -> 19         0.11928
      13 -> 21         0.15651

 Excited State   6:      Singlet-A      8.5148 eV  145.61 nm  f=0.0173  <S**2>=0.000
      10 -> 14         0.52333
      11 -> 14         0.13866
      13 -> 18        -0.42770

 Excited State   7:      Singlet-A      8.6641 eV  143.10 nm  f=0.0033  <S**2>=0.000
      10 -> 14         0.42762
      11 -> 14         0.12242
      13 -> 18         0.51598
      13 -> 19        -0.12788

 Excited State   8:      Singlet-A      9.0623 eV  136.81 nm  f=0.0836  <S**2>=0.000
      10 -> 14        -0.16639
      11 -> 14         0.58691
      12 -> 15        -0.27532
      12 -> 17        -0.10358

 Excited State   9:      Singlet-A      9.1779 eV  135.09 nm  f=0.0008  <S**2>=0.000
      13 -> 16        -0.10506
      13 -> 18         0.12731
      13 -> 19         0.66969

 Excited State  10:      Singlet-A      9.2987 eV  133.33 nm  f=0.1801  <S**2>=0.000
      10 -> 18         0.11310
      11 -> 14         0.26830
      12 -> 15         0.47066
      12 -> 16        -0.25606
      12 -> 17         0.28288

 Excited State  11:      Singlet-A      9.8533 eV  125.83 nm  f=0.0233  <S**2>=0.000
      10 -> 15        -0.21488
      10 -> 18        -0.14762
      11 -> 14         0.10288
      12 -> 15         0.38503
      12 -> 16         0.32489
      12 -> 17        -0.31721
      12 -> 18         0.11379

 Excited State  12:      Singlet-A     10.1709 eV  121.90 nm  f=0.0150  <S**2>=0.000
      11 -> 15        -0.12507
      13 -> 17        -0.15814
      13 -> 20        -0.39312
      13 -> 21         0.54452

 Excited State  13:      Singlet-A     10.2898 eV  120.49 nm  f=0.0847  <S**2>=0.000
      13 -> 20         0.54518
      13 -> 21         0.40663

 Excited State  14:      Singlet-A     10.3697 eV  119.56 nm  f=0.1002  <S**2>=0.000
      10 -> 16         0.24023
      10 -> 18         0.12203
      12 -> 16         0.49230
      12 -> 17         0.31163
      12 -> 19         0.15185

 Excited State  15:      Singlet-A     10.4087 eV  119.12 nm  f=0.0025  <S**2>=0.000
       7 -> 15        -0.13373
      10 -> 15        -0.15848
      11 -> 15         0.62396
      11 -> 16         0.11151
      13 -> 20        -0.14895

 The electronic state is 1-A.
 Alpha  occ. eigenvalues --   -2.01989  -1.27367  -1.02009  -0.91306  -0.84290
 Alpha  occ. eigenvalues --   -0.77328  -0.76086  -0.63683  -0.61136  -0.54060
 Alpha  occ. eigenvalues --   -0.53381  -0.48768  -0.35289
 Alpha virt. eigenvalues --    0.03434   0.08521   0.11509   0.19472   0.20467
 Alpha virt. eigenvalues --    0.23045   0.26068   0.27340   0.30881   0.38777
 Alpha virt. eigenvalues --    0.44153

 Mulliken charges:
               1
     1  C   -0.160979
     2  C   -1.875651
     3  O    3.157109
     4  C   -1.879412
     5  C   -0.121184
     6  H    0.142142
     7  H    0.282367
     8  H    0.311372
     9  H    0.144237
 Sum of Mulliken charges =   0.00000

 Dipole moment (field-independent basis, Debye):
    X=             -2.2308    Y=            -10.4859    Z=             -0.2819  Tot=             10.7243
 N-N= 1.062946706871D+02 E-N=-1.716291008826D+02  KE=-1.570624841056D+01
 Orbital energies and kinetic energies (alpha):
                                 1                 2
   1         O                -2.019893         -1.412789
   2         O                -1.273675         -1.046722
   3         O                -1.020089         -0.885250
   4         O                -0.913058         -0.594070
   5         O                -0.842898         -0.701253
   6         O                -0.773281         -0.597881
   7         O                -0.760863         -0.548998

 Normal termination of Gaussian 09 at Tue Dec 15 17:08:53 2015.
