 Gaussian 09, Revision D.01,
 Gaussian 09:  ES64L-G09RevD.01 24-Apr-2013

 ------------------------------------------------------------
 #P AM1(Input,print) CIS(Singlets,NStates=15) pop(full) force
 ------------------------------------------------------------

 -----------------
 AM1-Reparam Input
 -----------------
 Symbolic Z-matrix:
 Charge =  0 Multiplicity = 1

                         Standard orientation:
 ---------------------------------------------------------------------
 Center     Atomic      Atomic             Coordinates (Angstroms)
 Number     Number       Type             X           Y           Z
 ---------------------------------------------------------------------
      1          6           0        0.910887    0.802540   -0.001698
      2          6           0        0.997376   -0.549908    0.016192
      3          8           0       -0.229411   -1.131440    0.005287
      4          6           0       -1.140191   -0.141281   -0.031029
      5          6           0       -0.524155    1.083897    0.002240
      6          1           0       -0.998771    2.070282    0.039637
      7          1           0       -2.167242   -0.445418    0.063473
      8          1           0        1.798177   -1.214087   -0.038172
      9          1           0        1.739618    1.469259   -0.021473
 ---------------------------------------------------------------------

 SCF Done:  E(RAM1) =   1.38186342444     A.U. after   13 cycles

 Excitation energies and oscillator strengths:

 Excited State   1:      Singlet-A      5.8600 eV  211.58 nm  f=0.3114  <S**2>=0.000
      13 -> 14         0.68918
 This state for optimization and/or second-order correction.
 Total Energy, E(CIS) =   1.59721330810
 Copying the excited state density for this state as the 1-particle RhoCI density.

 Excited State   2:      Singlet-A      6.3403 eV  195.55 nm  f=0.0093  <S**2>=0.000
      12 -> 16         0.10200
      13 -> 15         0.65046
      13 -> 16         0.10363
      13 -> 17         0.18192

 Excited State   3:      Singlet-A      6.5503 eV  189.28 nm  f=0.0002  <S**2>=0.000
      12 -> 15         0.12673
      13 -> 15        -0.10635
      13 -> 16         0.64665
      13 -> 21         0.17448

 Excited State   4:      Singlet-A      7.4089 eV  167.35 nm  f=0.0002  <S**2>=0.000
      11 -> 14         0.68846

 Excited State   5:      Singlet-A      7.7033 eV  160.95 nm  f=0.0102  <S**2>=0.000
      13 -> 15        -0.15758
      13 -> 17         0.66199

 Excited State   6:      Singlet-A      7.9545 eV  155.87 nm  f=0.0006  <S**2>=0.000
      12 -> 15        -0.14930
      13 -> 16        -0.10360
      13 -> 18        -0.25671
      13 -> 19         0.18894
      13 -> 21         0.18953
      13 -> 22         0.55253

 Excited State   7:      Singlet-A      8.3819 eV  147.92 nm  f=0.0282  <S**2>=0.000
      10 -> 14         0.25498
      12 -> 14         0.56426
      13 -> 18         0.20266
      13 -> 19         0.24202

 Excited State   8:      Singlet-A      8.4186 eV  147.27 nm  f=0.0063  <S**2>=0.000
      10 -> 14         0.64402
      12 -> 14        -0.22161

 Excited State   9:      Singlet-A      8.5697 eV  144.68 nm  f=0.0013  <S**2>=0.000
      12 -> 15        -0.12042
      13 -> 18         0.41334
      13 -> 19        -0.36999
      13 -> 20        -0.12574
      13 -> 21         0.35940
      13 -> 22         0.13641

 Excited State  10:      Singlet-A      8.7721 eV  141.34 nm  f=0.0031  <S**2>=0.000
      13 -> 18        -0.22579
      13 -> 19         0.16839
      13 -> 20        -0.27748
      13 -> 21         0.44020
      13 -> 22        -0.35281

 Excited State  11:      Singlet-A      9.1204 eV  135.94 nm  f=0.0643  <S**2>=0.000
      12 -> 15         0.29265
      12 -> 16        -0.19390
      13 -> 20         0.50183
      13 -> 21         0.29862

 Excited State  12:      Singlet-A      9.2026 eV  134.73 nm  f=0.0326  <S**2>=0.000
      12 -> 14         0.11237
      12 -> 15         0.51638
      12 -> 16         0.15124
      12 -> 17         0.10372
      13 -> 16        -0.13960
      13 -> 18        -0.11481
      13 -> 19        -0.19082
      13 -> 20        -0.26482
      13 -> 22         0.13780

 Excited State  13:      Singlet-A      9.3928 eV  132.00 nm  f=0.2103  <S**2>=0.000
      12 -> 14        -0.32031
      12 -> 15         0.19643
      13 -> 18         0.36493
      13 -> 19         0.42042
      13 -> 20        -0.11508

 Excited State  14:      Singlet-A      9.6042 eV  129.09 nm  f=0.0018  <S**2>=0.000
      12 -> 16         0.59937
      13 -> 15        -0.13507
      13 -> 20         0.22057
      13 -> 21         0.11311

 Excited State  15:      Singlet-A      9.8228 eV  126.22 nm  f=0.0909  <S**2>=0.000
       8 -> 15        -0.24194
      10 -> 15        -0.12918
      10 -> 17        -0.21138
      11 -> 15        -0.19007
      11 -> 16         0.47743
      11 -> 18        -0.13558
      11 -> 19         0.11667
      11 -> 22         0.12713

 The electronic state is 1-A.
 Alpha  occ. eigenvalues --   -1.89762  -1.17803  -0.96315  -0.79264  -0.77102
 Alpha  occ. eigenvalues --   -0.67799  -0.61936  -0.49997  -0.48099  -0.41157
 Alpha  occ. eigenvalues --   -0.38206  -0.37289  -0.24705
 Alpha virt. eigenvalues --    0.16888   0.21426   0.22563   0.28776   0.30682
 Alpha virt. eigenvalues --    0.30883   0.33171   0.33568   0.34739   0.40993
 Alpha virt. eigenvalues --    0.46475

 Mulliken charges:
               1
     1  C   -0.051751
     2  C   -1.547961
     3  O    2.783677
     4  C   -1.554097
     5  C   -0.073669
     6  H    0.064196
     7  H    0.160743
     8  H    0.154271
     9  H    0.064591
 Sum of Mulliken charges =   0.00000

 Dipole moment (field-independent basis, Debye):
    X=             -1.8379    Y=             -9.3221    Z=              0.2089  Tot=              9.5039
 N-N= 1.035701710712D+02 E-N=-1.699196316963D+02  KE=-1.586831213232D+01
 Orbital energies and kinetic energies (alpha):
                                 1                 2
   1         O                -1.897617         -1.390870
   2         O                -1.178031         -1.064961
   3         O                -0.963153         -0.876533
   4         O                -0.792636         -0.638459
   5         O                -0.771022         -0.705075
   6         O                -0.677986         -0.618070
   7         O                -0.619363         -0.539201

 Normal termination of Gaussian 09 at Tue Dec 15 17:08:04 2015.
