 Gaussian 09, Revision D.01,
 Gaussian 09:  ES64L-G09RevD.01 24-Apr-2013

 ------------------------------------------------------------
 #P AM1(Input,print) CIS(Singlets,NStates=15) pop(full) force
 ------------------------------------------------------------

 -----------------
 AM1-Reparam Input
 -----------------
 Symbolic Z-matrix:
 Charge =  0 Multiplicity = 1

                         Standard orientation:
 ---------------------------------------------------------------------
 Center     Atomic      Atomic             Coordinates (Angstroms)
 Number     Number       Type             X           Y           Z
 ---------------------------------------------------------------------
      1          6           0       -0.923480    0.800700    0.007144
      2          6           0       -1.009410   -0.554554   -0.002617
      3          8           0        0.229269   -1.121560    0.003120
      4          6           0        1.170285   -0.149929    0.002709
      5          6           0        0.523621    1.086046   -0.008737
      6          1           0        0.971874    2.054273    0.038401
      7          1           0        2.139677   -0.461506   -0.026468
      8          1           0       -1.856605   -1.193391    0.002057
      9          1           0       -1.655201    1.479529   -0.029949
 ---------------------------------------------------------------------

 SCF Done:  E(RAM1) =   1.69481041618     A.U. after   13 cycles

 Excitation energies and oscillator strengths:

 Excited State   1:      Singlet-A      5.2381 eV  236.70 nm  f=0.3587  <S**2>=0.000
      13 -> 14         0.69585
 This state for optimization and/or second-order correction.
 Total Energy, E(CIS) =   1.88730696099
 Copying the excited state density for this state as the 1-particle RhoCI density.

 Excited State   2:      Singlet-A      6.4119 eV  193.37 nm  f=0.0079  <S**2>=0.000
      13 -> 15         0.64487
      13 -> 17         0.23976

 Excited State   3:      Singlet-A      6.6396 eV  186.73 nm  f=0.0014  <S**2>=0.000
      13 -> 16         0.59158
      13 -> 19        -0.34046

 Excited State   4:      Singlet-A      6.8879 eV  180.00 nm  f=0.0000  <S**2>=0.000
      12 -> 14         0.67492
      13 -> 16         0.12620

 Excited State   5:      Singlet-A      7.2975 eV  169.90 nm  f=0.0010  <S**2>=0.000
      12 -> 14        -0.15689
      13 -> 15        -0.10789
      13 -> 16         0.20992
      13 -> 17         0.14260
      13 -> 18        -0.27831
      13 -> 19         0.50123
      13 -> 20        -0.22810

 Excited State   6:      Singlet-A      7.9239 eV  156.47 nm  f=0.0223  <S**2>=0.000
      10 -> 14         0.15131
      11 -> 16         0.11728
      13 -> 15        -0.19900
      13 -> 16        -0.11648
      13 -> 17         0.60582
      13 -> 18         0.14685

 Excited State   7:      Singlet-A      8.2321 eV  150.61 nm  f=0.0004  <S**2>=0.000
      10 -> 14         0.67951
      13 -> 17        -0.15390

 Excited State   8:      Singlet-A      8.3977 eV  147.64 nm  f=0.0002  <S**2>=0.000
      11 -> 15        -0.10160
      13 -> 16         0.20181
      13 -> 18         0.55948
      13 -> 19         0.29316
      13 -> 20         0.15474

 Excited State   9:      Singlet-A      8.5620 eV  144.81 nm  f=0.1194  <S**2>=0.000
      11 -> 14         0.68827

 Excited State  10:      Singlet-A      8.7236 eV  142.12 nm  f=0.0135  <S**2>=0.000
      13 -> 18        -0.26505
      13 -> 19         0.10195
      13 -> 20         0.54954
      13 -> 21        -0.32296

 Excited State  11:      Singlet-A      9.0980 eV  136.28 nm  f=0.0710  <S**2>=0.000
      13 -> 20         0.32532
      13 -> 21         0.60501

 Excited State  12:      Singlet-A      9.4796 eV  130.79 nm  f=0.0663  <S**2>=0.000
       8 -> 15        -0.11339
       9 -> 19        -0.10159
      10 -> 15        -0.15082
      10 -> 17        -0.21848
      12 -> 15         0.22949
      12 -> 16        -0.30930
      12 -> 19         0.40075
      12 -> 20        -0.15666

 Excited State  13:      Singlet-A      9.8664 eV  125.66 nm  f=0.0017  <S**2>=0.000
       7 -> 16         0.11026
      11 -> 15         0.57758
      11 -> 16         0.21959
      11 -> 17         0.16872
      12 -> 15         0.13934
      13 -> 16         0.14906

 Excited State  14:      Singlet-A      9.9922 eV  124.08 nm  f=0.0457  <S**2>=0.000
       8 -> 16         0.10112
      11 -> 14         0.10297
      11 -> 15        -0.15156
      12 -> 15         0.53781
      12 -> 16         0.19290
      12 -> 17         0.11355
      12 -> 19        -0.13838
      12 -> 20         0.19138

 Excited State  15:      Singlet-A     10.2049 eV  121.49 nm  f=0.0565  <S**2>=0.000
       8 -> 15         0.16169
      10 -> 16        -0.12316
      11 -> 15        -0.11078
      11 -> 16         0.16362
      12 -> 16         0.43669
      12 -> 17         0.20308
      12 -> 18        -0.24704
      12 -> 19         0.21001
      12 -> 20        -0.13795

 The electronic state is 1-A.
 Alpha  occ. eigenvalues --   -1.91368  -1.20893  -1.00380  -0.82975  -0.81173
 Alpha  occ. eigenvalues --   -0.69450  -0.63098  -0.55606  -0.52241  -0.45529
 Alpha  occ. eigenvalues --   -0.42953  -0.41279  -0.28214
 Alpha virt. eigenvalues --    0.11195   0.18463   0.19555   0.24799   0.26686
 Alpha virt. eigenvalues --    0.27371   0.28482   0.29287   0.36722   0.45281
 Alpha virt. eigenvalues --    0.50676

 Mulliken charges:
               1
     1  C   -0.116843
     2  C   -1.948751
     3  O    3.189844
     4  C   -1.947729
     5  C   -0.147848
     6  H    0.183159
     7  H    0.298191
     8  H    0.308681
     9  H    0.181295
 Sum of Mulliken charges =   0.00000

 Dipole moment (field-independent basis, Debye):
    X=              1.6696    Y=             -9.8260    Z=              0.0031  Tot=              9.9668
 N-N= 1.038630994939D+02 E-N=-1.690837527342D+02  KE=-1.574966954258D+01
 Orbital energies and kinetic energies (alpha):
                                 1                 2
   1         O                -1.913677         -1.379101
   2         O                -1.208930         -1.089569
   3         O                -1.003800         -0.913812
   4         O                -0.829754         -0.646154
   5         O                -0.811733         -0.714539
   6         O                -0.694498         -0.584820
   7         O                -0.630980         -0.503873

 Normal termination of Gaussian 09 at Tue Dec 15 17:06:56 2015.
