 Gaussian 09, Revision D.01,
 Gaussian 09:  ES64L-G09RevD.01 24-Apr-2013

 ------------------------------------------------------------
 #P AM1(Input,print) CIS(Singlets,NStates=15) pop(full) force
 ------------------------------------------------------------

 -----------------
 AM1-Reparam Input
 -----------------
 Symbolic Z-matrix:
 Charge =  0 Multiplicity = 1

                         Standard orientation:
 ---------------------------------------------------------------------
 Center     Atomic      Atomic             Coordinates (Angstroms)
 Number     Number       Type             X           Y           Z
 ---------------------------------------------------------------------
      1          6           0        0.788970    0.885096   -0.003663
      2          6           0        1.102359   -0.368707    0.027840
      3          8           0       -0.079589   -1.151040   -0.021614
      4          6           0       -1.150744   -0.252078    0.029135
      5          6           0       -0.671583    0.959252   -0.022512
      6          1           0       -1.227418    1.853659    0.035861
      7          1           0       -2.037413   -0.689635   -0.014642
      8          1           0        2.007510   -1.003691   -0.013128
      9          1           0        1.480020    1.706611   -0.019980
 ---------------------------------------------------------------------

 SCF Done:  E(RAM1) =   1.46812607546     A.U. after   13 cycles

 Excitation energies and oscillator strengths:

 Excited State   1:      Singlet-A      5.5795 eV  222.21 nm  f=0.3004  <S**2>=0.000
      13 -> 14         0.68941
 This state for optimization and/or second-order correction.
 Total Energy, E(CIS) =   1.67316903184
 Copying the excited state density for this state as the 1-particle RhoCI density.

 Excited State   2:      Singlet-A      5.7707 eV  214.85 nm  f=0.0036  <S**2>=0.000
      11 -> 15         0.10426
      13 -> 15         0.67461
      13 -> 18        -0.10047

 Excited State   3:      Singlet-A      6.1371 eV  202.02 nm  f=0.0005  <S**2>=0.000
      13 -> 16         0.66520
      13 -> 18        -0.10277
      13 -> 21        -0.13657

 Excited State   4:      Singlet-A      7.2146 eV  171.85 nm  f=0.0004  <S**2>=0.000
      12 -> 14         0.65894
      13 -> 18         0.13099
      13 -> 22        -0.15321

 Excited State   5:      Singlet-A      7.3050 eV  169.73 nm  f=0.0065  <S**2>=0.000
      12 -> 14        -0.19363
      13 -> 15         0.10929
      13 -> 18         0.60198
      13 -> 19         0.20732
      13 -> 22        -0.14267

 Excited State   6:      Singlet-A      7.5339 eV  164.57 nm  f=0.0023  <S**2>=0.000
      12 -> 14        -0.11810
      13 -> 16        -0.13009
      13 -> 17         0.11973
      13 -> 18        -0.27257
      13 -> 19         0.41511
      13 -> 21        -0.15759
      13 -> 22        -0.40729

 Excited State   7:      Singlet-A      7.5883 eV  163.39 nm  f=0.0454  <S**2>=0.000
      11 -> 14         0.22754
      13 -> 17         0.64365
      13 -> 18         0.10413

 Excited State   8:      Singlet-A      8.3542 eV  148.41 nm  f=0.0003  <S**2>=0.000
      13 -> 19         0.33503
      13 -> 21         0.59783

 Excited State   9:      Singlet-A      8.3980 eV  147.64 nm  f=0.0008  <S**2>=0.000
      10 -> 14         0.67901
      13 -> 20         0.15066

 Excited State  10:      Singlet-A      8.5747 eV  144.59 nm  f=0.0295  <S**2>=0.000
      10 -> 14        -0.14477
      11 -> 16         0.11693
      13 -> 20         0.63100
      13 -> 23         0.20110

 Excited State  11:      Singlet-A      8.6030 eV  144.12 nm  f=0.0006  <S**2>=0.000
      13 -> 19         0.38859
      13 -> 21        -0.25927
      13 -> 22         0.51777

 Excited State  12:      Singlet-A      9.0426 eV  137.11 nm  f=0.1348  <S**2>=0.000
       8 -> 15        -0.10103
      11 -> 14         0.57929
      12 -> 15         0.25779
      13 -> 17        -0.22155

 Excited State  13:      Singlet-A      9.3514 eV  132.58 nm  f=0.1573  <S**2>=0.000
       8 -> 15        -0.16886
      10 -> 18         0.11787
      11 -> 14        -0.22176
      11 -> 15        -0.13586
      11 -> 17         0.10056
      12 -> 15         0.47104
      12 -> 16        -0.28848
      12 -> 19        -0.14713

 Excited State  14:      Singlet-A      9.4444 eV  131.28 nm  f=0.0114  <S**2>=0.000
      11 -> 15         0.62273
      11 -> 16         0.12427
      13 -> 15        -0.11679

 Excited State  15:      Singlet-A      9.6811 eV  128.07 nm  f=0.0587  <S**2>=0.000
      11 -> 16         0.25137
      13 -> 20        -0.22670
      13 -> 23         0.59761

 The electronic state is 1-A.
 Alpha  occ. eigenvalues --   -1.88129  -1.19635  -0.97847  -0.78749  -0.77862
 Alpha  occ. eigenvalues --   -0.68006  -0.61551  -0.50123  -0.48011  -0.39935
 Alpha  occ. eigenvalues --   -0.37734  -0.36283  -0.22515
 Alpha virt. eigenvalues --    0.17958   0.21378   0.23500   0.27562   0.29674
 Alpha virt. eigenvalues --    0.31860   0.34114   0.34627   0.35473   0.39053
 Alpha virt. eigenvalues --    0.43451

 Mulliken charges:
               1
     1  C   -0.077809
     2  C   -1.472698
     3  O    2.749095
     4  C   -1.486569
     5  C   -0.113616
     6  H    0.065410
     7  H    0.142522
     8  H    0.131431
     9  H    0.062234
 Sum of Mulliken charges =   0.00000

 Dipole moment (field-independent basis, Debye):
    X=             -0.5580    Y=            -10.2105    Z=             -0.6470  Tot=             10.2462
 N-N= 1.036979574888D+02 E-N=-1.700667076683D+02  KE=-1.586536657873D+01
 Orbital energies and kinetic energies (alpha):
                                 1                 2
   1         O                -1.881294         -1.358972
   2         O                -1.196354         -1.075832
   3         O                -0.978466         -0.908968
   4         O                -0.787486         -0.652312
   5         O                -0.778621         -0.693366
   6         O                -0.680061         -0.617973
   7         O                -0.615505         -0.546294

 Normal termination of Gaussian 09 at Tue Dec 15 17:07:59 2015.
