 Gaussian 09, Revision D.01,
 Gaussian 09:  ES64L-G09RevD.01 24-Apr-2013

 ------------------------------------------------------------
 #P AM1(Input,print) CIS(Singlets,NStates=15) pop(full) force
 ------------------------------------------------------------

 -----------------
 AM1-Reparam Input
 -----------------
 Symbolic Z-matrix:
 Charge =  0 Multiplicity = 1

                         Standard orientation:
 ---------------------------------------------------------------------
 Center     Atomic      Atomic             Coordinates (Angstroms)
 Number     Number       Type             X           Y           Z
 ---------------------------------------------------------------------
      1          6           0       -0.255349    1.154326   -0.018917
      2          6           0       -1.171603    0.043826    0.001751
      3          8           0       -0.444608   -1.028435    0.007647
      4          6           0        0.888982   -0.700744   -0.033743
      5          6           0        0.990899    0.587051    0.036535
      6          1           0        1.995673    1.179372   -0.013098
      7          1           0        1.550679   -1.601472    0.026153
      8          1           0       -2.157597    0.016672    0.021472
      9          1           0       -0.549466    2.126148   -0.009459
 ---------------------------------------------------------------------

 SCF Done:  E(RAM1) =   1.10745916335     A.U. after   14 cycles

 Excitation energies and oscillator strengths:

 Excited State   1:      Singlet-A      5.7354 eV  216.17 nm  f=0.1976  <S**2>=0.000
      12 -> 16        -0.13387
      13 -> 14         0.67832
 This state for optimization and/or second-order correction.
 Total Energy, E(CIS) =   1.31823260423
 Copying the excited state density for this state as the 1-particle RhoCI density.

 Excited State   2:      Singlet-A      6.4472 eV  192.31 nm  f=0.0043  <S**2>=0.000
      13 -> 15         0.68993

 Excited State   3:      Singlet-A      7.1949 eV  172.32 nm  f=0.0003  <S**2>=0.000
      13 -> 17         0.65293
      13 -> 19        -0.10082
      13 -> 21         0.14962

 Excited State   4:      Singlet-A      7.3053 eV  169.72 nm  f=0.0004  <S**2>=0.000
       9 -> 14        -0.11206
      11 -> 14         0.47340
      12 -> 14         0.36380
      13 -> 16         0.33656

 Excited State   5:      Singlet-A      7.3521 eV  168.64 nm  f=0.0037  <S**2>=0.000
      11 -> 14         0.46944
      12 -> 14        -0.26640
      13 -> 16        -0.41404

 Excited State   6:      Singlet-A      7.8645 eV  157.65 nm  f=0.0012  <S**2>=0.000
       9 -> 14        -0.15835
      10 -> 14         0.66116
      11 -> 16        -0.11984

 Excited State   7:      Singlet-A      8.1622 eV  151.90 nm  f=0.1401  <S**2>=0.000
      11 -> 15        -0.18429
      12 -> 14         0.49483
      13 -> 16        -0.40153

 Excited State   8:      Singlet-A      8.2763 eV  149.81 nm  f=0.0006  <S**2>=0.000
      12 -> 15        -0.32090
      13 -> 18         0.52722
      13 -> 19        -0.25986
      13 -> 23         0.16642

 Excited State   9:      Singlet-A      8.4579 eV  146.59 nm  f=0.0033  <S**2>=0.000
      12 -> 15         0.58271
      12 -> 17        -0.11063
      13 -> 17        -0.12464
      13 -> 18         0.27796
      13 -> 19        -0.11159

 Excited State  10:      Singlet-A      8.5414 eV  145.16 nm  f=0.0203  <S**2>=0.000
       9 -> 14        -0.10348
       9 -> 16         0.18938
      10 -> 14         0.12620
      10 -> 16         0.25861
      11 -> 16         0.56892
      12 -> 16         0.10034

 Excited State  11:      Singlet-A      8.7584 eV  141.56 nm  f=0.0036  <S**2>=0.000
       9 -> 15        -0.10357
      10 -> 15        -0.24921
      11 -> 15        -0.24156
      13 -> 18         0.16336
      13 -> 19         0.35575
      13 -> 20         0.39109

 Excited State  12:      Singlet-A      8.8212 eV  140.55 nm  f=0.0071  <S**2>=0.000
       9 -> 15         0.15283
      10 -> 15         0.37010
      10 -> 17        -0.10322
      11 -> 15         0.32496
      11 -> 20         0.11325
      13 -> 18         0.11337
      13 -> 19         0.23511
      13 -> 20         0.28647

 Excited State  13:      Singlet-A      9.1775 eV  135.10 nm  f=0.2848  <S**2>=0.000
       8 -> 15        -0.11279
       9 -> 17        -0.19880
      10 -> 15         0.16075
      11 -> 15        -0.23012
      11 -> 18         0.17718
      12 -> 14        -0.10686
      12 -> 16         0.43404
      12 -> 17         0.19808
      13 -> 14         0.14053

 Excited State  14:      Singlet-A      9.2377 eV  134.21 nm  f=0.0478  <S**2>=0.000
       9 -> 14         0.10135
      12 -> 16        -0.21910
      12 -> 17         0.46310
      13 -> 18         0.18308
      13 -> 19         0.21127
      13 -> 20        -0.21151
      13 -> 21        -0.23976

 Excited State  15:      Singlet-A      9.3806 eV  132.17 nm  f=0.1374  <S**2>=0.000
      10 -> 15        -0.31319
      10 -> 19         0.16988
      11 -> 15         0.24220
      11 -> 17         0.16456
      11 -> 18        -0.16868
      12 -> 14         0.13076
      12 -> 16         0.42189
      13 -> 16        -0.11544

 The electronic state is 1-A.
 Alpha  occ. eigenvalues --   -1.86068  -1.21161  -1.00897  -0.88247  -0.81820
 Alpha  occ. eigenvalues --   -0.74453  -0.73212  -0.62360  -0.56307  -0.51836
 Alpha  occ. eigenvalues --   -0.49490  -0.48246  -0.39679
 Alpha virt. eigenvalues --    0.03515   0.08985   0.10491   0.11037   0.16827
 Alpha virt. eigenvalues --    0.19150   0.19744   0.21076   0.26930   0.27217
 Alpha virt. eigenvalues --    0.28603

 Mulliken charges:
               1
     1  C   -0.167361
     2  C   -1.287976
     3  O    2.178239
     4  C   -1.274320
     5  C   -0.093805
     6  H    0.134574
     7  H    0.204770
     8  H    0.197818
     9  H    0.108063
 Sum of Mulliken charges =   0.00000

 Dipole moment (field-independent basis, Debye):
    X=             -2.1917    Y=             -6.2683    Z=              0.3134  Tot=              6.6478
 N-N= 1.051660900791D+02 E-N=-1.723597330397D+02  KE=-1.508196862297D+01
 Orbital energies and kinetic energies (alpha):
                                 1                 2
   1         O                -1.860682         -1.277377
   2         O                -1.211611         -0.975952
   3         O                -1.008974         -0.810263
   4         O                -0.882471         -0.645410
   5         O                -0.818199         -0.671707
   6         O                -0.744527         -0.591775
   7         O                -0.732122         -0.528510

 Normal termination of Gaussian 09 at Tue Dec 15 17:05:38 2015.
