 Gaussian 09, Revision D.01,
 Gaussian 09:  ES64L-G09RevD.01 24-Apr-2013

 ------------------------------------------------------------
 #P AM1(Input,print) CIS(Singlets,NStates=15) pop(full) force
 ------------------------------------------------------------

 -----------------
 AM1-Reparam Input
 -----------------
 Symbolic Z-matrix:
 Charge =  0 Multiplicity = 1

                         Standard orientation:
 ---------------------------------------------------------------------
 Center     Atomic      Atomic             Coordinates (Angstroms)
 Number     Number       Type             X           Y           Z
 ---------------------------------------------------------------------
      1          6           0       -0.854886    0.855175    0.007371
      2          6           0       -1.039381   -0.523795   -0.018260
      3          8           0        0.161980   -1.110345    0.011342
      4          6           0        1.149741   -0.200510   -0.033841
      5          6           0        0.565601    1.020617    0.019370
      6          1           0        1.073919    1.971679   -0.025861
      7          1           0        2.154652   -0.508292    0.067459
      8          1           0       -1.846721   -1.133546    0.036402
      9          1           0       -1.604135    1.643992   -0.016579
 ---------------------------------------------------------------------

 SCF Done:  E(RAM1) =   1.68467308216     A.U. after   14 cycles

 Excitation energies and oscillator strengths:

 Excited State   1:      Singlet-A      5.4177 eV  228.85 nm  f=0.3476  <S**2>=0.000
      13 -> 14         0.69439
 This state for optimization and/or second-order correction.
 Total Energy, E(CIS) =   1.88376841694
 Copying the excited state density for this state as the 1-particle RhoCI density.

 Excited State   2:      Singlet-A      6.5513 eV  189.25 nm  f=0.0111  <S**2>=0.000
      13 -> 15         0.62972
      13 -> 16         0.13308
      13 -> 17         0.26328

 Excited State   3:      Singlet-A      6.8604 eV  180.72 nm  f=0.0000  <S**2>=0.000
      11 -> 15        -0.11625
      12 -> 14        -0.13053
      13 -> 15        -0.13630
      13 -> 16         0.57888
      13 -> 19         0.20447
      13 -> 20        -0.20049
      13 -> 21         0.15383

 Excited State   4:      Singlet-A      7.0227 eV  176.55 nm  f=0.0005  <S**2>=0.000
      12 -> 14         0.66334
      13 -> 16         0.15665
      13 -> 18        -0.10772

 Excited State   5:      Singlet-A      7.4748 eV  165.87 nm  f=0.0002  <S**2>=0.000
      12 -> 14         0.17524
      13 -> 16        -0.19012
      13 -> 17         0.11046
      13 -> 18         0.25194
      13 -> 19         0.45731
      13 -> 20        -0.36042

 Excited State   6:      Singlet-A      7.9846 eV  155.28 nm  f=0.0145  <S**2>=0.000
      10 -> 14         0.36858
      11 -> 16         0.10247
      13 -> 15        -0.19949
      13 -> 17         0.52557
      13 -> 20         0.17145

 Excited State   7:      Singlet-A      8.1468 eV  152.19 nm  f=0.0006  <S**2>=0.000
      10 -> 14         0.59090
      13 -> 15         0.10511
      13 -> 17        -0.34983

 Excited State   8:      Singlet-A      8.5437 eV  145.12 nm  f=0.0012  <S**2>=0.000
      11 -> 15        -0.11874
      13 -> 16         0.18485
      13 -> 18         0.61335
      13 -> 19        -0.15429
      13 -> 20         0.12474
      13 -> 21        -0.14939

 Excited State   9:      Singlet-A      8.6347 eV  143.59 nm  f=0.1092  <S**2>=0.000
      11 -> 14         0.68718

 Excited State  10:      Singlet-A      8.7236 eV  142.13 nm  f=0.0006  <S**2>=0.000
      13 -> 16        -0.10127
      13 -> 18         0.18353
      13 -> 19        -0.17078
      13 -> 20        -0.11127
      13 -> 21         0.63317

 Excited State  11:      Singlet-A      9.0535 eV  136.95 nm  f=0.0918  <S**2>=0.000
      13 -> 19         0.42462
      13 -> 20         0.50366
      13 -> 21         0.18917

 Excited State  12:      Singlet-A      9.4888 eV  130.66 nm  f=0.0061  <S**2>=0.000
       8 -> 15        -0.11013
       9 -> 16        -0.11069
      10 -> 15         0.25242
      10 -> 17         0.27549
      12 -> 16         0.29465
      12 -> 17         0.13129
      12 -> 19         0.33822
      12 -> 20        -0.22551

 Excited State  13:      Singlet-A      9.8654 eV  125.68 nm  f=0.0136  <S**2>=0.000
       7 -> 16         0.10305
      11 -> 15         0.58329
      11 -> 16         0.11386
      11 -> 17         0.15375
      12 -> 15         0.18746
      12 -> 16        -0.10885
      13 -> 16         0.16540

 Excited State  14:      Singlet-A      9.9318 eV  124.84 nm  f=0.0576  <S**2>=0.000
      10 -> 19        -0.10050
      11 -> 15        -0.18154
      11 -> 16        -0.10762
      12 -> 15         0.56671
      12 -> 17         0.12986
      12 -> 19        -0.18827

 Excited State  15:      Singlet-A     10.2102 eV  121.43 nm  f=0.0900  <S**2>=0.000
       8 -> 16        -0.12889
       9 -> 15        -0.11825
      10 -> 15        -0.22009
      10 -> 21         0.16544
      12 -> 16         0.46253
      12 -> 17        -0.13762
      12 -> 18        -0.22723
      12 -> 19        -0.19019
      12 -> 21         0.11995

 The electronic state is 1-A.
 Alpha  occ. eigenvalues --   -1.92676  -1.21905  -1.01204  -0.82862  -0.81225
 Alpha  occ. eigenvalues --   -0.69390  -0.64173  -0.56330  -0.52363  -0.44968
 Alpha  occ. eigenvalues --   -0.43252  -0.41735  -0.29293
 Alpha virt. eigenvalues --    0.11285   0.18396   0.19457   0.23942   0.25835
 Alpha virt. eigenvalues --    0.27504   0.27582   0.27774   0.37847   0.46060
 Alpha virt. eigenvalues --    0.51992

 Mulliken charges:
               1
     1  C   -0.130537
     2  C   -1.967028
     3  O    3.197117
     4  C   -1.957972
     5  C   -0.130924
     6  H    0.183599
     7  H    0.315296
     8  H    0.303175
     9  H    0.187272
 Sum of Mulliken charges =   0.00000

 Dipole moment (field-independent basis, Debye):
    X=              1.5148    Y=             -9.2396    Z=              0.7578  Tot=              9.3936
 N-N= 1.042841410567D+02 E-N=-1.697945030024D+02  KE=-1.577689143987D+01
 Orbital energies and kinetic energies (alpha):
                                 1                 2
   1         O                -1.926763         -1.404007
   2         O                -1.219052         -1.086276
   3         O                -1.012038         -0.911963
   4         O                -0.828624         -0.651142
   5         O                -0.812251         -0.706909
   6         O                -0.693896         -0.583619
   7         O                -0.641733         -0.513555

 Normal termination of Gaussian 09 at Tue Dec 15 17:07:02 2015.
