 Gaussian 09, Revision D.01,
 Gaussian 09:  ES64L-G09RevD.01 24-Apr-2013

 ------------------------------------------------------------
 #P AM1(Input,print) CIS(Singlets,NStates=15) pop(full) force
 ------------------------------------------------------------

 -----------------
 AM1-Reparam Input
 -----------------
 Symbolic Z-matrix:
 Charge =  0 Multiplicity = 1

                         Standard orientation:
 ---------------------------------------------------------------------
 Center     Atomic      Atomic             Coordinates (Angstroms)
 Number     Number       Type             X           Y           Z
 ---------------------------------------------------------------------
      1          6           0       -1.137190    0.380335    0.010335
      2          6           0       -0.696027   -0.885175   -0.005211
      3          8           0        0.690219   -0.967181    0.003865
      4          6           0        1.061751    0.335255   -0.003555
      5          6           0        0.039693    1.178220   -0.013275
      6          1           0        0.091382    2.257813   -0.001811
      7          1           0        2.232895    0.449551    0.037523
      8          1           0       -1.277352   -1.790679   -0.025039
      9          1           0       -2.178041    0.768954    0.028640
 ---------------------------------------------------------------------

 SCF Done:  E(RAM1) =   2.61675771133     A.U. after   13 cycles

 Excitation energies and oscillator strengths:

 Excited State   1:      Singlet-A      5.0849 eV  243.83 nm  f=0.3550  <S**2>=0.000
      13 -> 14         0.69937
 This state for optimization and/or second-order correction.
 Total Energy, E(CIS) =   2.80362567529
 Copying the excited state density for this state as the 1-particle RhoCI density.

 Excited State   2:      Singlet-A      5.7360 eV  216.15 nm  f=0.0001  <S**2>=0.000
      10 -> 15         0.10086
      13 -> 15         0.67160
      13 -> 17        -0.10509

 Excited State   3:      Singlet-A      6.3937 eV  193.92 nm  f=0.0019  <S**2>=0.000
      13 -> 16         0.66971

 Excited State   4:      Singlet-A      6.5286 eV  189.91 nm  f=0.0001  <S**2>=0.000
      12 -> 14         0.69995

 Excited State   5:      Singlet-A      7.4490 eV  166.44 nm  f=0.0053  <S**2>=0.000
      10 -> 14        -0.12548
      11 -> 14         0.68718

 Excited State   6:      Singlet-A      7.7039 eV  160.94 nm  f=0.0001  <S**2>=0.000
      13 -> 17         0.67050
      13 -> 21        -0.11921

 Excited State   7:      Singlet-A      8.5275 eV  145.39 nm  f=0.1048  <S**2>=0.000
      10 -> 14         0.67687
      11 -> 14         0.12309

 Excited State   8:      Singlet-A      8.8368 eV  140.30 nm  f=0.0113  <S**2>=0.000
      10 -> 15         0.25415
      12 -> 15         0.11324
      13 -> 18         0.61468
      13 -> 19         0.12731

 Excited State   9:      Singlet-A      8.9527 eV  138.49 nm  f=0.1491  <S**2>=0.000
       9 -> 15         0.12784
       9 -> 16         0.10343
      11 -> 18        -0.10307
      12 -> 15         0.55856
      12 -> 16        -0.20677
      12 -> 17        -0.21592
      13 -> 18        -0.11576

 Excited State  10:      Singlet-A      9.3289 eV  132.90 nm  f=0.0003  <S**2>=0.000
      10 -> 16         0.25564
      13 -> 17        -0.10161
      13 -> 19         0.62014

 Excited State  11:      Singlet-A      9.4286 eV  131.50 nm  f=0.0798  <S**2>=0.000
       8 -> 15        -0.12131
      11 -> 15         0.39895
      11 -> 16         0.16153
      11 -> 18        -0.20468
      12 -> 15        -0.27278
      12 -> 16        -0.23274
      12 -> 17        -0.26165
      12 -> 18         0.12718

 Excited State  12:      Singlet-A      9.6060 eV  129.07 nm  f=0.0023  <S**2>=0.000
       7 -> 15        -0.12969
      10 -> 15         0.59382
      11 -> 15         0.15972
      13 -> 15        -0.15337
      13 -> 18        -0.23888

 Excited State  13:      Singlet-A      9.8539 eV  125.82 nm  f=0.1667  <S**2>=0.000
      11 -> 15        -0.11470
      11 -> 16         0.37908
      11 -> 18        -0.11592
      11 -> 19         0.13707
      12 -> 16         0.44538
      12 -> 17        -0.26326

 Excited State  14:      Singlet-A     10.0424 eV  123.46 nm  f=0.0186  <S**2>=0.000
       8 -> 15        -0.18014
       8 -> 16        -0.11311
       9 -> 15         0.25967
       9 -> 16        -0.10273
      10 -> 15        -0.11910
      11 -> 15         0.34198
      11 -> 17         0.14695
      11 -> 19        -0.15228
      12 -> 15         0.11892
      12 -> 16         0.31457
      12 -> 17         0.15357
      12 -> 18         0.10859

 Excited State  15:      Singlet-A     10.2791 eV  120.62 nm  f=0.0045  <S**2>=0.000
       7 -> 16         0.11162
      10 -> 16         0.60029
      13 -> 16         0.14314
      13 -> 18         0.13900
      13 -> 19        -0.22845

 The electronic state is 1-A.
 Alpha  occ. eigenvalues --   -1.83957  -1.12972  -0.85982  -0.78451  -0.74079
 Alpha  occ. eigenvalues --   -0.65931  -0.62779  -0.54061  -0.53115  -0.43742
 Alpha  occ. eigenvalues --   -0.43365  -0.40857  -0.28415
 Alpha virt. eigenvalues --    0.10445   0.15133   0.18678   0.26214   0.28427
 Alpha virt. eigenvalues --    0.30702   0.37121   0.42048   0.48042   0.56382
 Alpha virt. eigenvalues --    0.59215

 Mulliken charges:
               1
     1  C   -0.164199
     2  C   -1.999813
     3  O    3.425363
     4  C   -1.974689
     5  C   -0.208712
     6  H    0.184939
     7  H    0.274714
     8  H    0.280640
     9  H    0.181758
 Sum of Mulliken charges =   0.00000

 Dipole moment (field-independent basis, Debye):
    X=              7.2602    Y=             -9.7819    Z=              0.1804  Tot=             12.1831
 N-N= 1.038960494010D+02 E-N=-1.696766519261D+02  KE=-1.432784120979D+01
 Orbital energies and kinetic energies (alpha):
                                 1                 2
   1         O                -1.839575         -1.238343
   2         O                -1.129725         -0.983067
   3         O                -0.859821         -0.804099
   4         O                -0.784507         -0.509946
   5         O                -0.740787         -0.608285
   6         O                -0.659306         -0.544283
   7         O                -0.627789         -0.500782

 Normal termination of Gaussian 09 at Tue Dec 15 17:07:44 2015.
