 Gaussian 09, Revision D.01,
 Gaussian 09:  ES64L-G09RevD.01 24-Apr-2013

 ------------------------------------------------------------
 #P AM1(Input,print) CIS(Singlets,NStates=15) pop(full) force
 ------------------------------------------------------------

 -----------------
 AM1-Reparam Input
 -----------------
 Symbolic Z-matrix:
 Charge =  0 Multiplicity = 1

                         Standard orientation:
 ---------------------------------------------------------------------
 Center     Atomic      Atomic             Coordinates (Angstroms)
 Number     Number       Type             X           Y           Z
 ---------------------------------------------------------------------
      1          6           0       -1.157311    0.290330   -0.028214
      2          6           0       -0.572330   -0.964085    0.039219
      3          8           0        0.763191   -0.880420   -0.007601
      4          6           0        1.032317    0.418708   -0.009386
      5          6           0       -0.081540    1.193798    0.014300
      6          1           0       -0.168388    2.210029    0.033333
      7          1           0        2.082468    0.696339   -0.010745
      8          1           0       -1.054420   -1.966954   -0.042835
      9          1           0       -2.292005    0.471443   -0.014456
 ---------------------------------------------------------------------

 SCF Done:  E(RAM1) =   1.08089297221     A.U. after   14 cycles

 Excitation energies and oscillator strengths:

 Excited State   1:      Singlet-A      5.7480 eV  215.70 nm  f=0.2018  <S**2>=0.000
      12 -> 17         0.12252
      13 -> 14         0.67787
 This state for optimization and/or second-order correction.
 Total Energy, E(CIS) =   1.29212697324
 Copying the excited state density for this state as the 1-particle RhoCI density.

 Excited State   2:      Singlet-A      6.7304 eV  184.22 nm  f=0.0048  <S**2>=0.000
      13 -> 15         0.68039
      13 -> 19         0.13012

 Excited State   3:      Singlet-A      7.0840 eV  175.02 nm  f=0.0001  <S**2>=0.000
      12 -> 15        -0.11601
      13 -> 16         0.58212
      13 -> 17        -0.30062
      13 -> 18         0.10584
      13 -> 19         0.10745
      13 -> 21        -0.12094

 Excited State   4:      Singlet-A      7.2206 eV  171.71 nm  f=0.0037  <S**2>=0.000
      12 -> 14         0.54936
      13 -> 16        -0.15959
      13 -> 17        -0.39510

 Excited State   5:      Singlet-A      7.5618 eV  163.96 nm  f=0.0008  <S**2>=0.000
       9 -> 14        -0.17778
      10 -> 14        -0.16537
      11 -> 14         0.64991

 Excited State   6:      Singlet-A      7.8818 eV  157.30 nm  f=0.0038  <S**2>=0.000
      10 -> 14         0.67309
      11 -> 14         0.17323

 Excited State   7:      Singlet-A      8.2537 eV  150.22 nm  f=0.2571  <S**2>=0.000
      12 -> 14         0.41118
      12 -> 15         0.18038
      13 -> 16         0.27906
      13 -> 17         0.42526

 Excited State   8:      Singlet-A      8.3180 eV  149.06 nm  f=0.0142  <S**2>=0.000
      12 -> 15         0.49111
      13 -> 18         0.36815
      13 -> 19         0.23695
      13 -> 23        -0.11181

 Excited State   9:      Singlet-A      8.5720 eV  144.64 nm  f=0.0114  <S**2>=0.000
      12 -> 15        -0.41681
      13 -> 16        -0.10056
      13 -> 17         0.14987
      13 -> 18         0.44099
      13 -> 19         0.19108
      13 -> 23        -0.10524

 Excited State  10:      Singlet-A      8.8046 eV  140.82 nm  f=0.0082  <S**2>=0.000
      12 -> 16         0.58258
      12 -> 17        -0.24801
      13 -> 19         0.23876

 Excited State  11:      Singlet-A      8.9232 eV  138.95 nm  f=0.1684  <S**2>=0.000
       8 -> 15        -0.12748
       9 -> 16        -0.16997
      12 -> 16         0.24813
      12 -> 17         0.57017
      13 -> 14        -0.13736

 Excited State  12:      Singlet-A      9.1353 eV  135.72 nm  f=0.0017  <S**2>=0.000
      13 -> 18         0.16803
      13 -> 19        -0.15310
      13 -> 20         0.56365
      13 -> 21        -0.24957
      13 -> 22         0.12728

 Excited State  13:      Singlet-A      9.1508 eV  135.49 nm  f=0.0189  <S**2>=0.000
       9 -> 16         0.14740
       9 -> 17         0.31642
      11 -> 16         0.29969
      11 -> 17         0.45334
      13 -> 20         0.14841

 Excited State  14:      Singlet-A      9.3853 eV  132.10 nm  f=0.0087  <S**2>=0.000
       9 -> 14         0.16049
       9 -> 15         0.15794
       9 -> 16         0.14542
      10 -> 15         0.29736
      10 -> 16         0.17197
      10 -> 19         0.12463
      11 -> 15         0.36693
      11 -> 18        -0.22104
      12 -> 17         0.15697

 Excited State  15:      Singlet-A      9.4799 eV  130.79 nm  f=0.0015  <S**2>=0.000
       9 -> 14         0.59177
      10 -> 15        -0.18032
      11 -> 14         0.15953
      13 -> 21        -0.12989

 The electronic state is 1-A.
 Alpha  occ. eigenvalues --   -1.84432  -1.20192  -0.98133  -0.87636  -0.80471
 Alpha  occ. eigenvalues --   -0.73711  -0.72228  -0.59725  -0.55142  -0.51819
 Alpha  occ. eigenvalues --   -0.50436  -0.46719  -0.39004
 Alpha virt. eigenvalues --    0.03902   0.10018   0.10831   0.11162   0.18113
 Alpha virt. eigenvalues --    0.19099   0.20961   0.21779   0.26734   0.28100
 Alpha virt. eigenvalues --    0.28613

 Mulliken charges:
               1
     1  C   -0.117544
     2  C   -1.290149
     3  O    2.149334
     4  C   -1.275190
     5  C   -0.109137
     6  H    0.100058
     7  H    0.209045
     8  H    0.215853
     9  H    0.117731
 Sum of Mulliken charges =   0.00000

 Dipole moment (field-independent basis, Debye):
    X=              4.5274    Y=             -5.4000    Z=             -0.2923  Tot=              7.0528
 N-N= 1.046349229993D+02 E-N=-1.716967774953D+02  KE=-1.501831459928D+01
 Orbital energies and kinetic energies (alpha):
                                 1                 2
   1         O                -1.844321         -1.265017
   2         O                -1.201920         -0.983234
   3         O                -0.981327         -0.798577
   4         O                -0.876361         -0.637700
   5         O                -0.804707         -0.661011
   6         O                -0.737115         -0.594180
   7         O                -0.722282         -0.523847

 Normal termination of Gaussian 09 at Tue Dec 15 17:05:29 2015.
