 Gaussian 09, Revision D.01,
 Gaussian 09:  ES64L-G09RevD.01 24-Apr-2013

 ------------------------------------------------------------
 #P AM1(Input,print) CIS(Singlets,NStates=15) pop(full) force
 ------------------------------------------------------------

 -----------------
 AM1-Reparam Input
 -----------------
 Symbolic Z-matrix:
 Charge =  0 Multiplicity = 1

                         Standard orientation:
 ---------------------------------------------------------------------
 Center     Atomic      Atomic             Coordinates (Angstroms)
 Number     Number       Type             X           Y           Z
 ---------------------------------------------------------------------
      1          6           0       -0.923480    0.800700    0.007144
      2          6           0       -1.009410   -0.554554   -0.002617
      3          8           0        0.229269   -1.121560    0.003120
      4          6           0        1.170285   -0.149929    0.002709
      5          6           0        0.523621    1.086046   -0.008737
      6          1           0        0.971874    2.054273    0.038401
      7          1           0        2.139677   -0.461506   -0.026468
      8          1           0       -1.856605   -1.193391    0.002057
      9          1           0       -1.655201    1.479529   -0.029949
 ---------------------------------------------------------------------

 SCF Done:  E(RAM1) =   1.82317608530     A.U. after   14 cycles

 Excitation energies and oscillator strengths:

 Excited State   1:      Singlet-A      5.5444 eV  223.62 nm  f=0.3557  <S**2>=0.000
      13 -> 14         0.69337
 This state for optimization and/or second-order correction.
 Total Energy, E(CIS) =   2.02692804640
 Copying the excited state density for this state as the 1-particle RhoCI density.

 Excited State   2:      Singlet-A      6.5589 eV  189.03 nm  f=0.0001  <S**2>=0.000
      12 -> 14         0.69713

 Excited State   3:      Singlet-A      6.6585 eV  186.20 nm  f=0.0039  <S**2>=0.000
      10 -> 15         0.10939
      13 -> 15         0.65776
      13 -> 17         0.16786

 Excited State   4:      Singlet-A      6.8133 eV  181.97 nm  f=0.0023  <S**2>=0.000
      10 -> 16        -0.10398
      13 -> 16         0.65049
      13 -> 17         0.10892
      13 -> 18        -0.18594

 Excited State   5:      Singlet-A      7.8178 eV  158.59 nm  f=0.0051  <S**2>=0.000
      11 -> 14         0.69817

 Excited State   6:      Singlet-A      8.0761 eV  153.52 nm  f=0.0008  <S**2>=0.000
      13 -> 15        -0.11890
      13 -> 17         0.25168
      13 -> 18         0.54449
      13 -> 20        -0.14040
      13 -> 21         0.27131

 Excited State   7:      Singlet-A      8.4833 eV  146.15 nm  f=0.0120  <S**2>=0.000
      10 -> 16         0.13410
      13 -> 16        -0.14942
      13 -> 17         0.61152
      13 -> 18        -0.22286

 Excited State   8:      Singlet-A      8.8732 eV  139.73 nm  f=0.0960  <S**2>=0.000
      10 -> 14         0.65895
      12 -> 15        -0.15795

 Excited State   9:      Singlet-A      9.0877 eV  136.43 nm  f=0.0069  <S**2>=0.000
      12 -> 15         0.13986
      12 -> 16        -0.15292
      12 -> 18         0.16036
      13 -> 19         0.60085

 Excited State  10:      Singlet-A      9.0950 eV  136.32 nm  f=0.0259  <S**2>=0.000
      10 -> 14        -0.11870
      11 -> 15         0.10903
      11 -> 16         0.12013
      11 -> 17         0.17979
      12 -> 15        -0.28391
      12 -> 16         0.27669
      12 -> 18        -0.30845
      12 -> 21        -0.10196
      13 -> 19         0.31007

 Excited State  11:      Singlet-A      9.5997 eV  129.15 nm  f=0.0181  <S**2>=0.000
      13 -> 18        -0.30729
      13 -> 20        -0.43234
      13 -> 21         0.43998

 Excited State  12:      Singlet-A      9.6742 eV  128.16 nm  f=0.0131  <S**2>=0.000
      10 -> 14         0.12113
      11 -> 15         0.12379
      11 -> 16        -0.14611
      12 -> 15         0.43063
      12 -> 16         0.43222
      12 -> 17         0.17724
      12 -> 18        -0.11218

 Excited State  13:      Singlet-A      9.8237 eV  126.21 nm  f=0.2263  <S**2>=0.000
       9 -> 16         0.13088
      11 -> 15        -0.26058
      11 -> 16        -0.23369
      11 -> 17        -0.20738
      12 -> 15        -0.31371
      12 -> 16         0.31415
      12 -> 17         0.13177
      12 -> 18         0.15650
      12 -> 19        -0.18483

 Excited State  14:      Singlet-A      9.9579 eV  124.51 nm  f=0.0719  <S**2>=0.000
      10 -> 16        -0.13761
      13 -> 20         0.51115
      13 -> 21         0.43803

 Excited State  15:      Singlet-A     10.1462 eV  122.20 nm  f=0.0349  <S**2>=0.000
       8 -> 15         0.15112
       9 -> 15         0.24885
      10 -> 14        -0.11134
      11 -> 15         0.40673
      11 -> 16        -0.10182
      11 -> 19         0.24179
      12 -> 17         0.26019
      12 -> 18         0.16691

 The electronic state is 1-A.
 Alpha  occ. eigenvalues --   -1.94347  -1.20253  -0.98785  -0.82060  -0.80944
 Alpha  occ. eigenvalues --   -0.68546  -0.67687  -0.53471  -0.49985  -0.43003
 Alpha  occ. eigenvalues --   -0.42757  -0.38606  -0.28177
 Alpha virt. eigenvalues --    0.12484   0.19437   0.20175   0.26800   0.28170
 Alpha virt. eigenvalues --    0.30240   0.31852   0.33631   0.36280   0.44776
 Alpha virt. eigenvalues --    0.50057

 Mulliken charges:
               1
     1  C   -0.087728
     2  C   -1.933991
     3  O    3.139989
     4  C   -1.933980
     5  C   -0.118745
     6  H    0.159746
     7  H    0.303985
     8  H    0.313386
     9  H    0.157339
 Sum of Mulliken charges =   0.00000

 Dipole moment (field-independent basis, Debye):
    X=              1.6698    Y=             -9.8373    Z=              0.0032  Tot=              9.9780
 N-N= 1.040647790031D+02 E-N=-1.694403513941D+02  KE=-1.567043367805D+01
 Orbital energies and kinetic energies (alpha):
                                 1                 2
   1         O                -1.943470         -1.413362
   2         O                -1.202535         -1.070646
   3         O                -0.987854         -0.905038
   4         O                -0.820602         -0.630529
   5         O                -0.809439         -0.707679
   6         O                -0.685460         -0.563049
   7         O                -0.676869         -0.584512

 Normal termination of Gaussian 09 at Tue Dec 15 17:09:57 2015.
