 Gaussian 09, Revision D.01,
 Gaussian 09:  ES64L-G09RevD.01 24-Apr-2013

 ----------------------------
 #P AM1(Input,print) Opt Freq
 ----------------------------

 -----------------
 AM1-Reparam Input
 -----------------
 Symbolic Z-matrix:
 Charge =  0 Multiplicity = 1

 SCF Done:  E(RAM1) =   1.80140900094     A.U. after   12 cycles
 SCF Done:  E(RAM1) =   1.75906396491     A.U. after   11 cycles
 SCF Done:  E(RAM1) =   1.75288385173     A.U. after   11 cycles
 SCF Done:  E(RAM1) =   1.75253870018     A.U. after   10 cycles
 SCF Done:  E(RAM1) =   1.75206350324     A.U. after   10 cycles
 SCF Done:  E(RAM1) =   1.75204918671     A.U. after   10 cycles
 SCF Done:  E(RAM1) =   1.75202328544     A.U. after   10 cycles
 SCF Done:  E(RAM1) =   1.75201864059     A.U. after    9 cycles
 Optimization completed.
    -- Stationary point found.
 Normal termination of Gaussian 09 at Tue Dec  1 17:37:56 2015.

 -------------------------------------------------------------
 #P Geom=AllCheck Guess=TCheck SCRF=Check GenChk RAM1/ZDO Freq
 -------------------------------------------------------------

 Structure from the checkpoint file:  "/home/Applications/g09/scratch/Gau-23898.chk"
 -----------------
 AM1-Reparam Input
 -----------------
 Charge =  0 Multiplicity = 1

                         Standard orientation:
 ---------------------------------------------------------------------
 Center     Atomic      Atomic             Coordinates (Angstroms)
 Number     Number       Type             X           Y           Z
 ---------------------------------------------------------------------
      1          6           0        0.679562    0.911202    0.000023
      2          6           0        1.080011   -0.324367   -0.000034
      3          8           0        0.000263   -1.141103    0.000011
      4          6           0       -1.079815   -0.324781    0.000026
      5          6           0       -0.679993    0.910816    0.000040
      6          1           0       -1.304323    1.794562   -0.000192
      7          1           0       -2.056828   -0.749807   -0.000162
      8          1           0        2.057371   -0.748759   -0.000039
      9          1           0        1.303083    1.795606   -0.000036
 ---------------------------------------------------------------------

 SCF Done:  E(RAM1) =   1.75201864059     A.U. after    2 cycles

 The electronic state is 1-A.
 Alpha  occ. eigenvalues --   -1.58327  -1.12501  -0.93844  -0.86505  -0.81477
 Alpha  occ. eigenvalues --   -0.73501  -0.71369  -0.58533  -0.56183  -0.53704
 Alpha  occ. eigenvalues --   -0.51305  -0.48210  -0.40833
 Alpha virt. eigenvalues --    0.02917   0.07858   0.12699   0.13968   0.19244
 Alpha virt. eigenvalues --    0.20922   0.21525   0.39830   0.49348   0.60332
 Alpha virt. eigenvalues --    0.69779

 Mulliken charges:
               1
     1  C   -0.098902
     2  C    0.356026
     3  O   -0.287411
     4  C    0.356054
     5  C   -0.098881
     6  H   -0.023010
     7  H   -0.090436
     8  H   -0.090425
     9  H   -0.023015
 Sum of Mulliken charges =   0.00000

 Dipole moment (field-independent basis, Debye):
    X=             -0.0003    Y=              0.4410    Z=              0.0000  Tot=              0.4410
 N-N= 1.049794465040D+02 E-N=-1.735437445294D+02  KE=-1.318523377149D+01
  Exact polarizability:  35.610  -0.002  36.508   0.000   0.000   6.386
 Approx polarizability:  28.079  -0.002  33.539   0.000   0.000   5.004
 Leave Link  601 at Tue Dec  1 17:37:56 2015, MaxMem=    33554432 cpu:         0.0
 (Enter /home/Applications/g09/g09/l701.exe)
 Compute integral second derivatives.
 ... and contract with generalized density number  0.
 Leave Link  701 at Tue Dec  1 17:37:56 2015, MaxMem=    33554432 cpu:         0.0
 (Enter /home/Applications/g09/g09/l702.exe)
 L702 exits ... SP integral derivatives will be done elsewhere.

                      1                      2                      3
                      A                      A                      A
 Frequencies --    649.6400               657.5273               773.6159
 Red. masses --      2.1613                 1.7733                 7.1202
 Frc consts  --      0.5374                 0.4517                 2.5107
 IR Inten    --      3.4179                 0.0006                 4.2971

                      4                      5                      6
                      A                      A                      A
 Frequencies --    838.0040               992.2995              1131.0339
 Red. masses --      7.7060                 1.1753                 1.0454
 Frc consts  --      3.1884                 0.6818                 0.7879
 IR Inten    --      0.0067                 3.6455                 5.8274

                      7                      8                      9
                      A                      A                      A
 Frequencies --   1132.5134              1155.4554              1171.3695
 Red. masses --      1.2952                 1.0973                 1.8055
 Frc consts  --      0.9788                 0.8632                 1.4596
 IR Inten    --      0.0000                 9.8661                33.0942

                     10                     11                     12
                      A                      A                      A
 Frequencies --   1183.8018              1251.0872              1340.4959
 Red. masses --      1.9273                 1.0812                 1.1695
 Frc consts  --      1.5913                 0.9971                 1.2381
 IR Inten    --      0.0033                 0.7480                 2.8372

                     13                     14                     15
                      A                      A                      A
 Frequencies --   1558.5840              1641.4522              1771.7325
 Red. masses --      7.9921                10.2134                 6.8495
 Frc consts  --     11.4385                16.2136                12.6679
 IR Inten    --     30.8063                 2.6606                36.6293

                     16                     17                     18
                      A                      A                      A
 Frequencies --   1945.5139              2016.3618              3275.6735
 Red. masses --      9.5594                 8.4774                 1.0779
 Frc consts  --     21.3182                20.3071                 6.8146
 IR Inten    --     52.4331                 2.2122                84.7393

                     19                     20                     21
                      A                      A                      A
 Frequencies --   3292.5004              3387.0150              3388.7344
 Red. masses --      1.0859                 1.0789                 1.0815
 Frc consts  --      6.9357                 7.2925                 7.3171
 IR Inten    --    146.5160                58.7557                 8.0756

 - Thermochemistry -
 -------------------
 Temperature   298.150 Kelvin.  Pressure   1.00000 Atm.
 Atom     1 has atomic number  6 and mass  12.00000

 Molecular mass:    68.02621 amu.
 Principal axes and moments of inertia in atomic units:
                           1         2         3
     Eigenvalues --   181.54528 182.24876 363.79403
           X            0.99999   0.00433   0.00001
           Y           -0.00433   0.99999  -0.00001
           Z           -0.00001   0.00001   1.00000
 This molecule is an asymmetric top.
 Rotational symmetry number  1.
 Rotational temperatures (Kelvin)      0.47709     0.47525     0.23808
 Rotational constants (GHZ):           9.94100     9.90263     4.96089
 Zero-point vibrational energy     206681.3 (Joules/Mol)
                                   49.39801 (Kcal/Mol)
 Vibrational temperatures:    934.69   946.03  1113.06  1205.70  1427.70
          (Kelvin)           1627.30  1629.43  1662.44  1685.34  1703.22
                             1800.03  1928.67  2242.45  2361.68  2549.12
                             2799.16  2901.09  4712.96  4737.17  4873.15
                             4875.63

 Zero-point correction=                           0.078721 (Hartree/Particle)
 Thermal correction to Energy=                    0.082145
 Thermal correction to Enthalpy=                  0.083089
 Thermal correction to Gibbs Free Energy=         0.052615
 Sum of electronic and zero-point Energies=              1.830739
 Sum of electronic and thermal Energies=                 1.834163
 Sum of electronic and thermal Enthalpies=               1.835107
 Sum of electronic and thermal Free Energies=            1.804633

                     E (Thermal)             CV                S
                      KCal/Mol        Cal/Mol-Kelvin    Cal/Mol-Kelvin
 Total                   51.546             11.121             64.138
 Electronic               0.000              0.000              0.000
 Translational            0.889              2.981             38.570
 Rotational               0.889              2.981             24.002
 Vibrational             49.769              5.160              1.566

 Optimization completed.
    -- Stationary point found.
 Normal termination of Gaussian 09 at Tue Dec  1 17:37:56 2015.
