 Gaussian 09, Revision D.01,
 Gaussian 09:  ES64L-G09RevD.01 24-Apr-2013

 ------------------------------------------------------------
 #P AM1(Input,print) CIS(Singlets,NStates=15) pop(full) force
 ------------------------------------------------------------

 -----------------
 AM1-Reparam Input
 -----------------
 Symbolic Z-matrix:
 Charge =  0 Multiplicity = 1

                         Standard orientation:
 ---------------------------------------------------------------------
 Center     Atomic      Atomic             Coordinates (Angstroms)
 Number     Number       Type             X           Y           Z
 ---------------------------------------------------------------------
      1          6           0        0.811789    0.906537    0.025962
      2          6           0        1.075719   -0.432537   -0.019495
      3          8           0       -0.075229   -1.151355    0.012376
      4          6           0       -1.172783   -0.259584   -0.018905
      5          6           0       -0.628214    1.018835    0.000406
      6          1           0       -1.201693    1.945600   -0.018772
      7          1           0       -2.175478   -0.712502    0.035409
      8          1           0        1.920125   -1.066049   -0.008658
      9          1           0        1.539818    1.644287   -0.034797
 ---------------------------------------------------------------------

 SCF Done:  E(RAM1) =   1.81513285096     A.U. after   14 cycles

 Excitation energies and oscillator strengths:

 Excited State   1:      Singlet-A      5.6130 eV  220.89 nm  f=0.3366  <S**2>=0.000
      11 -> 17         0.10721
      13 -> 14         0.69019
 This state for optimization and/or second-order correction.
 Total Energy, E(CIS) =   2.02140532409
 Copying the excited state density for this state as the 1-particle RhoCI density.

 Excited State   2:      Singlet-A      6.4583 eV  191.98 nm  f=0.0016  <S**2>=0.000
      10 -> 15         0.12585
      13 -> 15         0.66367
      13 -> 17        -0.16085

 Excited State   3:      Singlet-A      6.7858 eV  182.71 nm  f=0.0015  <S**2>=0.000
      12 -> 14         0.69743

 Excited State   4:      Singlet-A      6.8927 eV  179.88 nm  f=0.0017  <S**2>=0.000
      10 -> 16        -0.13039
      13 -> 16         0.65100
      13 -> 17        -0.13302
      13 -> 18         0.12522
      13 -> 19        -0.11187

 Excited State   5:      Singlet-A      7.7113 eV  160.78 nm  f=0.0062  <S**2>=0.000
      11 -> 14         0.69243
      13 -> 17        -0.10190

 Excited State   6:      Singlet-A      8.1053 eV  152.97 nm  f=0.0072  <S**2>=0.000
      10 -> 15         0.11098
      11 -> 14         0.10634
      13 -> 15         0.14193
      13 -> 17         0.54699
      13 -> 18         0.31956
      13 -> 21        -0.20611

 Excited State   7:      Singlet-A      8.3022 eV  149.34 nm  f=0.0078  <S**2>=0.000
      10 -> 16         0.13030
      13 -> 16        -0.15240
      13 -> 17        -0.36055
      13 -> 18         0.49988
      13 -> 21        -0.25214

 Excited State   8:      Singlet-A      8.8946 eV  139.39 nm  f=0.0629  <S**2>=0.000
      10 -> 14         0.65411
      12 -> 16         0.10023
      13 -> 22        -0.10271

 Excited State   9:      Singlet-A      8.9867 eV  137.96 nm  f=0.0010  <S**2>=0.000
      13 -> 19         0.67343

 Excited State  10:      Singlet-A      9.1188 eV  135.97 nm  f=0.0084  <S**2>=0.000
       8 -> 15         0.12267
      11 -> 16         0.14911
      11 -> 17        -0.22230
      12 -> 15         0.44046
      12 -> 16        -0.19439
      12 -> 17        -0.12139
      12 -> 18        -0.28083
      12 -> 21         0.11426

 Excited State  11:      Singlet-A      9.5889 eV  129.30 nm  f=0.1356  <S**2>=0.000
       9 -> 15        -0.13439
      10 -> 14         0.13678
      11 -> 15         0.42385
      11 -> 17        -0.21656
      12 -> 15        -0.39228
      12 -> 18        -0.17198

 Excited State  12:      Singlet-A      9.6123 eV  128.98 nm  f=0.0087  <S**2>=0.000
      10 -> 15        -0.12905
      13 -> 18         0.33866
      13 -> 20        -0.23593
      13 -> 21         0.53829

 Excited State  13:      Singlet-A      9.7546 eV  127.10 nm  f=0.1371  <S**2>=0.000
       9 -> 16         0.11815
      11 -> 16         0.25148
      12 -> 16         0.56944
      12 -> 17        -0.20081
      12 -> 19        -0.11624

 Excited State  14:      Singlet-A      9.8859 eV  125.42 nm  f=0.0789  <S**2>=0.000
      10 -> 16        -0.11400
      13 -> 20         0.62777
      13 -> 21         0.25350

 Excited State  15:      Singlet-A      9.9964 eV  124.03 nm  f=0.0862  <S**2>=0.000
       8 -> 15         0.13739
       9 -> 15        -0.17070
      10 -> 14        -0.14572
      10 -> 15        -0.26093
      11 -> 15         0.28292
      11 -> 16        -0.10229
      11 -> 19         0.21538
      12 -> 15         0.19304
      12 -> 16         0.12842
      12 -> 17         0.22859
      12 -> 18         0.20100

 The electronic state is 1-A.
 Alpha  occ. eigenvalues --   -1.93363  -1.20030  -0.97431  -0.81923  -0.79740
 Alpha  occ. eigenvalues --   -0.67772  -0.66690  -0.52832  -0.50053  -0.42352
 Alpha  occ. eigenvalues --   -0.41451  -0.38463  -0.27918
 Alpha virt. eigenvalues --    0.13334   0.18520   0.20253   0.26222   0.28674
 Alpha virt. eigenvalues --    0.30226   0.32232   0.34028   0.34538   0.43256
 Alpha virt. eigenvalues --    0.48202

 Mulliken charges:
               1
     1  C   -0.132891
     2  C   -1.911363
     3  O    3.134399
     4  C   -1.914878
     5  C   -0.080254
     6  H    0.154546
     7  H    0.296850
     8  H    0.291303
     9  H    0.162288
 Sum of Mulliken charges =   0.00000

 Dipole moment (field-independent basis, Debye):
    X=             -0.4522    Y=            -10.4886    Z=              0.4839  Tot=             10.5095
 N-N= 1.035266107376D+02 E-N=-1.686132141655D+02  KE=-1.560939320876D+01
 Orbital energies and kinetic energies (alpha):
                                 1                 2
   1         O                -1.933626         -1.389878
   2         O                -1.200305         -1.068928
   3         O                -0.974308         -0.895518
   4         O                -0.819229         -0.650436
   5         O                -0.797401         -0.675066
   6         O                -0.677719         -0.561871
   7         O                -0.666901         -0.586884

 Normal termination of Gaussian 09 at Tue Dec 15 17:10:05 2015.
