 Gaussian 09, Revision D.01,
 Gaussian 09:  ES64L-G09RevD.01 24-Apr-2013

 ------------------------------------------------------------
 #P AM1(Input,print) CIS(Singlets,NStates=15) pop(full) force
 ------------------------------------------------------------

 -----------------
 AM1-Reparam Input
 -----------------
 Symbolic Z-matrix:
 Charge =  0 Multiplicity = 1

                         Standard orientation:
 ---------------------------------------------------------------------
 Center     Atomic      Atomic             Coordinates (Angstroms)
 Number     Number       Type             X           Y           Z
 ---------------------------------------------------------------------
      1          6           0       -0.948388    0.813173   -0.020257
      2          6           0       -0.985423   -0.618480   -0.014085
      3          8           0        0.261296   -1.072863    0.015507
      4          6           0        1.185691   -0.120481   -0.012115
      5          6           0        0.485941    1.046557    0.028516
      6          1           0        0.912059    2.022266   -0.028832
      7          1           0        2.133718   -0.338212   -0.046274
      8          1           0       -1.858493   -1.254421    0.018396
      9          1           0       -1.704583    1.428654    0.040298
 ---------------------------------------------------------------------

 SCF Done:  E(RAM1) =  0.484025356614E-01 A.U. after   14 cycles

 Excitation energies and oscillator strengths:

 Excited State   1:      Singlet-A      4.4188 eV  280.59 nm  f=0.0765  <S**2>=0.000
      12 -> 15         0.23784
      13 -> 14         0.62701
      13 -> 16        -0.19813
 This state for optimization and/or second-order correction.
 Total Energy, E(CIS) =  0.210789242250
 Copying the excited state density for this state as the 1-particle RhoCI density.

 Excited State   2:      Singlet-A      4.5011 eV  275.45 nm  f=0.0081  <S**2>=0.000
      13 -> 14         0.18683
      13 -> 16         0.65892

 Excited State   3:      Singlet-A      4.8566 eV  255.29 nm  f=0.0103  <S**2>=0.000
      12 -> 14        -0.41053
      13 -> 15         0.56674

 Excited State   4:      Singlet-A      5.6512 eV  219.39 nm  f=0.0026  <S**2>=0.000
       7 -> 16        -0.15474
      12 -> 16         0.65385

 Excited State   5:      Singlet-A      5.6764 eV  218.42 nm  f=0.0014  <S**2>=0.000
      12 -> 17         0.18267
      12 -> 18        -0.15100
      12 -> 21        -0.10745
      13 -> 17         0.44231
      13 -> 18        -0.34006
      13 -> 21        -0.25838
      13 -> 23         0.11646

 Excited State   6:      Singlet-A      5.9925 eV  206.90 nm  f=0.3236  <S**2>=0.000
      11 -> 18        -0.10203
      12 -> 14         0.51606
      13 -> 15         0.37358

 Excited State   7:      Singlet-A      6.0673 eV  204.35 nm  f=0.0194  <S**2>=0.000
      12 -> 14        -0.11731
      12 -> 18         0.11747
      12 -> 19        -0.26595
      12 -> 23         0.13259
      13 -> 17        -0.13442
      13 -> 18        -0.27314
      13 -> 19         0.40138
      13 -> 22         0.12318
      13 -> 23        -0.19051

 Excited State   8:      Singlet-A      6.1467 eV  201.71 nm  f=0.1806  <S**2>=0.000
      12 -> 15         0.63580
      13 -> 14        -0.22906

 Excited State   9:      Singlet-A      6.5473 eV  189.37 nm  f=0.0064  <S**2>=0.000
      11 -> 14         0.41617
      11 -> 15         0.14833
      12 -> 18        -0.17725
      13 -> 17        -0.19387
      13 -> 18        -0.30140
      13 -> 19        -0.26895

 Excited State  10:      Singlet-A      6.6138 eV  187.46 nm  f=0.0037  <S**2>=0.000
      10 -> 14        -0.20999
      10 -> 15         0.14339
      11 -> 14         0.39328
      11 -> 15         0.14959
      12 -> 17         0.12198
      12 -> 18         0.10591
      12 -> 20         0.10267
      13 -> 17         0.26096
      13 -> 18         0.29377
      13 -> 19         0.12978
      13 -> 23         0.10112

 Excited State  11:      Singlet-A      6.9127 eV  179.36 nm  f=0.0003  <S**2>=0.000
      12 -> 17         0.11021
      12 -> 18         0.52457
      12 -> 20         0.20534
      12 -> 21        -0.19288
      13 -> 18        -0.20559
      13 -> 19        -0.18632

 Excited State  12:      Singlet-A      7.1238 eV  174.04 nm  f=0.0009  <S**2>=0.000
       9 -> 14         0.11228
       9 -> 15        -0.11797
      10 -> 14         0.51595
      10 -> 15        -0.21288
      11 -> 14         0.14896
      11 -> 15         0.31597
      13 -> 19         0.11258

 Excited State  13:      Singlet-A      7.3235 eV  169.30 nm  f=0.0106  <S**2>=0.000
      12 -> 19         0.26641
      13 -> 17         0.24718
      13 -> 18        -0.17495
      13 -> 19         0.24634
      13 -> 20        -0.21572
      13 -> 21         0.37636
      13 -> 22        -0.15619

 Excited State  14:      Singlet-A      7.5297 eV  164.66 nm  f=0.0510  <S**2>=0.000
      10 -> 16        -0.42553
      11 -> 16         0.50024

 Excited State  15:      Singlet-A      7.5460 eV  164.31 nm  f=0.0007  <S**2>=0.000
       9 -> 15        -0.10963
      10 -> 15         0.28519
      11 -> 14        -0.15079
      11 -> 15         0.20556
      12 -> 17         0.36196
      12 -> 18        -0.15390
      12 -> 20         0.17854
      13 -> 17        -0.13349
      13 -> 19         0.10286
      13 -> 20        -0.24537
      13 -> 22        -0.10395
      13 -> 24         0.10688

 The electronic state is 1-A.
 Alpha  occ. eigenvalues --   -1.58967  -1.22574  -1.12060  -0.84085  -0.81801
 Alpha  occ. eigenvalues --   -0.69935  -0.61807  -0.59469  -0.52448  -0.49315
 Alpha  occ. eigenvalues --   -0.48198  -0.38636  -0.34241
 Alpha virt. eigenvalues --    0.03060   0.05706   0.08366   0.14595   0.14974
 Alpha virt. eigenvalues --    0.16275   0.18475   0.18744   0.19838   0.21111
 Alpha virt. eigenvalues --    0.23312

 Mulliken charges:
               1
     1  C   -0.209136
     2  C   -0.109172
     3  O   -0.060058
     4  C   -0.088229
     5  C   -0.221477
     6  H    0.144523
     7  H    0.186028
     8  H    0.200122
     9  H    0.157399
 Sum of Mulliken charges =   0.00000

 Dipole moment (field-independent basis, Debye):
    X=             -0.1776    Y=              0.0195    Z=              0.0035  Tot=              0.1787
 N-N= 1.039492055311D+02 E-N=-1.716865191329D+02  KE=-1.664436176856D+01
 Orbital energies and kinetic energies (alpha):
                                 1                 2
   1         O                -1.589671         -1.321433
   2         O                -1.225740         -1.051043
   3         O                -1.120602         -0.974785
   4         O                -0.840847         -0.718811
   5         O                -0.818008         -0.731729
   6         O                -0.699350         -0.606432
   7         O                -0.618074         -0.494811

 Normal termination of Gaussian 09 at Tue Dec 15 16:19:44 2015.
