 Gaussian 09, Revision D.01,
 Gaussian 09:  ES64L-G09RevD.01 24-Apr-2013

 ------------------------------------------------------------
 #P AM1(Input,print) CIS(Singlets,NStates=15) pop(full) force
 ------------------------------------------------------------

 -----------------
 AM1-Reparam Input
 -----------------
 Symbolic Z-matrix:
 Charge =  0 Multiplicity = 1

                         Standard orientation:
 ---------------------------------------------------------------------
 Center     Atomic      Atomic             Coordinates (Angstroms)
 Number     Number       Type             X           Y           Z
 ---------------------------------------------------------------------
      1          6           0        0.675878    0.981242   -0.020475
      2          6           0        1.064960   -0.289038    0.002296
      3          8           0        0.104754   -1.110560   -0.010340
      4          6           0       -1.089262   -0.452070    0.017828
      5          6           0       -0.756986    0.920529   -0.005822
      6          1           0       -1.513018    1.690538    0.009793
      7          1           0       -1.987048   -0.944526   -0.002989
      8          1           0        2.122285   -0.706192    0.045864
      9          1           0        1.172203    1.880684    0.067091
 ---------------------------------------------------------------------

 SCF Done:  E(RAM1) =   1.37498369457     A.U. after   13 cycles

 Excitation energies and oscillator strengths:

 Excited State   1:      Singlet-A      5.9239 eV  209.29 nm  f=0.0312  <S**2>=0.000
      12 -> 15         0.11552
      13 -> 14         0.25127
      13 -> 15         0.62910
      13 -> 17        -0.10547
 This state for optimization and/or second-order correction.
 Total Energy, E(CIS) =   1.59268406318
 Copying the excited state density for this state as the 1-particle RhoCI density.

 Excited State   2:      Singlet-A      6.0412 eV  205.23 nm  f=0.2943  <S**2>=0.000
      13 -> 14         0.64613
      13 -> 15        -0.24781

 Excited State   3:      Singlet-A      7.0529 eV  175.79 nm  f=0.0027  <S**2>=0.000
      12 -> 16        -0.11312
      13 -> 16         0.61942
      13 -> 17        -0.20788
      13 -> 18        -0.13112
      13 -> 22        -0.13753

 Excited State   4:      Singlet-A      7.3830 eV  167.93 nm  f=0.0020  <S**2>=0.000
       9 -> 14        -0.10160
      11 -> 14         0.68031

 Excited State   5:      Singlet-A      7.9433 eV  156.09 nm  f=0.0098  <S**2>=0.000
      10 -> 14         0.10500
      12 -> 15         0.11784
      13 -> 17         0.44395
      13 -> 18        -0.28254
      13 -> 19        -0.13347
      13 -> 22        -0.38403

 Excited State   6:      Singlet-A      8.0687 eV  153.66 nm  f=0.0025  <S**2>=0.000
      10 -> 14         0.20094
      12 -> 15        -0.12500
      12 -> 16        -0.18416
      13 -> 16         0.18448
      13 -> 17         0.40935
      13 -> 18         0.26868
      13 -> 20         0.23428
      13 -> 22         0.25329

 Excited State   7:      Singlet-A      8.2636 eV  150.04 nm  f=0.0030  <S**2>=0.000
      10 -> 14         0.63749
      12 -> 14        -0.15730
      13 -> 17        -0.20170

 Excited State   8:      Singlet-A      8.4478 eV  146.76 nm  f=0.0853  <S**2>=0.000
      10 -> 14         0.15669
      11 -> 15         0.10743
      12 -> 14         0.64822
      13 -> 21        -0.15815

 Excited State   9:      Singlet-A      8.6578 eV  143.20 nm  f=0.0032  <S**2>=0.000
       7 -> 15        -0.10668
      12 -> 15         0.58303
      13 -> 15        -0.10480
      13 -> 18         0.18661
      13 -> 19        -0.19611
      13 -> 20         0.18056

 Excited State  10:      Singlet-A      8.8869 eV  139.51 nm  f=0.0015  <S**2>=0.000
      12 -> 15         0.21308
      13 -> 15        -0.11524
      13 -> 16         0.14438
      13 -> 17         0.11230
      13 -> 19         0.45409
      13 -> 20        -0.41076

 Excited State  11:      Singlet-A      8.9499 eV  138.53 nm  f=0.0016  <S**2>=0.000
      12 -> 15        -0.14460
      13 -> 18         0.52900
      13 -> 20        -0.12264
      13 -> 22        -0.39834

 Excited State  12:      Singlet-A      9.3583 eV  132.49 nm  f=0.1651  <S**2>=0.000
       8 -> 15         0.18147
      11 -> 15         0.62261
      12 -> 14        -0.12222

 Excited State  13:      Singlet-A      9.3733 eV  132.27 nm  f=0.0774  <S**2>=0.000
      12 -> 16         0.27730
      13 -> 19         0.42872
      13 -> 20         0.38979
      13 -> 22        -0.22976

 Excited State  14:      Singlet-A      9.8499 eV  125.87 nm  f=0.0101  <S**2>=0.000
       9 -> 15         0.34355
      10 -> 15         0.40238
      10 -> 16         0.14616
      10 -> 17        -0.24490
      11 -> 16         0.15376
      11 -> 18        -0.13441
      12 -> 16         0.14517

 Excited State  15:      Singlet-A      9.9190 eV  125.00 nm  f=0.0041  <S**2>=0.000
      12 -> 16         0.52600
      12 -> 17        -0.11884
      12 -> 20         0.16206
      13 -> 16         0.17802
      13 -> 17         0.11497
      13 -> 19        -0.12589
      13 -> 20        -0.15628
      13 -> 22         0.16254

 The electronic state is 1-A.
 Alpha  occ. eigenvalues --   -1.92136  -1.19344  -0.97000  -0.80031  -0.76972
 Alpha  occ. eigenvalues --   -0.68213  -0.63932  -0.51635  -0.47611  -0.41284
 Alpha  occ. eigenvalues --   -0.38842  -0.37573  -0.26130
 Alpha virt. eigenvalues --    0.16312   0.18101   0.24414   0.28266   0.30417
 Alpha virt. eigenvalues --    0.32066   0.33051   0.33278   0.34299   0.42547
 Alpha virt. eigenvalues --    0.49045

 Mulliken charges:
               1
     1  C   -0.084054
     2  C   -1.591930
     3  O    2.817701
     4  C   -1.607734
     5  C   -0.041581
     6  H    0.069634
     7  H    0.173936
     8  H    0.190993
     9  H    0.073035
 Sum of Mulliken charges =   0.00000

 Dipole moment (field-independent basis, Debye):
    X=              1.6314    Y=             -8.5754    Z=             -0.1543  Tot=              8.7306
 N-N= 1.043018378073D+02 E-N=-1.710916009334D+02  KE=-1.594807083109D+01
 Orbital energies and kinetic energies (alpha):
                                 1                 2
   1         O                -1.921363         -1.430057
   2         O                -1.193440         -1.072302
   3         O                -0.970000         -0.872296
   4         O                -0.800305         -0.637261
   5         O                -0.769724         -0.702438
   6         O                -0.682129         -0.627096
   7         O                -0.639315         -0.546397

 Normal termination of Gaussian 09 at Tue Dec 15 17:08:09 2015.
