 Gaussian 09, Revision D.01,
 Gaussian 09:  ES64L-G09RevD.01 24-Apr-2013

 ------------------------------------------------------------
 #P AM1(Input,print) CIS(Singlets,NStates=15) pop(full) force
 ------------------------------------------------------------

 -----------------
 AM1-Reparam Input
 -----------------
 Symbolic Z-matrix:
 Charge =  0 Multiplicity = 1

                         Standard orientation:
 ---------------------------------------------------------------------
 Center     Atomic      Atomic             Coordinates (Angstroms)
 Number     Number       Type             X           Y           Z
 ---------------------------------------------------------------------
      1          6           0       -0.854886    0.855175    0.007371
      2          6           0       -1.039381   -0.523795   -0.018260
      3          8           0        0.161980   -1.110345    0.011342
      4          6           0        1.149741   -0.200510   -0.033841
      5          6           0        0.565601    1.020617    0.019370
      6          1           0        1.073919    1.971679   -0.025861
      7          1           0        2.154652   -0.508292    0.067459
      8          1           0       -1.846721   -1.133546    0.036402
      9          1           0       -1.604135    1.643992   -0.016579
 ---------------------------------------------------------------------

 SCF Done:  E(RAM1) =   1.09621038590     A.U. after   14 cycles

 Excitation energies and oscillator strengths:

 Excited State   1:      Singlet-A      5.5743 eV  222.42 nm  f=0.2140  <S**2>=0.000
      12 -> 16        -0.13476
      13 -> 14         0.68067
 This state for optimization and/or second-order correction.
 Total Energy, E(CIS) =   1.30106295818
 Copying the excited state density for this state as the 1-particle RhoCI density.

 Excited State   2:      Singlet-A      6.5621 eV  188.94 nm  f=0.0050  <S**2>=0.000
      13 -> 15         0.68450
      13 -> 20         0.13000

 Excited State   3:      Singlet-A      7.1157 eV  174.24 nm  f=0.0001  <S**2>=0.000
      12 -> 14         0.20110
      13 -> 16         0.25371
      13 -> 17         0.57500
      13 -> 18         0.15883
      13 -> 21         0.14352

 Excited State   4:      Singlet-A      7.1445 eV  173.54 nm  f=0.0010  <S**2>=0.000
      12 -> 14         0.45104
      13 -> 16         0.42129
      13 -> 17        -0.29913

 Excited State   5:      Singlet-A      7.2241 eV  171.63 nm  f=0.0001  <S**2>=0.000
       9 -> 14         0.19680
      11 -> 14         0.66968

 Excited State   6:      Singlet-A      7.8723 eV  157.49 nm  f=0.0017  <S**2>=0.000
      10 -> 14         0.67534
      11 -> 16        -0.13881

 Excited State   7:      Singlet-A      8.0876 eV  153.30 nm  f=0.2440  <S**2>=0.000
      11 -> 15        -0.11749
      11 -> 20        -0.10406
      12 -> 14         0.48570
      13 -> 16        -0.46055

 Excited State   8:      Singlet-A      8.1941 eV  151.31 nm  f=0.0015  <S**2>=0.000
      12 -> 15         0.29389
      13 -> 17        -0.12851
      13 -> 18         0.59212
      13 -> 22         0.14131
      13 -> 23        -0.10589

 Excited State   9:      Singlet-A      8.5312 eV  145.33 nm  f=0.0204  <S**2>=0.000
       9 -> 16        -0.21249
      10 -> 14         0.15360
      11 -> 15         0.17355
      11 -> 16         0.59816

 Excited State  10:      Singlet-A      8.5522 eV  144.97 nm  f=0.0028  <S**2>=0.000
      12 -> 15         0.60068
      12 -> 20         0.10594
      13 -> 17         0.13767
      13 -> 18        -0.25520

 Excited State  11:      Singlet-A      8.7090 eV  142.36 nm  f=0.0007  <S**2>=0.000
      13 -> 19         0.59666
      13 -> 20         0.30133
      13 -> 22         0.10675

 Excited State  12:      Singlet-A      8.9726 eV  138.18 nm  f=0.0508  <S**2>=0.000
       9 -> 15        -0.22227
      10 -> 17         0.15416
      11 -> 15         0.53437
      11 -> 16        -0.15981
      11 -> 20         0.14910
      12 -> 17         0.12087
      13 -> 16        -0.11508
      13 -> 20         0.10552

 Excited State  13:      Singlet-A      9.0426 eV  137.11 nm  f=0.2201  <S**2>=0.000
       8 -> 15        -0.10275
       9 -> 17        -0.16535
      11 -> 18        -0.12033
      12 -> 16         0.61918
      13 -> 14         0.13054

 Excited State  14:      Singlet-A      9.1847 eV  134.99 nm  f=0.0103  <S**2>=0.000
       7 -> 15         0.10600
      12 -> 17         0.60579
      13 -> 19        -0.16125
      13 -> 20         0.22660

 Excited State  15:      Singlet-A      9.2115 eV  134.60 nm  f=0.0032  <S**2>=0.000
       9 -> 14         0.65306
      11 -> 14        -0.19975

 The electronic state is 1-A.
 Alpha  occ. eigenvalues --   -1.84932  -1.18866  -1.00916  -0.87822  -0.81639
 Alpha  occ. eigenvalues --   -0.74584  -0.72243  -0.62661  -0.56095  -0.52793
 Alpha  occ. eigenvalues --   -0.49982  -0.47896  -0.39383
 Alpha virt. eigenvalues --    0.02532   0.09560   0.10128   0.11447   0.17430
 Alpha virt. eigenvalues --    0.18903   0.19587   0.21217   0.25977   0.26394
 Alpha virt. eigenvalues --    0.28440

 Mulliken charges:
               1
     1  C   -0.124196
     2  C   -1.271583
     3  O    2.173410
     4  C   -1.277620
     5  C   -0.136051
     6  H    0.118548
     7  H    0.209183
     8  H    0.192026
     9  H    0.116282
 Sum of Mulliken charges =   0.00000

 Dipole moment (field-independent basis, Debye):
    X=              1.0765    Y=             -6.4653    Z=              0.4854  Tot=              6.5723
 N-N= 1.046769367592D+02 E-N=-1.715339128871D+02  KE=-1.503126186862D+01
 Orbital energies and kinetic energies (alpha):
                                 1                 2
   1         O                -1.849320         -1.262869
   2         O                -1.188660         -0.958038
   3         O                -1.009165         -0.806772
   4         O                -0.878221         -0.645296
   5         O                -0.816395         -0.681840
   6         O                -0.745843         -0.592594
   7         O                -0.722432         -0.519661

 Normal termination of Gaussian 09 at Tue Dec 15 17:05:41 2015.
