 Gaussian 09, Revision D.01,
 Gaussian 09:  ES64L-G09RevD.01 24-Apr-2013

 ------------------------------------------------------------
 #P AM1(Input,print) CIS(Singlets,NStates=15) pop(full) force
 ------------------------------------------------------------

 -----------------
 AM1-Reparam Input
 -----------------
 Symbolic Z-matrix:
 Charge =  0 Multiplicity = 1

                         Standard orientation:
 ---------------------------------------------------------------------
 Center     Atomic      Atomic             Coordinates (Angstroms)
 Number     Number       Type             X           Y           Z
 ---------------------------------------------------------------------
      1          6           0       -1.066028    0.549571    0.013166
      2          6           0       -0.878971   -0.796044   -0.016967
      3          8           0        0.582850   -1.035453    0.006998
      4          6           0        1.153102    0.178886   -0.007447
      5          6           0        0.175993    1.158476   -0.003216
      6          1           0        0.382676    2.257368   -0.024410
      7          1           0        2.218832    0.183356    0.032427
      8          1           0       -1.469872   -1.686384    0.003517
      9          1           0       -2.099014    0.983952    0.019260
 ---------------------------------------------------------------------

 SCF Done:  E(RAM1) =   2.04184065142     A.U. after   14 cycles

 Excitation energies and oscillator strengths:

 Excited State   1:      Singlet-A      5.5094 eV  225.04 nm  f=0.3160  <S**2>=0.000
      13 -> 14         0.69195
 This state for optimization and/or second-order correction.
 Total Energy, E(CIS) =   2.24430612372
 Copying the excited state density for this state as the 1-particle RhoCI density.

 Excited State   2:      Singlet-A      6.7113 eV  184.74 nm  f=0.0088  <S**2>=0.000
      10 -> 15         0.10177
      13 -> 15         0.64320
      13 -> 17         0.22953

 Excited State   3:      Singlet-A      7.0983 eV  174.67 nm  f=0.0003  <S**2>=0.000
      12 -> 14         0.69064

 Excited State   4:      Singlet-A      7.3236 eV  169.29 nm  f=0.0061  <S**2>=0.000
      11 -> 14         0.15898
      13 -> 16         0.61323
      13 -> 18         0.24116

 Excited State   5:      Singlet-A      7.5277 eV  164.70 nm  f=0.0050  <S**2>=0.000
      11 -> 14         0.68332
      13 -> 16        -0.14491

 Excited State   6:      Singlet-A      8.2684 eV  149.95 nm  f=0.0000  <S**2>=0.000
      13 -> 16        -0.16753
      13 -> 18         0.30502
      13 -> 19         0.36599
      13 -> 21         0.45376

 Excited State   7:      Singlet-A      8.5465 eV  145.07 nm  f=0.0157  <S**2>=0.000
      10 -> 15        -0.12240
      10 -> 16         0.10176
      13 -> 15        -0.20964
      13 -> 17         0.63954

 Excited State   8:      Singlet-A      8.8261 eV  140.47 nm  f=0.0908  <S**2>=0.000
      10 -> 14         0.67007

 Excited State   9:      Singlet-A      9.1701 eV  135.21 nm  f=0.0016  <S**2>=0.000
      10 -> 16         0.12901
      13 -> 16        -0.14961
      13 -> 18         0.48538
      13 -> 19        -0.43358

 Excited State  10:      Singlet-A      9.5514 eV  129.81 nm  f=0.0059  <S**2>=0.000
      13 -> 18        -0.28850
      13 -> 19        -0.37098
      13 -> 20         0.28585
      13 -> 21         0.42469

 Excited State  11:      Singlet-A      9.5941 eV  129.23 nm  f=0.1033  <S**2>=0.000
       9 -> 15         0.15630
      10 -> 14         0.16150
      11 -> 15         0.35645
      11 -> 16         0.24215
      11 -> 17         0.27732
      12 -> 16        -0.15433
      12 -> 18        -0.18130
      12 -> 19        -0.22515
      12 -> 21        -0.12525
      13 -> 14         0.10392

 Excited State  12:      Singlet-A      9.8119 eV  126.36 nm  f=0.0412  <S**2>=0.000
      11 -> 15        -0.23769
      11 -> 16         0.10587
      11 -> 18         0.13644
      12 -> 15         0.54400
      12 -> 17         0.23416
      12 -> 18        -0.15223

 Excited State  13:      Singlet-A      9.9346 eV  124.80 nm  f=0.0737  <S**2>=0.000
      10 -> 15        -0.13219
      13 -> 19         0.15277
      13 -> 20         0.59930
      13 -> 21        -0.26833

 Excited State  14:      Singlet-A     10.1920 eV  121.65 nm  f=0.0041  <S**2>=0.000
       7 -> 15        -0.14160
      10 -> 15         0.61622
      10 -> 16         0.10969
      10 -> 17         0.11479
      13 -> 15        -0.14634
      13 -> 20         0.10218
      13 -> 21        -0.10442

 Excited State  15:      Singlet-A     10.4269 eV  118.91 nm  f=0.1949  <S**2>=0.000
      11 -> 16         0.34594
      11 -> 18         0.12777
      12 -> 16         0.52583
      12 -> 18         0.17546

 The electronic state is 1-A.
 Alpha  occ. eigenvalues --   -1.92399  -1.19403  -0.94183  -0.81102  -0.78529
 Alpha  occ. eigenvalues --   -0.67857  -0.63588  -0.54923  -0.53271  -0.43272
 Alpha  occ. eigenvalues --   -0.41835  -0.40951  -0.29199
 Alpha virt. eigenvalues --    0.12300   0.18763   0.22285   0.25461   0.28254
 Alpha virt. eigenvalues --    0.29179   0.30902   0.31110   0.33030   0.42028
 Alpha virt. eigenvalues --    0.46140

 Mulliken charges:
               1
     1  C   -0.131041
     2  C   -1.983835
     3  O    3.188572
     4  C   -2.013683
     5  C   -0.284607
     6  H    0.262710
     7  H    0.366125
     8  H    0.342091
     9  H    0.253668
 Sum of Mulliken charges =   0.00000

 Dipole moment (field-independent basis, Debye):
    X=              5.5198    Y=             -9.2451    Z=              0.3861  Tot=             10.7745
 N-N= 1.035941513449D+02 E-N=-1.684685484599D+02  KE=-1.542583872732D+01
 Orbital energies and kinetic energies (alpha):
                                 1                 2
   1         O                -1.923991         -1.346343
   2         O                -1.194032         -1.069822
   3         O                -0.941829         -0.862941
   4         O                -0.811017         -0.613250
   5         O                -0.785289         -0.666350
   6         O                -0.678568         -0.566139
   7         O                -0.635883         -0.515803

 Normal termination of Gaussian 09 at Tue Dec 15 17:07:24 2015.
