 Gaussian 09, Revision D.01,
 Gaussian 09:  ES64L-G09RevD.01 24-Apr-2013

 ------------------------------------------------------------
 #P AM1(Input,print) CIS(Singlets,NStates=15) pop(full) force
 ------------------------------------------------------------

 -----------------
 AM1-Reparam Input
 -----------------
 Symbolic Z-matrix:
 Charge =  0 Multiplicity = 1

                         Standard orientation:
 ---------------------------------------------------------------------
 Center     Atomic      Atomic             Coordinates (Angstroms)
 Number     Number       Type             X           Y           Z
 ---------------------------------------------------------------------
      1          6           0       -1.113238    0.442806   -0.004783
      2          6           0       -0.750595   -0.836111    0.021280
      3          8           0        0.627596   -1.017490   -0.014962
      4          6           0        1.104850    0.268298    0.003039
      5          6           0        0.107970    1.210609   -0.013149
      6          1           0        0.178041    2.208215    0.024157
      7          1           0        2.205136    0.340432    0.057520
      8          1           0       -1.369346   -1.803414   -0.005826
      9          1           0       -2.128520    0.881079    0.005513
 ---------------------------------------------------------------------

 SCF Done:  E(RAM1) =   1.80540195522     A.U. after   14 cycles

 Excitation energies and oscillator strengths:

 Excited State   1:      Singlet-A      5.4348 eV  228.13 nm  f=0.3629  <S**2>=0.000
      13 -> 14         0.69386
 This state for optimization and/or second-order correction.
 Total Energy, E(CIS) =   2.00512593498
 Copying the excited state density for this state as the 1-particle RhoCI density.

 Excited State   2:      Singlet-A      6.5202 eV  190.15 nm  f=0.0002  <S**2>=0.000
      13 -> 15         0.65599
      13 -> 16        -0.15023
      13 -> 18         0.14797

 Excited State   3:      Singlet-A      6.5966 eV  187.95 nm  f=0.0041  <S**2>=0.000
      13 -> 15         0.15650
      13 -> 16         0.65672
      13 -> 17        -0.15588

 Excited State   4:      Singlet-A      7.4705 eV  165.96 nm  f=0.0004  <S**2>=0.000
      12 -> 14         0.70059

 Excited State   5:      Singlet-A      8.1105 eV  152.87 nm  f=0.0000  <S**2>=0.000
      13 -> 15        -0.10127
      13 -> 17         0.35787
      13 -> 18         0.53776
      13 -> 20         0.10247
      13 -> 22        -0.19800

 Excited State   6:      Singlet-A      8.4520 eV  146.69 nm  f=0.0094  <S**2>=0.000
      10 -> 14         0.67939
      13 -> 17        -0.12163
      13 -> 18         0.10280

 Excited State   7:      Singlet-A      8.7905 eV  141.04 nm  f=0.0116  <S**2>=0.000
      10 -> 14         0.16258
      11 -> 15         0.11945
      13 -> 16         0.10419
      13 -> 17         0.55107
      13 -> 18        -0.35535

 Excited State   8:      Singlet-A      9.0535 eV  136.95 nm  f=0.0795  <S**2>=0.000
      11 -> 14         0.66632

 Excited State   9:      Singlet-A      9.3892 eV  132.05 nm  f=0.0018  <S**2>=0.000
      11 -> 16        -0.11024
      13 -> 19         0.68135

 Excited State  10:      Singlet-A      9.6349 eV  128.68 nm  f=0.0694  <S**2>=0.000
       9 -> 16        -0.14669
      10 -> 15        -0.11819
      10 -> 17         0.14427
      10 -> 18        -0.13506
      11 -> 14         0.10030
      12 -> 15         0.43100
      12 -> 16        -0.24419
      12 -> 17         0.20417
      12 -> 18         0.25766

 Excited State  11:      Singlet-A     10.2076 eV  121.46 nm  f=0.1170  <S**2>=0.000
      10 -> 15         0.22336
      10 -> 18         0.14532
      12 -> 15         0.48113
      12 -> 16         0.30805
      12 -> 17        -0.19546

 Excited State  12:      Singlet-A     10.2822 eV  120.58 nm  f=0.0258  <S**2>=0.000
      11 -> 16        -0.36083
      13 -> 17        -0.12913
      13 -> 18        -0.16330
      13 -> 20         0.41756
      13 -> 22        -0.35025

 Excited State  13:      Singlet-A     10.3718 eV  119.54 nm  f=0.0159  <S**2>=0.000
       7 -> 15        -0.10006
      11 -> 15         0.39015
      11 -> 16         0.43977
      13 -> 20         0.28047
      13 -> 22        -0.13585

 Excited State  14:      Singlet-A     10.4407 eV  118.75 nm  f=0.2032  <S**2>=0.000
       9 -> 16         0.10836
      10 -> 16        -0.36341
      10 -> 17         0.17761
      12 -> 16         0.45862
      12 -> 17         0.10017
      12 -> 18         0.18342
      12 -> 19        -0.14529

 Excited State  15:      Singlet-A     10.4563 eV  118.57 nm  f=0.0059  <S**2>=0.000
      11 -> 15         0.47922
      11 -> 16        -0.32253
      13 -> 16        -0.10052
      13 -> 18         0.13547
      13 -> 22         0.32279

 The electronic state is 1-A.
 Alpha  occ. eigenvalues --   -1.97849  -1.26835  -0.98255  -0.88675  -0.84547
 Alpha  occ. eigenvalues --   -0.75912  -0.73317  -0.61405  -0.61097  -0.51880
 Alpha  occ. eigenvalues --   -0.51051  -0.48622  -0.35362
 Alpha virt. eigenvalues --    0.05507   0.11165   0.11706   0.20551   0.21600
 Alpha virt. eigenvalues --    0.23916   0.26900   0.28401   0.28691   0.37206
 Alpha virt. eigenvalues --    0.41145

 Mulliken charges:
               1
     1  C   -0.108626
     2  C   -1.876379
     3  O    3.156620
     4  C   -1.882575
     5  C   -0.131805
     6  H    0.132202
     7  H    0.277026
     8  H    0.288462
     9  H    0.145074
 Sum of Mulliken charges =   0.00000

 Dipole moment (field-independent basis, Debye):
    X=              5.7314    Y=            -10.0309    Z=             -0.2826  Tot=             11.5563
 N-N= 1.051726496158D+02 E-N=-1.700249280613D+02  KE=-1.561343178910D+01
 Orbital energies and kinetic energies (alpha):
                                 1                 2
   1         O                -1.978492         -1.352930
   2         O                -1.268346         -1.064660
   3         O                -0.982551         -0.885191
   4         O                -0.886746         -0.579937
   5         O                -0.845468         -0.682369
   6         O                -0.759122         -0.615773
   7         O                -0.733172         -0.542676

 Normal termination of Gaussian 09 at Tue Dec 15 17:09:01 2015.
