 Gaussian 09, Revision D.01,
 Gaussian 09:  ES64L-G09RevD.01 24-Apr-2013

 ------------------------------------------------------------
 #P AM1(Input,print) CIS(Singlets,NStates=15) pop(full) force
 ------------------------------------------------------------

 -----------------
 AM1-Reparam Input
 -----------------
 Symbolic Z-matrix:
 Charge =  0 Multiplicity = 1

                         Standard orientation:
 ---------------------------------------------------------------------
 Center     Atomic      Atomic             Coordinates (Angstroms)
 Number     Number       Type             X           Y           Z
 ---------------------------------------------------------------------
      1          6           0       -0.635852    0.987878    0.013521
      2          6           0       -1.130008   -0.288040    0.007647
      3          8           0       -0.073227   -1.147976    0.000258
      4          6           0        1.100177   -0.403273   -0.007055
      5          6           0        0.726460    0.910716   -0.029787
      6          1           0        1.488692    1.726728    0.064265
      7          1           0        2.010116   -0.945801    0.059112
      8          1           0       -2.049912   -0.717208   -0.032770
      9          1           0       -1.227742    1.876404    0.001369
 ---------------------------------------------------------------------

 SCF Done:  E(RAM1) =   2.04599630803     A.U. after   13 cycles

 Excitation energies and oscillator strengths:

 Excited State   1:      Singlet-A      5.6287 eV  220.27 nm  f=0.3137  <S**2>=0.000
      13 -> 14         0.68930
 This state for optimization and/or second-order correction.
 Total Energy, E(CIS) =   2.25284635520
 Copying the excited state density for this state as the 1-particle RhoCI density.

 Excited State   2:      Singlet-A      7.0532 eV  175.78 nm  f=0.0192  <S**2>=0.000
      12 -> 14        -0.13205
      13 -> 15         0.65700
      13 -> 17        -0.18270

 Excited State   3:      Singlet-A      7.1232 eV  174.06 nm  f=0.0016  <S**2>=0.000
      11 -> 14         0.16293
      12 -> 14         0.65955
      13 -> 15         0.10890

 Excited State   4:      Singlet-A      7.3632 eV  168.38 nm  f=0.0003  <S**2>=0.000
      10 -> 15        -0.11127
      13 -> 16         0.62328
      13 -> 18        -0.26326

 Excited State   5:      Singlet-A      7.5224 eV  164.82 nm  f=0.0052  <S**2>=0.000
      11 -> 14         0.67042
      12 -> 14        -0.16574

 Excited State   6:      Singlet-A      8.3220 eV  148.98 nm  f=0.0000  <S**2>=0.000
      10 -> 15         0.10637
      13 -> 16        -0.15402
      13 -> 18        -0.23029
      13 -> 19         0.51783
      13 -> 20         0.28223
      13 -> 21        -0.22797

 Excited State   7:      Singlet-A      8.8660 eV  139.84 nm  f=0.1073  <S**2>=0.000
      10 -> 14         0.68505
      11 -> 14         0.10441

 Excited State   8:      Singlet-A      9.0278 eV  137.34 nm  f=0.0168  <S**2>=0.000
      10 -> 16        -0.19585
      13 -> 15         0.13913
      13 -> 17         0.64410

 Excited State   9:      Singlet-A      9.3757 eV  132.24 nm  f=0.0010  <S**2>=0.000
      10 -> 15        -0.18218
      13 -> 16         0.17760
      13 -> 18         0.51683
      13 -> 19         0.36872

 Excited State  10:      Singlet-A      9.5393 eV  129.97 nm  f=0.0998  <S**2>=0.000
       9 -> 16         0.13836
      11 -> 15         0.39755
      11 -> 16         0.12013
      11 -> 17        -0.22787
      12 -> 15        -0.22269
      12 -> 16         0.10122
      12 -> 17         0.13491
      12 -> 18        -0.13781
      12 -> 19         0.25511
      13 -> 14         0.12165

 Excited State  11:      Singlet-A      9.8681 eV  125.64 nm  f=0.0081  <S**2>=0.000
      13 -> 18         0.26732
      13 -> 19        -0.29017
      13 -> 20         0.45493
      13 -> 21        -0.35352

 Excited State  12:      Singlet-A     10.0749 eV  123.06 nm  f=0.0082  <S**2>=0.000
      11 -> 15         0.21748
      11 -> 16        -0.28702
      11 -> 18         0.15802
      12 -> 15         0.45475
      12 -> 16         0.24296
      12 -> 17        -0.17444
      12 -> 18        -0.12365

 Excited State  13:      Singlet-A     10.1850 eV  121.73 nm  f=0.0849  <S**2>=0.000
      11 -> 15         0.11335
      12 -> 16        -0.15615
      13 -> 20         0.40085
      13 -> 21         0.51872

 Excited State  14:      Singlet-A     10.2162 eV  121.36 nm  f=0.1678  <S**2>=0.000
      11 -> 15        -0.33172
      11 -> 16         0.13269
      11 -> 20         0.11110
      12 -> 16         0.45844
      12 -> 18        -0.22955
      13 -> 20         0.15270
      13 -> 21         0.14438

 Excited State  15:      Singlet-A     10.4033 eV  119.18 nm  f=0.0112  <S**2>=0.000
      10 -> 15         0.56569
      10 -> 17        -0.11868
      11 -> 16         0.15206
      11 -> 19        -0.11240
      12 -> 15         0.12989
      13 -> 16         0.16283
      13 -> 18         0.10373

 The electronic state is 1-A.
 Alpha  occ. eigenvalues --   -1.94017  -1.21325  -0.96339  -0.82130  -0.79962
 Alpha  occ. eigenvalues --   -0.68759  -0.65274  -0.56022  -0.54578  -0.44255
 Alpha  occ. eigenvalues --   -0.43013  -0.42116  -0.30853
 Alpha virt. eigenvalues --    0.11326   0.19577   0.20687   0.25391   0.27408
 Alpha virt. eigenvalues --    0.28197   0.29923   0.30785   0.34735   0.43440
 Alpha virt. eigenvalues --    0.48298

 Mulliken charges:
               1
     1  C   -0.216213
     2  C   -2.016853
     3  O    3.197670
     4  C   -2.016742
     5  C   -0.195396
     6  H    0.264892
     7  H    0.362447
     8  H    0.358581
     9  H    0.261615
 Sum of Mulliken charges =   0.00000

 Dipole moment (field-independent basis, Debye):
    X=             -0.5027    Y=             -9.9214    Z=              0.1380  Tot=              9.9350
 N-N= 1.045538248941D+02 E-N=-1.699162175203D+02  KE=-1.552659509888D+01
 Orbital energies and kinetic energies (alpha):
                                 1                 2
   1         O                -1.940174         -1.382707
   2         O                -1.213248         -1.073044
   3         O                -0.963389         -0.873759
   4         O                -0.821300         -0.614017
   5         O                -0.799617         -0.677349
   6         O                -0.687585         -0.579181
   7         O                -0.652739         -0.525431

 Normal termination of Gaussian 09 at Tue Dec 15 17:07:20 2015.
