 Gaussian 09, Revision D.01,
 Gaussian 09:  ES64L-G09RevD.01 24-Apr-2013

 ------------------------------------------------------------
 #P AM1(Input,print) CIS(Singlets,NStates=15) pop(full) force
 ------------------------------------------------------------

 -----------------
 AM1-Reparam Input
 -----------------
 Symbolic Z-matrix:
 Charge =  0 Multiplicity = 1

                         Standard orientation:
 ---------------------------------------------------------------------
 Center     Atomic      Atomic             Coordinates (Angstroms)
 Number     Number       Type             X           Y           Z
 ---------------------------------------------------------------------
      1          6           0       -1.113238    0.442806   -0.004783
      2          6           0       -0.750595   -0.836111    0.021280
      3          8           0        0.627596   -1.017490   -0.014962
      4          6           0        1.104850    0.268298    0.003039
      5          6           0        0.107970    1.210609   -0.013149
      6          1           0        0.178041    2.208215    0.024157
      7          1           0        2.205136    0.340432    0.057520
      8          1           0       -1.369346   -1.803414   -0.005826
      9          1           0       -2.128520    0.881079    0.005513
 ---------------------------------------------------------------------

 SCF Done:  E(RAM1) =   1.11611734838     A.U. after   13 cycles

 Excitation energies and oscillator strengths:

 Excited State   1:      Singlet-A      5.5114 eV  224.96 nm  f=0.2058  <S**2>=0.000
      12 -> 15        -0.15193
      13 -> 14         0.67896
 This state for optimization and/or second-order correction.
 Total Energy, E(CIS) =   1.31865914935
 Copying the excited state density for this state as the 1-particle RhoCI density.

 Excited State   2:      Singlet-A      6.5136 eV  190.35 nm  f=0.0055  <S**2>=0.000
      13 -> 15        -0.26036
      13 -> 16         0.44916
      13 -> 17         0.42267
      13 -> 18        -0.10552
      13 -> 19         0.14578

 Excited State   3:      Singlet-A      6.6742 eV  185.77 nm  f=0.0029  <S**2>=0.000
      12 -> 14         0.11048
      13 -> 15         0.22380
      13 -> 16         0.49558
      13 -> 17        -0.37278
      13 -> 18         0.10312
      13 -> 19         0.11870
      13 -> 21         0.10393

 Excited State   4:      Singlet-A      6.7702 eV  183.13 nm  f=0.0203  <S**2>=0.000
      12 -> 14         0.34264
      13 -> 15         0.48573
      13 -> 17         0.35151

 Excited State   5:      Singlet-A      7.3444 eV  168.82 nm  f=0.0004  <S**2>=0.000
       9 -> 14        -0.11302
      11 -> 14         0.69177

 Excited State   6:      Singlet-A      7.9701 eV  155.56 nm  f=0.2763  <S**2>=0.000
      12 -> 14         0.58202
      13 -> 15        -0.33955

 Excited State   7:      Singlet-A      8.0683 eV  153.67 nm  f=0.0067  <S**2>=0.000
       9 -> 15         0.10057
      10 -> 14         0.66636
      11 -> 15         0.13284

 Excited State   8:      Singlet-A      8.1393 eV  152.33 nm  f=0.0011  <S**2>=0.000
      12 -> 16        -0.16219
      12 -> 17        -0.10670
      13 -> 18         0.49928
      13 -> 19         0.36343
      13 -> 24        -0.15094

 Excited State   9:      Singlet-A      8.4690 eV  146.40 nm  f=0.1046  <S**2>=0.000
      12 -> 15         0.53715
      12 -> 17        -0.22115
      13 -> 14         0.11411
      13 -> 19        -0.23078
      13 -> 20        -0.18956

 Excited State  10:      Singlet-A      8.5184 eV  145.55 nm  f=0.0369  <S**2>=0.000
      12 -> 15         0.28466
      12 -> 16        -0.20195
      12 -> 17         0.11284
      13 -> 18        -0.19537
      13 -> 19         0.26784
      13 -> 20         0.42109
      13 -> 21         0.15004

 Excited State  11:      Singlet-A      8.6638 eV  143.11 nm  f=0.0313  <S**2>=0.000
      12 -> 15         0.17544
      12 -> 16         0.46137
      12 -> 17         0.41455
      12 -> 19         0.11006
      13 -> 18         0.11336

 Excited State  12:      Singlet-A      8.7864 eV  141.11 nm  f=0.0029  <S**2>=0.000
       9 -> 15        -0.10147
      11 -> 15        -0.16445
      12 -> 16         0.32396
      12 -> 17        -0.35262
      13 -> 18         0.17846
      13 -> 19        -0.11135
      13 -> 20         0.38105

 Excited State  13:      Singlet-A      8.7999 eV  140.89 nm  f=0.0181  <S**2>=0.000
       6 -> 15         0.10034
       9 -> 15         0.28762
      10 -> 14        -0.14852
      11 -> 15         0.55942
      12 -> 16         0.10531
      12 -> 17        -0.14096
      13 -> 20         0.11367

 Excited State  14:      Singlet-A      9.3178 eV  133.06 nm  f=0.0005  <S**2>=0.000
      12 -> 16         0.20929
      12 -> 17        -0.21221
      13 -> 16        -0.14318
      13 -> 18        -0.25971
      13 -> 19         0.30125
      13 -> 20        -0.28386
      13 -> 21         0.34872
      13 -> 22        -0.10055

 Excited State  15:      Singlet-A      9.4068 eV  131.80 nm  f=0.0031  <S**2>=0.000
      12 -> 16        -0.13296
      12 -> 17         0.18075
      13 -> 17         0.12546
      13 -> 18         0.19257
      13 -> 19        -0.26645
      13 -> 21         0.53423
      13 -> 22        -0.12639

 The electronic state is 1-A.
 Alpha  occ. eigenvalues --   -1.80202  -1.19311  -0.96492  -0.86742  -0.80375
 Alpha  occ. eigenvalues --   -0.73222  -0.70484  -0.58607  -0.55618  -0.52090
 Alpha  occ. eigenvalues --   -0.49409  -0.46430  -0.37276
 Alpha virt. eigenvalues --    0.04272   0.09232   0.10648   0.10959   0.18645
 Alpha virt. eigenvalues --    0.19296   0.21133   0.22366   0.26491   0.27609
 Alpha virt. eigenvalues --    0.28551

 Mulliken charges:
               1
     1  C   -0.113838
     2  C   -1.231596
     3  O    2.098898
     4  C   -1.225918
     5  C   -0.129219
     6  H    0.092627
     7  H    0.195188
     8  H    0.205810
     9  H    0.108047
 Sum of Mulliken charges =   0.00000

 Dipole moment (field-independent basis, Debye):
    X=              3.8182    Y=             -6.7159    Z=             -0.1711  Tot=              7.7273
 N-N= 1.039327040913D+02 E-N=-1.705859273709D+02  KE=-1.492209720059D+01
 Orbital energies and kinetic energies (alpha):
                                 1                 2
   1         O                -1.802019         -1.219318
   2         O                -1.193109         -0.984569
   3         O                -0.964917         -0.817292
   4         O                -0.867420         -0.616211
   5         O                -0.803748         -0.660094
   6         O                -0.732225         -0.601452
   7         O                -0.704838         -0.510524

 Normal termination of Gaussian 09 at Tue Dec 15 17:05:39 2015.
