 Gaussian 09, Revision D.01,
 Gaussian 09:  ES64L-G09RevD.01 24-Apr-2013

 ------------------------------------------------------------
 #P AM1(Input,print) CIS(Singlets,NStates=15) pop(full) force
 ------------------------------------------------------------

 -----------------
 AM1-Reparam Input
 -----------------
 Symbolic Z-matrix:
 Charge =  0 Multiplicity = 1

                         Standard orientation:
 ---------------------------------------------------------------------
 Center     Atomic      Atomic             Coordinates (Angstroms)
 Number     Number       Type             X           Y           Z
 ---------------------------------------------------------------------
      1          6           0        0.742803    0.936896   -0.010631
      2          6           0        1.121547   -0.390514   -0.001570
      3          8           0       -0.036720   -1.126727   -0.003046
      4          6           0       -1.137069   -0.293390   -0.004775
      5          6           0       -0.695913    0.939560    0.009100
      6          1           0       -1.292563    1.819857   -0.003905
      7          1           0       -2.080019   -0.819037    0.021126
      8          1           0        2.038956   -0.905150    0.038451
      9          1           0        1.439177    1.762834    0.015956
 ---------------------------------------------------------------------

 SCF Done:  E(RAM1) =   2.04624447215     A.U. after   13 cycles

 Excitation energies and oscillator strengths:

 Excited State   1:      Singlet-A      5.2608 eV  235.67 nm  f=0.3499  <S**2>=0.000
      13 -> 14         0.69510
 This state for optimization and/or second-order correction.
 Total Energy, E(CIS) =   2.23957686117
 Copying the excited state density for this state as the 1-particle RhoCI density.

 Excited State   2:      Singlet-A      6.7542 eV  183.56 nm  f=0.0006  <S**2>=0.000
      12 -> 14         0.67508
      13 -> 15         0.10795
      13 -> 18         0.10664

 Excited State   3:      Singlet-A      6.7916 eV  182.56 nm  f=0.0146  <S**2>=0.000
      13 -> 15         0.50265
      13 -> 16         0.43008
      13 -> 17        -0.21533

 Excited State   4:      Singlet-A      6.8864 eV  180.04 nm  f=0.0001  <S**2>=0.000
      12 -> 14         0.18274
      13 -> 15        -0.39858
      13 -> 16         0.44571
      13 -> 18        -0.30228

 Excited State   5:      Singlet-A      7.6387 eV  162.31 nm  f=0.0055  <S**2>=0.000
      11 -> 14         0.69071

 Excited State   6:      Singlet-A      7.7759 eV  159.45 nm  f=0.0011  <S**2>=0.000
      11 -> 14        -0.12267
      13 -> 15         0.11111
      13 -> 16        -0.19551
      13 -> 18        -0.42242
      13 -> 19         0.46930
      13 -> 21         0.10874

 Excited State   7:      Singlet-A      8.6550 eV  143.25 nm  f=0.0194  <S**2>=0.000
      10 -> 16        -0.12150
      13 -> 15         0.19339
      13 -> 17         0.62073
      13 -> 18        -0.15415
      13 -> 19        -0.14065

 Excited State   8:      Singlet-A      8.7994 eV  140.90 nm  f=0.1096  <S**2>=0.000
      10 -> 14         0.68631

 Excited State   9:      Singlet-A      9.0302 eV  137.30 nm  f=0.0006  <S**2>=0.000
      10 -> 16        -0.11080
      13 -> 16         0.19349
      13 -> 17         0.19511
      13 -> 18         0.37220
      13 -> 19         0.49101
      13 -> 20         0.10009

 Excited State  10:      Singlet-A      9.5423 eV  129.93 nm  f=0.0176  <S**2>=0.000
       9 -> 16         0.11449
       9 -> 18        -0.10308
      11 -> 15        -0.23884
      11 -> 16        -0.12658
      11 -> 17         0.22471
      12 -> 16        -0.29946
      12 -> 18         0.36617
      12 -> 19        -0.25333

 Excited State  11:      Singlet-A      9.6766 eV  128.13 nm  f=0.0025  <S**2>=0.000
      13 -> 18        -0.18016
      13 -> 20         0.62124
      13 -> 21        -0.27168

 Excited State  12:      Singlet-A      9.9119 eV  125.09 nm  f=0.0732  <S**2>=0.000
      13 -> 20         0.28419
      13 -> 21         0.62897

 Excited State  13:      Singlet-A      9.9967 eV  124.02 nm  f=0.1174  <S**2>=0.000
      11 -> 15         0.19553
      11 -> 18         0.11772
      12 -> 15         0.60128
      12 -> 17        -0.18609
      12 -> 18         0.10965

 Excited State  14:      Singlet-A     10.1991 eV  121.56 nm  f=0.1888  <S**2>=0.000
      11 -> 15        -0.19823
      11 -> 16        -0.40711
      11 -> 17         0.13625
      12 -> 16         0.45362
      12 -> 17        -0.11291
      12 -> 19        -0.12789

 Excited State  15:      Singlet-A     10.5089 eV  117.98 nm  f=0.0015  <S**2>=0.000
       9 -> 14         0.17043
      10 -> 15         0.44275
      10 -> 16         0.32855
      10 -> 17        -0.12278
      11 -> 16        -0.13385
      11 -> 19         0.12469
      12 -> 16        -0.12243
      12 -> 19         0.14078
      13 -> 16         0.11461

 The electronic state is 1-A.
 Alpha  occ. eigenvalues --   -1.94239  -1.19948  -0.97048  -0.82542  -0.79215
 Alpha  occ. eigenvalues --   -0.68825  -0.65204  -0.56766  -0.54342  -0.45039
 Alpha  occ. eigenvalues --   -0.44195  -0.41688  -0.29580
 Alpha virt. eigenvalues --    0.10246   0.19035   0.19979   0.25380   0.26960
 Alpha virt. eigenvalues --    0.27709   0.30194   0.30631   0.34533   0.42989
 Alpha virt. eigenvalues --    0.48353

 Mulliken charges:
               1
     1  C   -0.241466
     2  C   -2.021618
     3  O    3.201591
     4  C   -1.980752
     5  C   -0.215949
     6  H    0.263170
     7  H    0.362918
     8  H    0.368025
     9  H    0.264083
 Sum of Mulliken charges =   0.00000

 Dipole moment (field-independent basis, Debye):
    X=             -0.5530    Y=            -10.0560    Z=              0.1625  Tot=             10.0725
 N-N= 1.043697054010D+02 E-N=-1.695765444808D+02  KE=-1.549778509670D+01
 Orbital energies and kinetic energies (alpha):
                                 1                 2
   1         O                -1.942387         -1.382495
   2         O                -1.199483         -1.055560
   3         O                -0.970485         -0.876871
   4         O                -0.825420         -0.605864
   5         O                -0.792147         -0.685374
   6         O                -0.688247         -0.570219
   7         O                -0.652038         -0.521029

 Normal termination of Gaussian 09 at Tue Dec 15 17:07:19 2015.
