 Gaussian 09, Revision D.01,
 Gaussian 09:  ES64L-G09RevD.01 24-Apr-2013

 ------------------------------------------------------------
 #P AM1(Input,print) CIS(Singlets,NStates=15) pop(full) force
 ------------------------------------------------------------

 -----------------
 AM1-Reparam Input
 -----------------
 Symbolic Z-matrix:
 Charge =  0 Multiplicity = 1

                         Standard orientation:
 ---------------------------------------------------------------------
 Center     Atomic      Atomic             Coordinates (Angstroms)
 Number     Number       Type             X           Y           Z
 ---------------------------------------------------------------------
      1          6           0        0.961004    0.714901    0.003316
      2          6           0        0.937369   -0.618462   -0.000946
      3          8           0       -0.343133   -1.143220   -0.015483
      4          6           0       -1.091747   -0.002208    0.030209
      5          6           0       -0.447050    1.116828   -0.006390
      6          1           0       -0.799831    2.085926   -0.007749
      7          1           0       -2.187945   -0.289368   -0.041894
      8          1           0        1.755621   -1.305255    0.050051
      9          1           0        1.819766    1.388099   -0.033679
 ---------------------------------------------------------------------

 SCF Done:  E(RAM1) =   1.79890541110     A.U. after   13 cycles

 Excitation energies and oscillator strengths:

 Excited State   1:      Singlet-A      5.2231 eV  237.38 nm  f=0.3675  <S**2>=0.000
      13 -> 14         0.69661
 This state for optimization and/or second-order correction.
 Total Energy, E(CIS) =   1.99085146171
 Copying the excited state density for this state as the 1-particle RhoCI density.

 Excited State   2:      Singlet-A      6.1236 eV  202.47 nm  f=0.0001  <S**2>=0.000
      13 -> 15         0.68736

 Excited State   3:      Singlet-A      6.8221 eV  181.74 nm  f=0.0000  <S**2>=0.000
      12 -> 14         0.70269

 Excited State   4:      Singlet-A      6.9006 eV  179.67 nm  f=0.0012  <S**2>=0.000
      13 -> 16         0.67417
      13 -> 18        -0.15646

 Excited State   5:      Singlet-A      8.1147 eV  152.79 nm  f=0.0074  <S**2>=0.000
      11 -> 14         0.69462

 Excited State   6:      Singlet-A      8.3812 eV  147.93 nm  f=0.0007  <S**2>=0.000
      13 -> 17         0.51220
      13 -> 18        -0.40446
      13 -> 22        -0.19318

 Excited State   7:      Singlet-A      8.9642 eV  138.31 nm  f=0.0090  <S**2>=0.000
      13 -> 16         0.11238
      13 -> 17         0.43575
      13 -> 18         0.52067

 Excited State   8:      Singlet-A      9.1272 eV  135.84 nm  f=0.1046  <S**2>=0.000
       9 -> 15         0.18101
      10 -> 14         0.32499
      12 -> 15         0.54927
      12 -> 18         0.11734

 Excited State   9:      Singlet-A      9.4204 eV  131.61 nm  f=0.1010  <S**2>=0.000
       9 -> 16        -0.10551
      10 -> 14         0.53779
      12 -> 15        -0.25507
      12 -> 16         0.21811
      12 -> 17         0.14383
      13 -> 20         0.16718

 Excited State  10:      Singlet-A      9.4768 eV  130.83 nm  f=0.0034  <S**2>=0.000
      13 -> 19         0.68379

 Excited State  11:      Singlet-A     10.0452 eV  123.43 nm  f=0.0475  <S**2>=0.000
      10 -> 14        -0.17486
      11 -> 15         0.24978
      11 -> 17        -0.16167
      12 -> 15         0.25393
      12 -> 16         0.41427
      12 -> 17         0.15868
      12 -> 18        -0.25030

 Excited State  12:      Singlet-A     10.4248 eV  118.93 nm  f=0.0955  <S**2>=0.000
      10 -> 14        -0.13232
      10 -> 15         0.12621
      11 -> 15        -0.10912
      13 -> 20         0.40367
      13 -> 21         0.47402
      13 -> 22        -0.17583

 Excited State  13:      Singlet-A     10.4406 eV  118.75 nm  f=0.1007  <S**2>=0.000
      10 -> 14        -0.17179
      10 -> 15        -0.10382
      11 -> 15        -0.18252
      12 -> 16         0.25960
      12 -> 17        -0.12455
      13 -> 20         0.39885
      13 -> 21        -0.33090
      13 -> 22         0.12957

 Excited State  14:      Singlet-A     10.5100 eV  117.97 nm  f=0.1111  <S**2>=0.000
      10 -> 15         0.10546
      11 -> 16        -0.25969
      11 -> 17         0.11148
      11 -> 18         0.15977
      12 -> 16         0.37094
      12 -> 17        -0.21951
      12 -> 18         0.15683
      13 -> 20        -0.27380
      13 -> 21         0.15406
      13 -> 22        -0.13297

 Excited State  15:      Singlet-A     10.6175 eV  116.77 nm  f=0.0108  <S**2>=0.000
       8 -> 15         0.11340
       9 -> 15         0.15718
      10 -> 15         0.37352
      11 -> 15        -0.32939
      11 -> 19        -0.11137
      12 -> 17         0.21423
      13 -> 20        -0.10911
      13 -> 21        -0.20832
      13 -> 22        -0.21518

 The electronic state is 1-A.
 Alpha  occ. eigenvalues --   -1.90434  -1.18152  -0.92153  -0.81378  -0.77833
 Alpha  occ. eigenvalues --   -0.70105  -0.67364  -0.54416  -0.53171  -0.45952
 Alpha  occ. eigenvalues --   -0.43925  -0.39611  -0.27574
 Alpha virt. eigenvalues --    0.12236   0.16822   0.20439   0.29358   0.30148
 Alpha virt. eigenvalues --    0.32161   0.33111   0.34915   0.37935   0.42847
 Alpha virt. eigenvalues --    0.44740

 Mulliken charges:
               1
     1  C   -0.173841
     2  C   -1.995811
     3  O    3.268254
     4  C   -1.947789
     5  C   -0.187321
     6  H    0.198259
     7  H    0.310600
     8  H    0.331144
     9  H    0.196505
 Sum of Mulliken charges =   0.00000

 Dipole moment (field-independent basis, Debye):
    X=             -3.6744    Y=            -11.3972    Z=             -0.4812  Tot=             11.9845
 N-N= 1.039938427210D+02 E-N=-1.696373719218D+02  KE=-1.551116250128D+01
 Orbital energies and kinetic energies (alpha):
                                 1                 2
   1         O                -1.904340         -1.359401
   2         O                -1.181518         -1.074254
   3         O                -0.921525         -0.902440
   4         O                -0.813782         -0.567835
   5         O                -0.778325         -0.677983
   6         O                -0.701050         -0.585105
   7         O                -0.673641         -0.543832

 Normal termination of Gaussian 09 at Tue Dec 15 17:09:40 2015.
