 Gaussian 09, Revision D.01,
 Gaussian 09:  ES64L-G09RevD.01 24-Apr-2013

 ------------------------------------------------------------
 #P AM1(Input,print) CIS(Singlets,NStates=15) pop(full) force
 ------------------------------------------------------------

 -----------------
 AM1-Reparam Input
 -----------------
 Symbolic Z-matrix:
 Charge =  0 Multiplicity = 1

                         Standard orientation:
 ---------------------------------------------------------------------
 Center     Atomic      Atomic             Coordinates (Angstroms)
 Number     Number       Type             X           Y           Z
 ---------------------------------------------------------------------
      1          6           0       -0.791361    0.865569   -0.019063
      2          6           0       -1.080120   -0.487728    0.038010
      3          8           0        0.150444   -1.116339   -0.018479
      4          6           0        1.149966   -0.213091   -0.005149
      5          6           0        0.564242    0.995773    0.007387
      6          1           0        1.120018    1.939580    0.030739
      7          1           0        2.137831   -0.601887    0.036199
      8          1           0       -1.978883   -1.080538   -0.012795
      9          1           0       -1.538885    1.710418   -0.033425
 ---------------------------------------------------------------------

 SCF Done:  E(RAM1) =   1.09319759864     A.U. after   14 cycles

 Excitation energies and oscillator strengths:

 Excited State   1:      Singlet-A      5.7410 eV  215.96 nm  f=0.1665  <S**2>=0.000
      12 -> 15         0.13738
      13 -> 14         0.67122
 This state for optimization and/or second-order correction.
 Total Energy, E(CIS) =   1.30417620181
 Copying the excited state density for this state as the 1-particle RhoCI density.

 Excited State   2:      Singlet-A      6.6185 eV  187.33 nm  f=0.0056  <S**2>=0.000
      13 -> 15        -0.36664
      13 -> 16         0.57055
      13 -> 20         0.14362

 Excited State   3:      Singlet-A      7.0733 eV  175.29 nm  f=0.0026  <S**2>=0.000
      12 -> 14        -0.42632
      13 -> 15         0.45298
      13 -> 16         0.30674

 Excited State   4:      Singlet-A      7.3316 eV  169.11 nm  f=0.0000  <S**2>=0.000
      12 -> 16        -0.12851
      13 -> 17         0.64248
      13 -> 18         0.13465
      13 -> 21         0.16140

 Excited State   5:      Singlet-A      7.4304 eV  166.86 nm  f=0.0012  <S**2>=0.000
       9 -> 14         0.18137
      11 -> 14         0.66247

 Excited State   6:      Singlet-A      7.6667 eV  161.72 nm  f=0.0042  <S**2>=0.000
      10 -> 14         0.66269
      11 -> 15         0.15019

 Excited State   7:      Singlet-A      8.0540 eV  153.94 nm  f=0.2084  <S**2>=0.000
      11 -> 16         0.13622
      11 -> 20         0.10609
      12 -> 14         0.52817
      13 -> 15         0.33396
      13 -> 16         0.18504

 Excited State   8:      Singlet-A      8.2336 eV  150.58 nm  f=0.0167  <S**2>=0.000
       9 -> 15        -0.15936
      10 -> 14        -0.16103
      11 -> 15         0.48879
      11 -> 16         0.17948
      12 -> 15         0.23109
      12 -> 16        -0.17426
      13 -> 18        -0.24276

 Excited State   9:      Singlet-A      8.2589 eV  150.12 nm  f=0.0101  <S**2>=0.000
       9 -> 15        -0.10198
      11 -> 15         0.33366
      12 -> 15        -0.15735
      12 -> 16         0.32358
      13 -> 18         0.42121
      13 -> 23        -0.11800

 Excited State  10:      Singlet-A      8.5277 eV  145.39 nm  f=0.0067  <S**2>=0.000
      12 -> 15        -0.16494
      12 -> 16         0.25182
      13 -> 18        -0.16616
      13 -> 19         0.52376
      13 -> 20         0.22173

 Excited State  11:      Singlet-A      8.5745 eV  144.60 nm  f=0.0088  <S**2>=0.000
      12 -> 15         0.26385
      12 -> 16        -0.25613
      13 -> 17        -0.17049
      13 -> 18         0.40981
      13 -> 19         0.29804
      13 -> 20         0.16777
      13 -> 22         0.10455

 Excited State  12:      Singlet-A      8.8112 eV  140.71 nm  f=0.2506  <S**2>=0.000
      12 -> 15         0.51159
      12 -> 16         0.40035
      13 -> 14        -0.13743

 Excited State  13:      Singlet-A      8.9569 eV  138.42 nm  f=0.0560  <S**2>=0.000
       9 -> 16        -0.19606
      10 -> 17         0.16429
      11 -> 15        -0.19292
      11 -> 16         0.53210
      11 -> 20         0.15070
      13 -> 15        -0.12127

 Excited State  14:      Singlet-A      9.1048 eV  136.17 nm  f=0.0039  <S**2>=0.000
      12 -> 17         0.60130
      13 -> 19        -0.18082
      13 -> 20         0.25440

 Excited State  15:      Singlet-A      9.2955 eV  133.38 nm  f=0.1033  <S**2>=0.000
       9 -> 17        -0.20067
      10 -> 15        -0.22795
      10 -> 16         0.41847
      10 -> 17         0.11530
      10 -> 19        -0.23475
      11 -> 18        -0.28855
      13 -> 14        -0.11542

 The electronic state is 1-A.
 Alpha  occ. eigenvalues --   -1.83407  -1.20267  -0.99541  -0.86959  -0.81854
 Alpha  occ. eigenvalues --   -0.73447  -0.72139  -0.62213  -0.56457  -0.51047
 Alpha  occ. eigenvalues --   -0.49659  -0.47224  -0.39702
 Alpha virt. eigenvalues --    0.03671   0.09173   0.09784   0.11804   0.17355
 Alpha virt. eigenvalues --    0.18043   0.19210   0.21486   0.26285   0.27082
 Alpha virt. eigenvalues --    0.27671

 Mulliken charges:
               1
     1  C   -0.121768
     2  C   -1.280508
     3  O    2.170149
     4  C   -1.260741
     5  C   -0.162502
     6  H    0.126657
     7  H    0.201791
     8  H    0.202113
     9  H    0.124810
 Sum of Mulliken charges =   0.00000

 Dipole moment (field-independent basis, Debye):
    X=              1.0373    Y=             -6.6072    Z=             -0.3169  Tot=              6.6956
 N-N= 1.045640321181D+02 E-N=-1.714736638127D+02  KE=-1.498971061395D+01
 Orbital energies and kinetic energies (alpha):
                                 1                 2
   1         O                -1.834074         -1.249872
   2         O                -1.202668         -0.967971
   3         O                -0.995407         -0.808120
   4         O                -0.869589         -0.628535
   5         O                -0.818535         -0.668990
   6         O                -0.734468         -0.606006
   7         O                -0.721391         -0.519951

 Normal termination of Gaussian 09 at Tue Dec 15 17:05:37 2015.
