 Gaussian 09, Revision D.01,
 Gaussian 09:  ES64L-G09RevD.01 24-Apr-2013

 ------------------------------------------------------------
 #P AM1(Input,print) CIS(Singlets,NStates=15) pop(full) force
 ------------------------------------------------------------

 -----------------
 AM1-Reparam Input
 -----------------
 Symbolic Z-matrix:
 Charge =  0 Multiplicity = 1

                         Standard orientation:
 ---------------------------------------------------------------------
 Center     Atomic      Atomic             Coordinates (Angstroms)
 Number     Number       Type             X           Y           Z
 ---------------------------------------------------------------------
      1          6           0        0.620232    1.021634   -0.011508
      2          6           0       -0.753987    0.813278   -0.000132
      3          8           0       -1.092145   -0.443872    0.008531
      4          6           0        0.103143   -1.113403   -0.010312
      5          6           0        1.170354   -0.257542    0.001872
      6          1           0        2.244777   -0.537404    0.008794
      7          1           0        0.078390   -2.216367    0.013477
      8          1           0       -1.523544    1.522542   -0.021462
      9          1           0        1.099085    1.998400    0.051417
 ---------------------------------------------------------------------

 SCF Done:  E(RAM1) =   2.10446523900     A.U. after   13 cycles

 Excitation energies and oscillator strengths:

 Excited State   1:      Singlet-A      5.8147 eV  213.23 nm  f=0.3349  <S**2>=0.000
      13 -> 14         0.69344
 This state for optimization and/or second-order correction.
 Total Energy, E(CIS) =   2.31815148523
 Copying the excited state density for this state as the 1-particle RhoCI density.

 Excited State   2:      Singlet-A      6.6710 eV  185.86 nm  f=0.0026  <S**2>=0.000
      11 -> 15        -0.10474
      13 -> 15         0.66399
      13 -> 17        -0.15839

 Excited State   3:      Singlet-A      6.9696 eV  177.89 nm  f=0.0003  <S**2>=0.000
      11 -> 16         0.12302
      13 -> 16         0.66248
      13 -> 19        -0.11779

 Excited State   4:      Singlet-A      7.5314 eV  164.62 nm  f=0.0003  <S**2>=0.000
      12 -> 14         0.69862

 Excited State   5:      Singlet-A      8.1037 eV  153.00 nm  f=0.0062  <S**2>=0.000
      10 -> 14         0.63750
      11 -> 14         0.27240
      13 -> 17         0.10949

 Excited State   6:      Singlet-A      8.5967 eV  144.22 nm  f=0.0010  <S**2>=0.000
      11 -> 15         0.12849
      13 -> 17        -0.38616
      13 -> 18         0.42678
      13 -> 19         0.15258
      13 -> 21        -0.32155

 Excited State   7:      Singlet-A      8.6341 eV  143.60 nm  f=0.0066  <S**2>=0.000
      11 -> 16         0.13365
      13 -> 17         0.53324
      13 -> 18         0.34965
      13 -> 21        -0.18445

 Excited State   8:      Singlet-A      9.0120 eV  137.58 nm  f=0.0881  <S**2>=0.000
      10 -> 14        -0.26681
      11 -> 14         0.62317

 Excited State   9:      Singlet-A      9.3315 eV  132.87 nm  f=0.0003  <S**2>=0.000
      11 -> 15         0.12683
      13 -> 18        -0.31427
      13 -> 19         0.56160
      13 -> 20        -0.18525
      13 -> 21        -0.10190

 Excited State  10:      Singlet-A      9.7579 eV  127.06 nm  f=0.0118  <S**2>=0.000
       8 -> 16         0.12239
       9 -> 15        -0.19284
      10 -> 15        -0.26456
      10 -> 16        -0.16125
      10 -> 17         0.24549
      11 -> 15        -0.12052
      12 -> 15        -0.23467
      12 -> 16         0.27303
      12 -> 18        -0.22307

 Excited State  11:      Singlet-A      9.8469 eV  125.91 nm  f=0.0080  <S**2>=0.000
      11 -> 15         0.10075
      13 -> 18         0.27781
      13 -> 19         0.26638
      13 -> 20         0.13854
      13 -> 21         0.53769

 Excited State  12:      Singlet-A      9.9236 eV  124.94 nm  f=0.0177  <S**2>=0.000
      10 -> 15        -0.11987
      11 -> 15         0.57478
      12 -> 15        -0.11350
      13 -> 15         0.14033
      13 -> 19        -0.11753
      13 -> 20         0.21513

 Excited State  13:      Singlet-A     10.1139 eV  122.59 nm  f=0.0968  <S**2>=0.000
      10 -> 15        -0.14388
      11 -> 15        -0.16179
      11 -> 16        -0.21867
      12 -> 15         0.18509
      13 -> 19         0.17032
      13 -> 20         0.52126
      13 -> 21        -0.17573

 Excited State  14:      Singlet-A     10.1347 eV  122.34 nm  f=0.0745  <S**2>=0.000
      10 -> 15        -0.39144
      11 -> 16         0.14948
      12 -> 15         0.46104
      12 -> 17        -0.10715
      13 -> 20        -0.16874

 Excited State  15:      Singlet-A     10.2991 eV  120.38 nm  f=0.1690  <S**2>=0.000
       9 -> 16        -0.13940
      10 -> 15         0.17302
      10 -> 18        -0.11409
      11 -> 16         0.10678
      12 -> 15         0.20871
      12 -> 16         0.55145

 The electronic state is 1-A.
 Alpha  occ. eigenvalues --   -1.94491  -1.19950  -0.92437  -0.80708  -0.78143
 Alpha  occ. eigenvalues --   -0.69276  -0.66492  -0.54099  -0.53246  -0.44057
 Alpha  occ. eigenvalues --   -0.43645  -0.42245  -0.30068
 Alpha virt. eigenvalues --    0.12556   0.17647   0.18726   0.25695   0.27475
 Alpha virt. eigenvalues --    0.29791   0.31046   0.33225   0.33945   0.42458
 Alpha virt. eigenvalues --    0.46158

 Mulliken charges:
               1
     1  C   -0.161976
     2  C   -1.913081
     3  O    3.198824
     4  C   -1.894959
     5  C   -0.079397
     6  H    0.150419
     7  H    0.269744
     8  H    0.274134
     9  H    0.156293
 Sum of Mulliken charges =   0.00000

 Dipole moment (field-independent basis, Debye):
    X=             -9.7919    Y=             -3.9522    Z=              0.2442  Tot=             10.5622
 N-N= 1.043880946358D+02 E-N=-1.698336481213D+02  KE=-1.535647338383D+01
 Orbital energies and kinetic energies (alpha):
                                 1                 2
   1         O                -1.944914         -1.383764
   2         O                -1.199501         -1.064195
   3         O                -0.924371         -0.876947
   4         O                -0.807078         -0.570664
   5         O                -0.781431         -0.676963
   6         O                -0.692760         -0.589701
   7         O                -0.664923         -0.531661

 Normal termination of Gaussian 09 at Tue Dec 15 17:08:43 2015.
