 Gaussian 09, Revision D.01,
 Gaussian 09:  ES64L-G09RevD.01 24-Apr-2013

 ------------------------------------------------------------
 #P AM1(Input,print) CIS(Singlets,NStates=15) pop(full) force
 ------------------------------------------------------------

 -----------------
 AM1-Reparam Input
 -----------------
 Symbolic Z-matrix:
 Charge =  0 Multiplicity = 1

                         Standard orientation:
 ---------------------------------------------------------------------
 Center     Atomic      Atomic             Coordinates (Angstroms)
 Number     Number       Type             X           Y           Z
 ---------------------------------------------------------------------
      1          6           0       -0.885270    0.787392    0.015701
      2          6           0       -1.065905   -0.472591   -0.015346
      3          8           0        0.213108   -1.146504    0.022311
      4          6           0        1.169657   -0.156108   -0.021829
      5          6           0        0.536669    1.068398   -0.009674
      6          1           0        1.077165    1.969415    0.057703
      7          1           0        2.133243   -0.528447   -0.004625
      8          1           0       -1.874166   -1.175156   -0.029939
      9          1           0       -1.572016    1.543671   -0.014736
 ---------------------------------------------------------------------

 SCF Done:  E(RAM1) =  -7.06159548937     A.U. after   14 cycles

 Excitation energies and oscillator strengths:

 Excited State   1:      Singlet-A      7.2820 eV  170.26 nm  f=0.1583  <S**2>=0.000
      13 -> 14         0.56796
      13 -> 15         0.36489
      13 -> 18         0.11525
 This state for optimization and/or second-order correction.
 Total Energy, E(CIS) =  -6.79398556184
 Copying the excited state density for this state as the 1-particle RhoCI density.

 Excited State   2:      Singlet-A      7.4292 eV  166.89 nm  f=0.0946  <S**2>=0.000
      12 -> 14        -0.13261
      13 -> 14        -0.35597
      13 -> 15         0.56294
      13 -> 18         0.14410

 Excited State   3:      Singlet-A      7.6263 eV  162.58 nm  f=0.0113  <S**2>=0.000
      12 -> 14         0.67641
      13 -> 14        -0.10892
      13 -> 16         0.10336

 Excited State   4:      Singlet-A      7.8080 eV  158.79 nm  f=0.0033  <S**2>=0.000
      12 -> 14        -0.11244
      13 -> 16         0.67539
      13 -> 21        -0.12162

 Excited State   5:      Singlet-A      8.7111 eV  142.33 nm  f=0.0053  <S**2>=0.000
      11 -> 14         0.69424

 Excited State   6:      Singlet-A      9.4097 eV  131.76 nm  f=0.0549  <S**2>=0.000
      10 -> 14         0.19039
      12 -> 15        -0.29871
      12 -> 16        -0.23517
      13 -> 17         0.42401
      13 -> 18        -0.31211

 Excited State   7:      Singlet-A      9.4594 eV  131.07 nm  f=0.0317  <S**2>=0.000
      10 -> 16        -0.10755
      12 -> 15        -0.19243
      13 -> 15        -0.14749
      13 -> 17         0.21844
      13 -> 18         0.58872

 Excited State   8:      Singlet-A      9.5467 eV  129.87 nm  f=0.0559  <S**2>=0.000
      12 -> 15        -0.16984
      12 -> 16         0.57908
      12 -> 18        -0.12851
      12 -> 21        -0.17666
      13 -> 17         0.20451

 Excited State   9:      Singlet-A      9.7590 eV  127.05 nm  f=0.0641  <S**2>=0.000
      10 -> 14         0.16514
      11 -> 16         0.18032
      12 -> 15         0.49353
      12 -> 18         0.10654
      13 -> 17         0.38289

 Excited State  10:      Singlet-A     10.1116 eV  122.62 nm  f=0.0124  <S**2>=0.000
      13 -> 19         0.67351
      13 -> 20         0.14504

 Excited State  11:      Singlet-A     10.2236 eV  121.27 nm  f=0.0030  <S**2>=0.000
      10 -> 15        -0.10312
      13 -> 20         0.49336
      13 -> 21        -0.44292
      13 -> 22         0.14190

 Excited State  12:      Singlet-A     10.2591 eV  120.85 nm  f=0.0478  <S**2>=0.000
       9 -> 16        -0.10589
      11 -> 15         0.58553
      11 -> 18         0.21368
      12 -> 16         0.13088
      12 -> 20        -0.10429

 Excited State  13:      Singlet-A     10.5185 eV  117.87 nm  f=0.0373  <S**2>=0.000
       8 -> 15         0.12820
       8 -> 16        -0.14534
       9 -> 15         0.15010
      10 -> 14        -0.23766
      11 -> 20         0.12728
      12 -> 18        -0.27995
      12 -> 20         0.21032
      13 -> 17         0.12581
      13 -> 19        -0.10884
      13 -> 20         0.26096
      13 -> 21         0.28434

 Excited State  14:      Singlet-A     10.5405 eV  117.63 nm  f=0.0214  <S**2>=0.000
       8 -> 16         0.10668
      10 -> 14         0.14647
      10 -> 15         0.12111
      12 -> 18         0.20885
      12 -> 20        -0.15807
      13 -> 20         0.38961
      13 -> 21         0.37207

 Excited State  15:      Singlet-A     10.8545 eV  114.22 nm  f=0.2214  <S**2>=0.000
       8 -> 16         0.10747
      10 -> 14         0.16649
      11 -> 15         0.11917
      11 -> 18        -0.13328
      11 -> 19         0.24204
      11 -> 20         0.16969
      12 -> 18         0.14343
      12 -> 19        -0.16790
      12 -> 20         0.49705

 The electronic state is 1-A.
 Alpha  occ. eigenvalues --   -4.56680  -1.34522  -1.01500  -0.99611  -0.97467
 Alpha  occ. eigenvalues --   -0.91632  -0.77107  -0.58975  -0.56608  -0.54292
 Alpha  occ. eigenvalues --   -0.49339  -0.45633  -0.38664
 Alpha virt. eigenvalues --    0.10337   0.12655   0.13155   0.19313   0.19638
 Alpha virt. eigenvalues --    0.22959   0.23036   0.28259   0.30900   0.33339
 Alpha virt. eigenvalues --    0.37953

 Mulliken charges:
               1
     1  C   -0.207502
     2  C   -1.276984
     3  O    2.421459
     4  C   -1.323775
     5  C   -0.348271
     6  H    0.171316
     7  H    0.212828
     8  H    0.196544
     9  H    0.154385
 Sum of Mulliken charges =   0.00000

 Dipole moment (field-independent basis, Debye):
    X=              1.6410    Y=            -10.0554    Z=              0.4600  Tot=             10.1988
 N-N= 1.045296137146D+02 E-N=-1.706371124409D+02  KE=-2.530470506684D+01
 Orbital energies and kinetic energies (alpha):
                                 1                 2
   1         O                -4.566802         -3.895368
   2         O                -1.345223         -1.273676
   3         O                -1.014996         -0.942585
   4         O                -0.996108         -0.989906
   5         O                -0.974665         -0.946489
   6         O                -0.916318         -0.910300
   7         O                -0.771066         -0.728978

 Normal termination of Gaussian 09 at Fri Dec 11 13:41:24 2015.
