 Gaussian 09, Revision D.01,
 Gaussian 09:  ES64L-G09RevD.01 24-Apr-2013

 ------------------------------------------------------------
 #P AM1(Input,print) CIS(Singlets,NStates=15) pop(full) force
 ------------------------------------------------------------

 -----------------
 AM1-Reparam Input
 -----------------
 Symbolic Z-matrix:
 Charge =  0 Multiplicity = 1

                         Standard orientation:
 ---------------------------------------------------------------------
 Center     Atomic      Atomic             Coordinates (Angstroms)
 Number     Number       Type             X           Y           Z
 ---------------------------------------------------------------------
      1          6           0        0.070270    1.220215    0.033094
      2          6           0        1.095662    0.248151    0.007007
      3          8           0        0.629743   -0.973439   -0.014514
      4          6           0       -0.702132   -0.852046    0.007143
      5          6           0       -1.140103    0.409482   -0.025611
      6          1           0       -2.147956    0.807186   -0.000010
      7          1           0       -1.313116   -1.781554    0.064889
      8          1           0        2.230622    0.359411   -0.013713
      9          1           0        0.250327    2.247660   -0.064854
 ---------------------------------------------------------------------

 SCF Done:  E(RAM1) =   2.59929642354     A.U. after   13 cycles

 Excitation energies and oscillator strengths:

 Excited State   1:      Singlet-A      5.0826 eV  243.94 nm  f=0.3626  <S**2>=0.000
      13 -> 14         0.69879
 This state for optimization and/or second-order correction.
 Total Energy, E(CIS) =   2.78607718410
 Copying the excited state density for this state as the 1-particle RhoCI density.

 Excited State   2:      Singlet-A      6.0621 eV  204.52 nm  f=0.0002  <S**2>=0.000
      13 -> 15         0.65885
      13 -> 16        -0.10141
      13 -> 17        -0.16269
      13 -> 19        -0.11467

 Excited State   3:      Singlet-A      6.4200 eV  193.12 nm  f=0.0055  <S**2>=0.000
      13 -> 15         0.10851
      13 -> 16         0.66901
      13 -> 18        -0.11598

 Excited State   4:      Singlet-A      6.5173 eV  190.24 nm  f=0.0005  <S**2>=0.000
      12 -> 14         0.69627

 Excited State   5:      Singlet-A      7.4577 eV  166.25 nm  f=0.0045  <S**2>=0.000
      10 -> 14         0.68997
      11 -> 14         0.11852

 Excited State   6:      Singlet-A      7.8509 eV  157.92 nm  f=0.0003  <S**2>=0.000
      13 -> 15         0.12885
      13 -> 17         0.65375
      13 -> 18        -0.13538
      13 -> 21         0.12594

 Excited State   7:      Singlet-A      8.3542 eV  148.41 nm  f=0.1224  <S**2>=0.000
      10 -> 14        -0.11848
      11 -> 14         0.68435

 Excited State   8:      Singlet-A      9.0255 eV  137.37 nm  f=0.0113  <S**2>=0.000
      11 -> 15        -0.36649
      12 -> 15        -0.14474
      13 -> 18         0.55056

 Excited State   9:      Singlet-A      9.2247 eV  134.40 nm  f=0.1205  <S**2>=0.000
       8 -> 16         0.13372
      10 -> 16         0.17002
      10 -> 18        -0.11472
      12 -> 15         0.47195
      12 -> 16        -0.22857
      12 -> 17        -0.25102
      13 -> 18         0.12221
      13 -> 19         0.17367

 Excited State  10:      Singlet-A      9.3383 eV  132.77 nm  f=0.0086  <S**2>=0.000
      11 -> 16        -0.27304
      12 -> 15        -0.13978
      13 -> 18        -0.10380
      13 -> 19         0.59531

 Excited State  11:      Singlet-A      9.7212 eV  127.54 nm  f=0.1408  <S**2>=0.000
       9 -> 15        -0.11783
      10 -> 15         0.33095
      10 -> 16         0.20788
      10 -> 18        -0.15677
      11 -> 15         0.35032
      11 -> 16         0.16142
      12 -> 15        -0.22387
      12 -> 17        -0.11757
      13 -> 18         0.18342

 Excited State  12:      Singlet-A      9.7728 eV  126.87 nm  f=0.0101  <S**2>=0.000
      10 -> 15        -0.31987
      11 -> 15         0.25786
      11 -> 16         0.12677
      12 -> 15         0.23091
      12 -> 16         0.39177
      13 -> 15         0.11289
      13 -> 18         0.17254
      13 -> 19         0.12482

 Excited State  13:      Singlet-A      9.7958 eV  126.57 nm  f=0.0966  <S**2>=0.000
      10 -> 16         0.28564
      10 -> 18        -0.12902
      11 -> 15        -0.29264
      12 -> 16         0.41722
      12 -> 17        -0.19743
      12 -> 19         0.10191
      13 -> 18        -0.18932

 Excited State  14:      Singlet-A     10.1003 eV  122.75 nm  f=0.0097  <S**2>=0.000
       8 -> 15         0.10094
      10 -> 15         0.18318
      10 -> 16        -0.22756
      11 -> 15        -0.18268
      11 -> 16         0.45114
      13 -> 16        -0.13574
      13 -> 18        -0.16517
      13 -> 19         0.21440

 Excited State  15:      Singlet-A     10.2299 eV  121.20 nm  f=0.0085  <S**2>=0.000
       8 -> 15        -0.25284
       9 -> 16         0.16673
      10 -> 15        -0.27179
      10 -> 17        -0.12035
      10 -> 19         0.16045
      11 -> 16         0.29769
      12 -> 15        -0.18801
      12 -> 16        -0.20322
      12 -> 17        -0.19595
      12 -> 19         0.10209

 The electronic state is 1-A.
 Alpha  occ. eigenvalues --   -1.85527  -1.11707  -0.86515  -0.80031  -0.73141
 Alpha  occ. eigenvalues --   -0.66502  -0.63645  -0.54563  -0.54124  -0.45299
 Alpha  occ. eigenvalues --   -0.44617  -0.42540  -0.29995
 Alpha virt. eigenvalues --    0.08570   0.15391   0.16650   0.25307   0.27623
 Alpha virt. eigenvalues --    0.28977   0.35571   0.39928   0.51083   0.58770
 Alpha virt. eigenvalues --    0.62631

 Mulliken charges:
               1
     1  C   -0.188853
     2  C   -2.025934
     3  O    3.415019
     4  C   -2.005244
     5  C   -0.141096
     6  H    0.181994
     7  H    0.295718
     8  H    0.290152
     9  H    0.178242
 Sum of Mulliken charges =   0.00000

 Dipole moment (field-independent basis, Debye):
    X=              5.8645    Y=             -9.5215    Z=             -0.3106  Tot=             11.1870
 N-N= 1.040593665898D+02 E-N=-1.698326296275D+02  KE=-1.432340679169D+01
 Orbital energies and kinetic energies (alpha):
                                 1                 2
   1         O                -1.855271         -1.275137
   2         O                -1.117070         -0.967034
   3         O                -0.865149         -0.777009
   4         O                -0.800305         -0.534475
   5         O                -0.731409         -0.609198
   6         O                -0.665023         -0.543953
   7         O                -0.636445         -0.494232

 Normal termination of Gaussian 09 at Tue Dec 15 17:07:47 2015.
