 Gaussian 09, Revision D.01,
 Gaussian 09:  ES64L-G09RevD.01 24-Apr-2013

 ------------------------------------------------------------
 #P AM1(Input,print) CIS(Singlets,NStates=15) pop(full) force
 ------------------------------------------------------------

 -----------------
 AM1-Reparam Input
 -----------------
 Symbolic Z-matrix:
 Charge =  0 Multiplicity = 1

                         Standard orientation:
 ---------------------------------------------------------------------
 Center     Atomic      Atomic             Coordinates (Angstroms)
 Number     Number       Type             X           Y           Z
 ---------------------------------------------------------------------
      1          6           0        0.569653    1.043992    0.004934
      2          6           0        1.183941   -0.220889   -0.006324
      3          8           0        0.135734   -1.131821   -0.002770
      4          6           0       -1.038320   -0.454336    0.013365
      5          6           0       -0.867145    0.820923   -0.009065
      6          1           0       -1.586914    1.554453   -0.018553
      7          1           0       -1.864804   -1.070508   -0.002558
      8          1           0        2.119918   -0.536569    0.003201
      9          1           0        1.157157    1.969053    0.022617
 ---------------------------------------------------------------------

 SCF Done:  E(RAM1) =   2.08276953046     A.U. after   14 cycles

 Excitation energies and oscillator strengths:

 Excited State   1:      Singlet-A      5.2127 eV  237.85 nm  f=0.3464  <S**2>=0.000
      13 -> 14         0.69524
 This state for optimization and/or second-order correction.
 Total Energy, E(CIS) =   2.27433258718
 Copying the excited state density for this state as the 1-particle RhoCI density.

 Excited State   2:      Singlet-A      6.6360 eV  186.84 nm  f=0.0094  <S**2>=0.000
      13 -> 15         0.65499
      13 -> 17         0.21940

 Excited State   3:      Singlet-A      6.7453 eV  183.81 nm  f=0.0003  <S**2>=0.000
      12 -> 14         0.68573
      13 -> 16        -0.10542

 Excited State   4:      Singlet-A      6.9201 eV  179.16 nm  f=0.0071  <S**2>=0.000
      12 -> 14         0.12394
      13 -> 16         0.63933
      13 -> 18        -0.23746

 Excited State   5:      Singlet-A      7.6615 eV  161.83 nm  f=0.0069  <S**2>=0.000
      11 -> 14         0.69985

 Excited State   6:      Singlet-A      7.7358 eV  160.27 nm  f=0.0017  <S**2>=0.000
      13 -> 15        -0.13764
      13 -> 16         0.19247
      13 -> 17         0.25932
      13 -> 18         0.49025
      13 -> 19         0.33056

 Excited State   7:      Singlet-A      8.7238 eV  142.12 nm  f=0.0143  <S**2>=0.000
      13 -> 15        -0.16844
      13 -> 17         0.57243
      13 -> 18        -0.17824
      13 -> 19        -0.29625

 Excited State   8:      Singlet-A      8.7667 eV  141.43 nm  f=0.1218  <S**2>=0.000
      10 -> 14         0.68890

 Excited State   9:      Singlet-A      9.3309 eV  132.87 nm  f=0.0001  <S**2>=0.000
      10 -> 16         0.17473
      13 -> 16        -0.12785
      13 -> 17         0.15437
      13 -> 18        -0.30044
      13 -> 19         0.50213
      13 -> 20        -0.25662

 Excited State  10:      Singlet-A      9.5487 eV  129.84 nm  f=0.0111  <S**2>=0.000
      11 -> 15        -0.17572
      11 -> 16        -0.25879
      11 -> 17        -0.14559
      11 -> 18         0.11774
      12 -> 15         0.28709
      12 -> 16        -0.15426
      12 -> 17         0.23605
      12 -> 18         0.33842
      12 -> 19         0.15786

 Excited State  11:      Singlet-A      9.6824 eV  128.05 nm  f=0.0077  <S**2>=0.000
      13 -> 18        -0.20222
      13 -> 19         0.14211
      13 -> 20         0.61128
      13 -> 21        -0.22653

 Excited State  12:      Singlet-A     10.0086 eV  123.88 nm  f=0.0657  <S**2>=0.000
      10 -> 16         0.11342
      12 -> 15         0.13330
      13 -> 20         0.20606
      13 -> 21         0.62531

 Excited State  13:      Singlet-A     10.0267 eV  123.65 nm  f=0.0928  <S**2>=0.000
      11 -> 15         0.32045
      11 -> 17         0.15251
      12 -> 15         0.51307
      12 -> 16         0.12470
      12 -> 18        -0.13104
      12 -> 19        -0.10945
      13 -> 21        -0.15855

 Excited State  14:      Singlet-A     10.1258 eV  122.44 nm  f=0.1995  <S**2>=0.000
      11 -> 15        -0.11395
      11 -> 16        -0.32045
      12 -> 16         0.55734
      12 -> 18        -0.11250
      12 -> 19         0.13734

 Excited State  15:      Singlet-A     10.4936 eV  118.15 nm  f=0.0023  <S**2>=0.000
       9 -> 14         0.27211
      10 -> 15         0.48297
      10 -> 16         0.34371
      10 -> 17         0.10190
      13 -> 18         0.10202

 The electronic state is 1-A.
 Alpha  occ. eigenvalues --   -1.94622  -1.20377  -0.98176  -0.83228  -0.79622
 Alpha  occ. eigenvalues --   -0.69686  -0.65621  -0.56745  -0.54280  -0.45071
 Alpha  occ. eigenvalues --   -0.44542  -0.41893  -0.29545
 Alpha virt. eigenvalues --    0.10001   0.18560   0.20952   0.25978   0.27346
 Alpha virt. eigenvalues --    0.28087   0.29848   0.31195   0.34524   0.43146
 Alpha virt. eigenvalues --    0.48122

 Mulliken charges:
               1
     1  C   -0.229658
     2  C   -2.018209
     3  O    3.196030
     4  C   -1.979158
     5  C   -0.210229
     6  H    0.257962
     7  H    0.362721
     8  H    0.357360
     9  H    0.263180
 Sum of Mulliken charges =   0.00000

 Dipole moment (field-independent basis, Debye):
    X=              0.4627    Y=            -10.0762    Z=             -0.0869  Tot=             10.0872
 N-N= 1.046282862044D+02 E-N=-1.698828512403D+02  KE=-1.554004984449D+01
 Orbital energies and kinetic energies (alpha):
                                 1                 2
   1         O                -1.946216         -1.385290
   2         O                -1.203765         -1.061281
   3         O                -0.981756         -0.887197
   4         O                -0.832284         -0.609162
   5         O                -0.796218         -0.691854
   6         O                -0.696857         -0.564368
   7         O                -0.656214         -0.519652

 Normal termination of Gaussian 09 at Tue Dec 15 17:07:19 2015.
