 Gaussian 09, Revision D.01,
 Gaussian 09:  ES64L-G09RevD.01 24-Apr-2013

 ------------------------------------------------------------
 #P AM1(Input,print) CIS(Singlets,NStates=15) pop(full) force
 ------------------------------------------------------------

 -----------------
 AM1-Reparam Input
 -----------------
 Symbolic Z-matrix:
 Charge =  0 Multiplicity = 1

                         Standard orientation:
 ---------------------------------------------------------------------
 Center     Atomic      Atomic             Coordinates (Angstroms)
 Number     Number       Type             X           Y           Z
 ---------------------------------------------------------------------
      1          6           0        0.924730    0.802116   -0.001519
      2          6           0        0.978904   -0.505533   -0.017753
      3          8           0       -0.216221   -1.150469    0.005277
      4          6           0       -1.100722   -0.163239    0.001189
      5          6           0       -0.573084    1.091656    0.000874
      6          1           0       -1.070051    1.991082   -0.016060
      7          1           0       -2.123968   -0.465702    0.005121
      8          1           0        1.856634   -1.238558    0.028856
      9          1           0        1.688186    1.566931    0.043121
 ---------------------------------------------------------------------

 SCF Done:  E(RAM1) =   2.56577809410     A.U. after   13 cycles

 Excitation energies and oscillator strengths:

 Excited State   1:      Singlet-A      4.9706 eV  249.43 nm  f=0.3579  <S**2>=0.000
      13 -> 14         0.69734
 This state for optimization and/or second-order correction.
 Total Energy, E(CIS) =   2.74844464126
 Copying the excited state density for this state as the 1-particle RhoCI density.

 Excited State   2:      Singlet-A      5.6262 eV  220.37 nm  f=0.0001  <S**2>=0.000
      13 -> 15         0.65863
      13 -> 16        -0.15881
      13 -> 18        -0.14540

 Excited State   3:      Singlet-A      5.9225 eV  209.34 nm  f=0.0019  <S**2>=0.000
      13 -> 15         0.17194
      13 -> 16         0.65189
      13 -> 17        -0.16919

 Excited State   4:      Singlet-A      6.4649 eV  191.78 nm  f=0.0001  <S**2>=0.000
      12 -> 14         0.70010

 Excited State   5:      Singlet-A      7.3449 eV  168.80 nm  f=0.0004  <S**2>=0.000
      13 -> 15         0.10816
      13 -> 16        -0.11060
      13 -> 17        -0.36554
      13 -> 18         0.51621
      13 -> 21         0.25121

 Excited State   6:      Singlet-A      7.9155 eV  156.63 nm  f=0.0157  <S**2>=0.000
      10 -> 14        -0.26647
      13 -> 16         0.11931
      13 -> 17         0.50923
      13 -> 18         0.37613

 Excited State   7:      Singlet-A      8.1657 eV  151.84 nm  f=0.0004  <S**2>=0.000
      10 -> 14         0.64213
      13 -> 17         0.21533
      13 -> 18         0.14760

 Excited State   8:      Singlet-A      8.5071 eV  145.74 nm  f=0.0008  <S**2>=0.000
      13 -> 19         0.67215
      13 -> 20        -0.10638
      13 -> 21        -0.12409

 Excited State   9:      Singlet-A      8.6279 eV  143.70 nm  f=0.0936  <S**2>=0.000
       8 -> 15        -0.13405
      11 -> 14         0.54492
      12 -> 15         0.37993
      12 -> 17         0.10242

 Excited State  10:      Singlet-A      8.9081 eV  139.18 nm  f=0.2500  <S**2>=0.000
       8 -> 16        -0.12589
      11 -> 14        -0.38241
      12 -> 15         0.45746
      12 -> 16        -0.26476
      12 -> 18        -0.14258

 Excited State  11:      Singlet-A      9.1964 eV  134.82 nm  f=0.0021  <S**2>=0.000
      13 -> 17         0.14809
      13 -> 18        -0.19793
      13 -> 19         0.15340
      13 -> 21         0.63283

 Excited State  12:      Singlet-A      9.4596 eV  131.07 nm  f=0.0548  <S**2>=0.000
       8 -> 16         0.10269
      10 -> 15        -0.10939
      11 -> 14        -0.16331
      12 -> 15         0.28062
      12 -> 16         0.53871
      12 -> 17        -0.16042

 Excited State  13:      Singlet-A      9.5380 eV  129.99 nm  f=0.0987  <S**2>=0.000
      11 -> 15        -0.15186
      13 -> 20         0.66110
      13 -> 21        -0.10855

 Excited State  14:      Singlet-A      9.6890 eV  127.96 nm  f=0.0022  <S**2>=0.000
       7 -> 15        -0.13787
      11 -> 15         0.64438
      13 -> 15        -0.11793
      13 -> 20         0.14625

 Excited State  15:      Singlet-A      9.8348 eV  126.07 nm  f=0.0004  <S**2>=0.000
       9 -> 14         0.69142

 The electronic state is 1-A.
 Alpha  occ. eigenvalues --   -1.74751  -1.14583  -0.95314  -0.81608  -0.75145
 Alpha  occ. eigenvalues --   -0.67273  -0.64589  -0.53224  -0.49212  -0.45049
 Alpha  occ. eigenvalues --   -0.43893  -0.39432  -0.26715
 Alpha virt. eigenvalues --    0.11208   0.15867   0.17468   0.26908   0.27811
 Alpha virt. eigenvalues --    0.29670   0.32267   0.32642   0.40518   0.50293
 Alpha virt. eigenvalues --    0.53816

 Mulliken charges:
               1
     1  C   -0.039585
     2  C   -1.869443
     3  O    3.203218
     4  C   -1.912994
     5  C   -0.108346
     6  H    0.113420
     7  H    0.258940
     8  H    0.246175
     9  H    0.108613
 Sum of Mulliken charges =   0.00000

 Dipole moment (field-independent basis, Debye):
    X=             -1.8108    Y=            -11.0120    Z=              0.2778  Tot=             11.1633
 N-N= 1.037794639061D+02 E-N=-1.687833559035D+02  KE=-1.502826918331D+01
 Orbital energies and kinetic energies (alpha):
                                 1                 2
   1         O                -1.747511         -1.247010
   2         O                -1.145826         -1.013280
   3         O                -0.953136         -0.865253
   4         O                -0.816084         -0.621238
   5         O                -0.751447         -0.682087
   6         O                -0.672728         -0.558212
   7         O                -0.645891         -0.520248

 Normal termination of Gaussian 09 at Tue Dec 15 17:06:20 2015.
