 Gaussian 09, Revision D.01,
 Gaussian 09:  ES64L-G09RevD.01 24-Apr-2013

 ------------------------------------------------------------
 #P AM1(Input,print) CIS(Singlets,NStates=15) pop(full) force
 ------------------------------------------------------------

 -----------------
 AM1-Reparam Input
 -----------------
 Symbolic Z-matrix:
 Charge =  0 Multiplicity = 1

                         Standard orientation:
 ---------------------------------------------------------------------
 Center     Atomic      Atomic             Coordinates (Angstroms)
 Number     Number       Type             X           Y           Z
 ---------------------------------------------------------------------
      1          6           0        0.210344    1.215219    0.000537
      2          6           0        1.154654    0.153317    0.005513
      3          8           0        0.507579   -1.068729   -0.020091
      4          6           0       -0.798119   -0.745271    0.028571
      5          6           0       -1.090367    0.497913   -0.007144
      6          1           0       -2.018436    1.049665   -0.014923
      7          1           0       -1.467395   -1.591341   -0.012691
      8          1           0        2.158500    0.144025    0.042539
      9          1           0        0.407627    2.220422   -0.019058
 ---------------------------------------------------------------------

 SCF Done:  E(RAM1) =  0.364646014897E-01 A.U. after   13 cycles

 Excitation energies and oscillator strengths:

 Excited State   1:      Singlet-A      4.4833 eV  276.55 nm  f=0.0797  <S**2>=0.000
      12 -> 15         0.21199
      13 -> 14         0.66499
 This state for optimization and/or second-order correction.
 Total Energy, E(CIS) =  0.201221465589
 Copying the excited state density for this state as the 1-particle RhoCI density.

 Excited State   2:      Singlet-A      5.1231 eV  242.01 nm  f=0.0038  <S**2>=0.000
      12 -> 14        -0.41163
      13 -> 15         0.54323
      13 -> 16         0.16860

 Excited State   3:      Singlet-A      5.2323 eV  236.96 nm  f=0.0006  <S**2>=0.000
      12 -> 14         0.11896
      13 -> 15        -0.12625
      13 -> 16         0.65768
      13 -> 18        -0.10450
      13 -> 22         0.11974

 Excited State   4:      Singlet-A      5.6460 eV  219.60 nm  f=0.0009  <S**2>=0.000
      12 -> 18         0.11286
      12 -> 20         0.10467
      13 -> 17        -0.29756
      13 -> 18         0.43870
      13 -> 19         0.20553
      13 -> 20         0.25954
      13 -> 21         0.13924
      13 -> 23         0.12586

 Excited State   5:      Singlet-A      6.0159 eV  206.09 nm  f=0.0135  <S**2>=0.000
       7 -> 16        -0.17652
      12 -> 14         0.12226
      12 -> 15         0.14389
      12 -> 16         0.61650
      12 -> 22         0.14285

 Excited State   6:      Singlet-A      6.0862 eV  203.71 nm  f=0.2170  <S**2>=0.000
      11 -> 17         0.10729
      12 -> 14         0.47820
      12 -> 15         0.22939
      12 -> 16        -0.17986
      13 -> 15         0.36996

 Excited State   7:      Singlet-A      6.3059 eV  196.62 nm  f=0.0041  <S**2>=0.000
      12 -> 17        -0.13283
      12 -> 18         0.12647
      13 -> 17         0.52432
      13 -> 18         0.11187
      13 -> 19         0.31915

 Excited State   8:      Singlet-A      6.4566 eV  192.03 nm  f=0.0985  <S**2>=0.000
      11 -> 14         0.10948
      12 -> 14        -0.10608
      12 -> 15         0.37483
      12 -> 17         0.19702
      12 -> 19         0.18402
      13 -> 14        -0.11999
      13 -> 17         0.15689
      13 -> 18         0.24499
      13 -> 19        -0.14457
      13 -> 20        -0.16067
      13 -> 22         0.13804
      13 -> 23         0.15896

 Excited State   9:      Singlet-A      6.4633 eV  191.83 nm  f=0.1657  <S**2>=0.000
      12 -> 14        -0.15128
      12 -> 15         0.46262
      12 -> 17        -0.16692
      12 -> 19        -0.14466
      13 -> 14        -0.15334
      13 -> 15        -0.12512
      13 -> 17        -0.18045
      13 -> 18        -0.19665
      13 -> 20         0.12135
      13 -> 23        -0.12053

 Excited State  10:      Singlet-A      6.8993 eV  179.71 nm  f=0.0006  <S**2>=0.000
      10 -> 14         0.22286
      10 -> 15         0.10821
      11 -> 14        -0.35561
      12 -> 17         0.43830
      12 -> 18         0.14100
      12 -> 23         0.11049
      13 -> 19         0.19158

 Excited State  11:      Singlet-A      6.9647 eV  178.02 nm  f=0.0006  <S**2>=0.000
      10 -> 14         0.35150
      11 -> 14        -0.29330
      11 -> 15        -0.24831
      12 -> 17        -0.34493
      13 -> 17         0.11629
      13 -> 18         0.12192
      13 -> 19        -0.16103

 Excited State  12:      Singlet-A      7.3503 eV  168.68 nm  f=0.0026  <S**2>=0.000
       9 -> 14         0.15083
      10 -> 15         0.13567
      11 -> 14        -0.15438
      11 -> 15         0.39774
      12 -> 18        -0.27158
      12 -> 19         0.19044
      12 -> 20         0.12896
      12 -> 23        -0.14464
      13 -> 19         0.19536
      13 -> 21        -0.18054
      13 -> 24         0.14603

 Excited State  13:      Singlet-A      7.4323 eV  166.82 nm  f=0.0001  <S**2>=0.000
       9 -> 15         0.10230
      10 -> 14         0.26420
      11 -> 14         0.34384
      11 -> 15        -0.29231
      12 -> 18        -0.17776
      12 -> 19         0.12237
      13 -> 18        -0.13944
      13 -> 19         0.21945
      13 -> 20         0.12030
      13 -> 21        -0.14451
      13 -> 22        -0.13001

 Excited State  14:      Singlet-A      7.5596 eV  164.01 nm  f=0.0002  <S**2>=0.000
       9 -> 14         0.34304
      10 -> 14         0.33864
      10 -> 15         0.15245
      11 -> 14         0.28629
      11 -> 15         0.23405
      12 -> 19        -0.11270
      13 -> 19        -0.10164
      13 -> 20        -0.10517
      13 -> 21         0.13641
      13 -> 23         0.11934

 Excited State  15:      Singlet-A      7.6786 eV  161.47 nm  f=0.0047  <S**2>=0.000
      12 -> 18         0.24610
      13 -> 19         0.19545
      13 -> 20        -0.12057
      13 -> 21        -0.27962
      13 -> 22         0.47202
      13 -> 23        -0.12944

 The electronic state is 1-A.
 Alpha  occ. eigenvalues --   -1.56812  -1.24130  -1.10528  -0.83616  -0.81195
 Alpha  occ. eigenvalues --   -0.69089  -0.60451  -0.57337  -0.51886  -0.51129
 Alpha  occ. eigenvalues --   -0.48399  -0.39483  -0.35058
 Alpha virt. eigenvalues --    0.02849   0.06247   0.10190   0.13371   0.14387
 Alpha virt. eigenvalues --    0.16567   0.17734   0.18295   0.19225   0.20683
 Alpha virt. eigenvalues --    0.22186

 Mulliken charges:
               1
     1  C   -0.204423
     2  C   -0.108394
     3  O   -0.075850
     4  C   -0.075236
     5  C   -0.208179
     6  H    0.164766
     7  H    0.169595
     8  H    0.177119
     9  H    0.160602
 Sum of Mulliken charges =   0.00000

 Dipole moment (field-independent basis, Debye):
    X=             -0.2486    Y=              0.4533    Z=             -0.0086  Tot=              0.5171
 N-N= 1.035542660009D+02 E-N=-1.710639290443D+02  KE=-1.658940099994D+01
 Orbital energies and kinetic energies (alpha):
                                 1                 2
   1         O                -1.568123         -1.314594
   2         O                -1.241300         -1.052086
   3         O                -1.105282         -0.966992
   4         O                -0.836159         -0.722292
   5         O                -0.811951         -0.717162
   6         O                -0.690890         -0.605348
   7         O                -0.604507         -0.487429

 Normal termination of Gaussian 09 at Tue Dec 15 16:16:23 2015.
