 Gaussian 09, Revision D.01,
 Gaussian 09:  ES64L-G09RevD.01 24-Apr-2013

 -------------------------------------------------------
 #P B3LYP/3-21G CIS(Singlets,NStates=15) pop(full) force
 -------------------------------------------------------

 --------
 FuranDFT
 --------
 Symbolic Z-matrix:
 Charge =  0 Multiplicity = 1

                         Standard orientation:
 ---------------------------------------------------------------------
 Center     Atomic      Atomic             Coordinates (Angstroms)
 Number     Number       Type             X           Y           Z
 ---------------------------------------------------------------------
      1          6           0       -0.885270    0.787392    0.015701
      2          6           0       -1.065905   -0.472591   -0.015346
      3          8           0        0.213108   -1.146504    0.022311
      4          6           0        1.169657   -0.156108   -0.021829
      5          6           0        0.536669    1.068398   -0.009674
      6          1           0        1.077165    1.969415    0.057703
      7          1           0        2.133243   -0.528447   -0.004625
      8          1           0       -1.874166   -1.175156   -0.029939
      9          1           0       -1.572016    1.543671   -0.014736
 ---------------------------------------------------------------------

 SCF Done:  E(RB3LYP) =  -228.736470640     A.U. after   15 cycles

 Excitation energies and oscillator strengths:

 Excited State   1:      Singlet-A      7.1583 eV  173.20 nm  f=0.1255  <S**2>=0.000
      17 -> 19        -0.22033
      18 -> 19         0.58449
      18 -> 20        -0.27711
 This state for optimization and/or second-order correction.
 Total Energy, E(CIS) =  -228.473408618
 Copying the excited state density for this state as the 1-particle RhoCI density.

 Excited State   2:      Singlet-A      7.4948 eV  165.43 nm  f=0.0715  <S**2>=0.000
      17 -> 19         0.49945
      18 -> 19         0.33455
      18 -> 20         0.34175

 Excited State   3:      Singlet-A      8.5096 eV  145.70 nm  f=0.0050  <S**2>=0.000
      16 -> 19         0.69905

 Excited State   4:      Singlet-A      8.5343 eV  145.28 nm  f=0.0021  <S**2>=0.000
      18 -> 21         0.69906

 Excited State   5:      Singlet-A      9.2510 eV  134.02 nm  f=0.2371  <S**2>=0.000
      15 -> 21         0.10268
      17 -> 19         0.27501
      17 -> 20         0.43977
      18 -> 20        -0.40108

 Excited State   6:      Singlet-A      9.4756 eV  130.85 nm  f=0.0063  <S**2>=0.000
      18 -> 22         0.66117
      18 -> 23         0.17789

 Excited State   7:      Singlet-A      9.6324 eV  128.72 nm  f=0.0064  <S**2>=0.000
      17 -> 21         0.53457
      18 -> 23        -0.42580

 Excited State   8:      Singlet-A      9.7000 eV  127.82 nm  f=0.0018  <S**2>=0.000
      15 -> 19         0.20794
      17 -> 21         0.42926
      18 -> 22        -0.15932
      18 -> 23         0.47447

 Excited State   9:      Singlet-A     10.0190 eV  123.75 nm  f=0.0103  <S**2>=0.000
      15 -> 19         0.64490
      16 -> 20         0.13043
      18 -> 23        -0.15386

 Excited State  10:      Singlet-A     10.0359 eV  123.54 nm  f=0.3075  <S**2>=0.000
      15 -> 19        -0.10808
      15 -> 21        -0.10084
      17 -> 19        -0.27025
      17 -> 20         0.47927
      18 -> 20         0.29312
      18 -> 23         0.10135

 Excited State  11:      Singlet-A     10.4656 eV  118.47 nm  f=0.0038  <S**2>=0.000
      13 -> 19         0.20699
      14 -> 19        -0.18704
      15 -> 19        -0.11701
      16 -> 20         0.58246
      17 -> 22         0.22913

 Excited State  12:      Singlet-A     10.5773 eV  117.22 nm  f=0.0031  <S**2>=0.000
      12 -> 19         0.10445
      13 -> 19        -0.11973
      16 -> 20        -0.20657
      17 -> 22         0.60862
      18 -> 24        -0.20516

 Excited State  13:      Singlet-A     10.7107 eV  115.76 nm  f=0.0027  <S**2>=0.000
      17 -> 22         0.21215
      18 -> 24         0.64444
      18 -> 25         0.10637

 Excited State  14:      Singlet-A     10.8322 eV  114.46 nm  f=0.0007  <S**2>=0.000
      13 -> 19         0.30317
      14 -> 19        -0.28541
      16 -> 20        -0.22726
      17 -> 23        -0.26674
      18 -> 25         0.41638

 Excited State  15:      Singlet-A     10.9492 eV  113.24 nm  f=0.0118  <S**2>=0.000
      12 -> 19        -0.39235
      13 -> 19        -0.15998
      14 -> 19         0.24552
      16 -> 20         0.14920
      17 -> 23         0.13403
      18 -> 24        -0.11030
      18 -> 25         0.43538

 The electronic state is 1-A.
 Alpha  occ. eigenvalues --  -19.09559 -10.17282 -10.16941 -10.12339 -10.11854
 Alpha  occ. eigenvalues --   -1.09140  -0.81063  -0.74580  -0.60096  -0.57718
 Alpha  occ. eigenvalues --   -0.54522  -0.44290  -0.43365  -0.42750  -0.40220
 Alpha  occ. eigenvalues --   -0.35249  -0.27887  -0.23520
 Alpha virt. eigenvalues --    0.01976   0.08596   0.12959   0.15374   0.17016
 Alpha virt. eigenvalues --    0.19929   0.20972   0.22293   0.35814   0.42379
 Alpha virt. eigenvalues --    0.47940   0.66177   0.69831   0.70591   0.76545

 Mulliken charges:
               1
     1  C   -0.258401
     2  C    0.072189
     3  O   -0.471729
     4  C    0.084427
     5  C   -0.252149
     6  H    0.186523
     7  H    0.222453
     8  H    0.219531
     9  H    0.197156
 Sum of Mulliken charges =   0.00000

 Dipole moment (field-independent basis, Debye):
    X=             -0.1669    Y=              0.7957    Z=             -0.0043  Tot=              0.8130
 Quadrupole moment (field-independent basis, Debye-Ang):
   XX=            -23.2943   YY=            -28.0528   ZZ=            -31.5997
   XY=              0.6473   XZ=              0.1645   YZ=              0.1791

 Normal termination of Gaussian 09 at Fri Dec 11 13:18:55 2015.
