 Gaussian 09, Revision D.01,
 Gaussian 09:  ES64L-G09RevD.01 24-Apr-2013

 -------------------------------------------------------
 #P B3LYP/3-21G CIS(Singlets,NStates=15) pop(full) force
 -------------------------------------------------------

 --------
 FuranDFT
 --------
 Symbolic Z-matrix:
 Charge =  0 Multiplicity = 1

                         Standard orientation:
 ---------------------------------------------------------------------
 Center     Atomic      Atomic             Coordinates (Angstroms)
 Number     Number       Type             X           Y           Z
 ---------------------------------------------------------------------
      1          6           0       -0.376584    1.124644   -0.024671
      2          6           0       -1.163767    0.018786   -0.011134
      3          8           0       -0.392425   -1.095488    0.009137
      4          6           0        0.940801   -0.648277   -0.018496
      5          6           0        1.003911    0.667765    0.015701
      6          1           0        1.949612    1.267863    0.039996
      7          1           0        1.649509   -1.489261    0.007927
      8          1           0       -2.235078   -0.102056    0.071992
      9          1           0       -0.650812    2.109852    0.038586
 ---------------------------------------------------------------------

 SCF Done:  E(RB3LYP) =  -228.744366250     A.U. after   14 cycles

 Excitation energies and oscillator strengths:

 Excited State   1:      Singlet-A      7.2307 eV  171.47 nm  f=0.0946  <S**2>=0.000
      17 -> 19         0.33652
      18 -> 19         0.49480
      18 -> 20        -0.34565
 This state for optimization and/or second-order correction.
 Total Energy, E(CIS) =  -228.478641270
 Copying the excited state density for this state as the 1-particle RhoCI density.

 Excited State   2:      Singlet-A      7.4596 eV  166.21 nm  f=0.1160  <S**2>=0.000
      17 -> 19        -0.40340
      18 -> 19         0.46811
      18 -> 20         0.30918

 Excited State   3:      Singlet-A      8.5489 eV  145.03 nm  f=0.0003  <S**2>=0.000
      18 -> 21         0.69467

 Excited State   4:      Singlet-A      8.8431 eV  140.20 nm  f=0.0064  <S**2>=0.000
      16 -> 19         0.69863

 Excited State   5:      Singlet-A      9.2541 eV  133.98 nm  f=0.0002  <S**2>=0.000
      18 -> 22         0.66947
      18 -> 23        -0.16194

 Excited State   6:      Singlet-A      9.4039 eV  131.84 nm  f=0.1858  <S**2>=0.000
      17 -> 19         0.19139
      17 -> 20         0.58779
      18 -> 20         0.26011

 Excited State   7:      Singlet-A      9.5467 eV  129.87 nm  f=0.0027  <S**2>=0.000
      15 -> 19         0.10773
      17 -> 21        -0.37069
      18 -> 22         0.16377
      18 -> 23         0.54665

 Excited State   8:      Singlet-A      9.6788 eV  128.10 nm  f=0.0279  <S**2>=0.000
      15 -> 19         0.16061
      17 -> 20         0.12022
      17 -> 21         0.55884
      17 -> 22        -0.11847
      18 -> 20        -0.11167
      18 -> 23         0.31174

 Excited State   9:      Singlet-A      9.8899 eV  125.36 nm  f=0.4183  <S**2>=0.000
      17 -> 19         0.35291
      17 -> 20        -0.29893
      17 -> 21         0.16048
      17 -> 22         0.12262
      18 -> 20         0.39072
      18 -> 23         0.13945

 Excited State  10:      Singlet-A      9.9773 eV  124.27 nm  f=0.0035  <S**2>=0.000
      15 -> 19         0.66980
      18 -> 23        -0.18205

 Excited State  11:      Singlet-A     10.3623 eV  119.65 nm  f=0.0334  <S**2>=0.000
      17 -> 22         0.66206
      18 -> 24         0.10153

 Excited State  12:      Singlet-A     10.4468 eV  118.68 nm  f=0.0006  <S**2>=0.000
      14 -> 19        -0.46100
      16 -> 20         0.51098

 Excited State  13:      Singlet-A     10.5838 eV  117.14 nm  f=0.0033  <S**2>=0.000
      17 -> 22        -0.10624
      17 -> 23        -0.10575
      18 -> 24         0.67129

 Excited State  14:      Singlet-A     10.7813 eV  115.00 nm  f=0.0012  <S**2>=0.000
      14 -> 19        -0.27856
      16 -> 20        -0.30136
      17 -> 23         0.52975
      17 -> 25        -0.10842
      18 -> 25        -0.13594

 Excited State  15:      Singlet-A     10.8611 eV  114.15 nm  f=0.0029  <S**2>=0.000
      12 -> 19        -0.15653
      13 -> 19         0.17387
      14 -> 19         0.38523
      16 -> 20         0.33549
      17 -> 23         0.35443
      18 -> 25        -0.19722

 The electronic state is 1-A.
 Alpha  occ. eigenvalues --  -19.10682 -10.17640 -10.17447 -10.12979 -10.11992
 Alpha  occ. eigenvalues --   -1.11527  -0.80703  -0.74764  -0.60168  -0.56853
 Alpha  occ. eigenvalues --   -0.54144  -0.44318  -0.43943  -0.42395  -0.39681
 Alpha  occ. eigenvalues --   -0.36119  -0.27744  -0.23594
 Alpha virt. eigenvalues --    0.02268   0.08121   0.12552   0.14600   0.16407
 Alpha virt. eigenvalues --    0.19493   0.21006   0.22854   0.36463   0.41963
 Alpha virt. eigenvalues --    0.46871   0.67722   0.69849   0.70283   0.75591

 Mulliken charges:
               1
     1  C   -0.277050
     2  C    0.118243
     3  O   -0.483059
     4  C    0.064256
     5  C   -0.234536
     6  H    0.190827
     7  H    0.215074
     8  H    0.218898
     9  H    0.187348
 Sum of Mulliken charges =   0.00000

 Dipole moment (field-independent basis, Debye):
    X=              0.2960    Y=              0.7238    Z=              0.1531  Tot=              0.7968
 Quadrupole moment (field-independent basis, Debye-Ang):
   XX=            -23.7663   YY=            -27.8267   ZZ=            -31.7723
   XY=             -1.1996   XZ=             -0.1303   YZ=              0.1579

 Normal termination of Gaussian 09 at Tue Dec 15 16:23:57 2015.
