 Gaussian 09, Revision D.01,
 Gaussian 09:  ES64L-G09RevD.01 24-Apr-2013

 -------------------------------------------------------
 #P B3LYP/3-21G CIS(Singlets,NStates=15) pop(full) force
 -------------------------------------------------------

 --------
 FuranDFT
 --------
 Symbolic Z-matrix:
 Charge =  0 Multiplicity = 1

                         Standard orientation:
 ---------------------------------------------------------------------
 Center     Atomic      Atomic             Coordinates (Angstroms)
 Number     Number       Type             X           Y           Z
 ---------------------------------------------------------------------
      1          6           0        0.225668    1.175268    0.009621
      2          6           0        1.134246    0.127333   -0.014697
      3          8           0        0.512387   -1.068016    0.009717
      4          6           0       -0.839463   -0.714196   -0.009019
      5          6           0       -1.062685    0.545460   -0.011297
      6          1           0       -1.968830    1.034051    0.041291
      7          1           0       -1.511663   -1.649770    0.015622
      8          1           0        2.190800    0.169636    0.015316
      9          1           0        0.443995    2.187015    0.002382
 ---------------------------------------------------------------------

 SCF Done:  E(RB3LYP) =  -228.733320390     A.U. after   14 cycles

 Excitation energies and oscillator strengths:

 Excited State   1:      Singlet-A      7.2393 eV  171.27 nm  f=0.1763  <S**2>=0.000
      17 -> 19        -0.11696
      18 -> 19         0.63785
      18 -> 20        -0.22602
 This state for optimization and/or second-order correction.
 Total Energy, E(CIS) =  -228.467280786
 Copying the excited state density for this state as the 1-particle RhoCI density.

 Excited State   2:      Singlet-A      7.5108 eV  165.08 nm  f=0.0329  <S**2>=0.000
      17 -> 19         0.49853
      18 -> 19         0.23183
      18 -> 20         0.42909

 Excited State   3:      Singlet-A      8.5751 eV  144.59 nm  f=0.0009  <S**2>=0.000
      18 -> 21         0.67877
      18 -> 22         0.16854

 Excited State   4:      Singlet-A      9.0606 eV  136.84 nm  f=0.0071  <S**2>=0.000
      16 -> 19         0.69205

 Excited State   5:      Singlet-A      9.2107 eV  134.61 nm  f=0.0006  <S**2>=0.000
      18 -> 21        -0.16524
      18 -> 22         0.67610

 Excited State   6:      Singlet-A      9.4967 eV  130.56 nm  f=0.2774  <S**2>=0.000
      17 -> 19         0.32592
      17 -> 20         0.43571
      18 -> 20        -0.37163
      18 -> 23        -0.11096

 Excited State   7:      Singlet-A      9.6945 eV  127.89 nm  f=0.0083  <S**2>=0.000
      15 -> 19         0.17118
      17 -> 21        -0.16291
      18 -> 23         0.64037

 Excited State   8:      Singlet-A      9.9443 eV  124.68 nm  f=0.0064  <S**2>=0.000
      15 -> 19         0.63384
      17 -> 21         0.26026

 Excited State   9:      Singlet-A     10.0058 eV  123.91 nm  f=0.0087  <S**2>=0.000
      15 -> 19        -0.23766
      17 -> 21         0.60108
      17 -> 22         0.12155
      18 -> 23         0.21260

 Excited State  10:      Singlet-A     10.2686 eV  120.74 nm  f=0.3577  <S**2>=0.000
      17 -> 19        -0.27533
      17 -> 20         0.49705
      17 -> 21        -0.14535
      17 -> 22         0.11417
      18 -> 20         0.27430

 Excited State  11:      Singlet-A     10.4723 eV  118.39 nm  f=0.0047  <S**2>=0.000
      14 -> 19         0.56020
      16 -> 20         0.22682
      17 -> 22        -0.33815

 Excited State  12:      Singlet-A     10.6416 eV  116.51 nm  f=0.0219  <S**2>=0.000
      14 -> 19         0.32778
      17 -> 21        -0.11242
      17 -> 22         0.58106

 Excited State  13:      Singlet-A     10.7266 eV  115.59 nm  f=0.0058  <S**2>=0.000
      18 -> 23        -0.11328
      18 -> 24         0.65099
      18 -> 25        -0.21444

 Excited State  14:      Singlet-A     10.8577 eV  114.19 nm  f=0.0075  <S**2>=0.000
      18 -> 24         0.22906
      18 -> 25         0.65061

 Excited State  15:      Singlet-A     10.9334 eV  113.40 nm  f=0.0015  <S**2>=0.000
      13 -> 19         0.27314
      14 -> 19        -0.24329
      16 -> 20         0.59218

 The electronic state is 1-A.
 Alpha  occ. eigenvalues --  -19.11465 -10.17477 -10.17417 -10.12108 -10.11693
 Alpha  occ. eigenvalues --   -1.12667  -0.82056  -0.74307  -0.60736  -0.56995
 Alpha  occ. eigenvalues --   -0.54924  -0.44876  -0.44259  -0.42359  -0.39701
 Alpha  occ. eigenvalues --   -0.36914  -0.28588  -0.23224
 Alpha virt. eigenvalues --    0.02261   0.08642   0.12825   0.14976   0.17342
 Alpha virt. eigenvalues --    0.20202   0.21151   0.23756   0.35498   0.43181
 Alpha virt. eigenvalues --    0.46834   0.66938   0.69832   0.71540   0.75980

 Mulliken charges:
               1
     1  C   -0.260473
     2  C    0.098268
     3  O   -0.478179
     4  C    0.083535
     5  C   -0.245391
     6  H    0.197494
     7  H    0.201762
     8  H    0.216458
     9  H    0.186526
 Sum of Mulliken charges =   0.00000

 Dipole moment (field-independent basis, Debye):
    X=             -0.3739    Y=              0.7932    Z=              0.0647  Tot=              0.8793
 Quadrupole moment (field-independent basis, Debye-Ang):
   XX=            -24.4435   YY=            -27.4941   ZZ=            -31.6306
   XY=              1.5381   XZ=             -0.0900   YZ=              0.0386

 Normal termination of Gaussian 09 at Tue Dec 15 16:13:47 2015.
