 Gaussian 09, Revision D.01,
 Gaussian 09:  ES64L-G09RevD.01 24-Apr-2013

 ------------------------------------------------------------
 #P AM1(Input,print) CIS(Singlets,NStates=15) pop(full) force
 ------------------------------------------------------------

 -----------------
 AM1-Reparam Input
 -----------------
 Symbolic Z-matrix:
 Charge =  0 Multiplicity = 1

                         Standard orientation:
 ---------------------------------------------------------------------
 Center     Atomic      Atomic             Coordinates (Angstroms)
 Number     Number       Type             X           Y           Z
 ---------------------------------------------------------------------
      1          6           0        0.998752    0.679922   -0.001949
      2          6           0        0.970490   -0.617294   -0.003461
      3          8           0       -0.401906   -1.116253   -0.007436
      4          6           0       -1.112923    0.025511    0.003450
      5          6           0       -0.424883    1.084749   -0.002005
      6          1           0       -0.759060    2.137273    0.008006
      7          1           0       -2.161964   -0.160181    0.024412
      8          1           0        1.666415   -1.403271    0.051075
      9          1           0        1.881249    1.318878   -0.000214
 ---------------------------------------------------------------------

 SCF Done:  E(RAM1) =   1.83856748396     A.U. after   14 cycles

 Excitation energies and oscillator strengths:

 Excited State   1:      Singlet-A      5.0318 eV  246.40 nm  f=0.3604  <S**2>=0.000
      13 -> 14         0.69687
 This state for optimization and/or second-order correction.
 Total Energy, E(CIS) =   2.02348271314
 Copying the excited state density for this state as the 1-particle RhoCI density.

 Excited State   2:      Singlet-A      5.9756 eV  207.48 nm  f=0.0004  <S**2>=0.000
      13 -> 15         0.68825

 Excited State   3:      Singlet-A      6.6973 eV  185.13 nm  f=0.0002  <S**2>=0.000
      12 -> 14         0.70318

 Excited State   4:      Singlet-A      6.8708 eV  180.45 nm  f=0.0006  <S**2>=0.000
      13 -> 16         0.66938
      13 -> 17        -0.13426

 Excited State   5:      Singlet-A      8.0051 eV  154.88 nm  f=0.0077  <S**2>=0.000
      11 -> 14         0.69212
      13 -> 17        -0.11585

 Excited State   6:      Singlet-A      8.1727 eV  151.71 nm  f=0.0001  <S**2>=0.000
      13 -> 16         0.13539
      13 -> 17         0.19695
      13 -> 18         0.60758
      13 -> 20        -0.13996
      13 -> 22        -0.20080

 Excited State   7:      Singlet-A      8.5844 eV  144.43 nm  f=0.0050  <S**2>=0.000
      11 -> 14         0.11765
      13 -> 17         0.64003
      13 -> 18        -0.18486
      13 -> 20         0.15532

 Excited State   8:      Singlet-A      9.1824 eV  135.02 nm  f=0.0768  <S**2>=0.000
       9 -> 15         0.11975
      10 -> 14        -0.24809
      12 -> 15         0.55440
      12 -> 18         0.13879
      13 -> 19         0.23589

 Excited State   9:      Singlet-A      9.2394 eV  134.19 nm  f=0.0005  <S**2>=0.000
      13 -> 18         0.20583
      13 -> 20         0.65583

 Excited State  10:      Singlet-A      9.2784 eV  133.63 nm  f=0.0411  <S**2>=0.000
       8 -> 16         0.10174
      10 -> 14        -0.39726
      12 -> 15        -0.25265
      12 -> 16         0.22520
      12 -> 18        -0.15079
      13 -> 19         0.40538

 Excited State  11:      Singlet-A      9.7788 eV  126.79 nm  f=0.0604  <S**2>=0.000
      10 -> 14         0.29855
      11 -> 15        -0.16710
      11 -> 18        -0.10939
      12 -> 15        -0.14150
      12 -> 16        -0.25564
      12 -> 18         0.15675
      13 -> 19         0.47923

 Excited State  12:      Singlet-A     10.0255 eV  123.67 nm  f=0.0804  <S**2>=0.000
      10 -> 14         0.35359
      11 -> 15         0.22700
      11 -> 17        -0.17384
      12 -> 15         0.22300
      12 -> 16         0.24181
      12 -> 17        -0.23251
      12 -> 18        -0.22951
      13 -> 19         0.19583

 Excited State  13:      Singlet-A     10.1566 eV  122.07 nm  f=0.0682  <S**2>=0.000
      13 -> 21         0.64045
      13 -> 22        -0.24722

 Excited State  14:      Singlet-A     10.4373 eV  118.79 nm  f=0.1962  <S**2>=0.000
       9 -> 16        -0.10666
      10 -> 14         0.14878
      11 -> 16        -0.23441
      11 -> 17         0.18558
      12 -> 16         0.48659
      12 -> 17         0.10452
      12 -> 18         0.27854

 Excited State  15:      Singlet-A     10.4832 eV  118.27 nm  f=0.0162  <S**2>=0.000
      13 -> 18         0.17147
      13 -> 21         0.25357
      13 -> 22         0.62297

 The electronic state is 1-A.
 Alpha  occ. eigenvalues --   -1.90633  -1.18008  -0.93961  -0.81477  -0.78386
 Alpha  occ. eigenvalues --   -0.70329  -0.67621  -0.54749  -0.53531  -0.46625
 Alpha  occ. eigenvalues --   -0.43062  -0.38838  -0.26488
 Alpha virt. eigenvalues --    0.12377   0.17769   0.21546   0.29309   0.29849
 Alpha virt. eigenvalues --    0.31190   0.32064   0.34996   0.37975   0.40832
 Alpha virt. eigenvalues --    0.42871

 Mulliken charges:
               1
     1  C   -0.122902
     2  C   -1.945572
     3  O    3.273856
     4  C   -1.952910
     5  C   -0.278861
     6  H    0.208028
     7  H    0.323012
     8  H    0.301690
     9  H    0.193659
 Sum of Mulliken charges =   0.00000

 Dipole moment (field-independent basis, Debye):
    X=             -4.5206    Y=            -11.4163    Z=              0.0544  Tot=             12.2789
 N-N= 1.039681171512D+02 E-N=-1.694683793489D+02  KE=-1.551652831405D+01
 Orbital energies and kinetic energies (alpha):
                                 1                 2
   1         O                -1.906330         -1.345558
   2         O                -1.180080         -1.063739
   3         O                -0.939609         -0.910052
   4         O                -0.814772         -0.577156
   5         O                -0.783864         -0.690951
   6         O                -0.703293         -0.564318
   7         O                -0.676206         -0.543488

 Normal termination of Gaussian 09 at Tue Dec 15 17:09:49 2015.
