 Gaussian 09, Revision D.01,
 Gaussian 09:  ES64L-G09RevD.01 24-Apr-2013

 ------------------------------------------------------------
 #P AM1(Input,print) CIS(Singlets,NStates=15) pop(full) force
 ------------------------------------------------------------

 -----------------
 AM1-Reparam Input
 -----------------
 Symbolic Z-matrix:
 Charge =  0 Multiplicity = 1

                         Standard orientation:
 ---------------------------------------------------------------------
 Center     Atomic      Atomic             Coordinates (Angstroms)
 Number     Number       Type             X           Y           Z
 ---------------------------------------------------------------------
      1          6           0        0.760338    0.887249   -0.009021
      2          6           0        1.077972   -0.418550    0.017701
      3          8           0       -0.077139   -1.163490   -0.014097
      4          6           0       -1.145988   -0.238772    0.027431
      5          6           0       -0.613710    0.982587   -0.024102
      6          1           0       -1.233499    1.867463    0.041784
      7          1           0       -2.067250   -0.683119   -0.020846
      8          1           0        1.969513   -0.900513   -0.005957
      9          1           0        1.476681    1.749002    0.025739
 ---------------------------------------------------------------------

 SCF Done:  E(RAM1) =   1.83491575797     A.U. after   13 cycles

 Excitation energies and oscillator strengths:

 Excited State   1:      Singlet-A      5.5829 eV  222.08 nm  f=0.3155  <S**2>=0.000
      13 -> 14         0.68709
 This state for optimization and/or second-order correction.
 Total Energy, E(CIS) =   2.04008523650
 Copying the excited state density for this state as the 1-particle RhoCI density.

 Excited State   2:      Singlet-A      6.8492 eV  181.02 nm  f=0.0078  <S**2>=0.000
      13 -> 15         0.67824
      13 -> 17        -0.11302

 Excited State   3:      Singlet-A      7.1071 eV  174.45 nm  f=0.0005  <S**2>=0.000
      13 -> 16         0.66632
      13 -> 19        -0.14965

 Excited State   4:      Singlet-A      7.6915 eV  161.20 nm  f=0.0006  <S**2>=0.000
      12 -> 14         0.69630

 Excited State   5:      Singlet-A      8.0713 eV  153.61 nm  f=0.0055  <S**2>=0.000
      11 -> 14         0.69588

 Excited State   6:      Singlet-A      8.3166 eV  149.08 nm  f=0.0002  <S**2>=0.000
      13 -> 17        -0.20682
      13 -> 18         0.61522
      13 -> 22         0.22847

 Excited State   7:      Singlet-A      9.1191 eV  135.96 nm  f=0.0057  <S**2>=0.000
      10 -> 16        -0.14990
      13 -> 17         0.63251
      13 -> 18         0.20439

 Excited State   8:      Singlet-A      9.2494 eV  134.05 nm  f=0.0831  <S**2>=0.000
      10 -> 14         0.66617

 Excited State   9:      Singlet-A      9.7133 eV  127.64 nm  f=0.1186  <S**2>=0.000
       9 -> 16        -0.10874
      11 -> 15        -0.31820
      11 -> 16        -0.20621
      11 -> 17         0.28161
      12 -> 15        -0.21135
      12 -> 18         0.34917
      13 -> 14        -0.13408

 Excited State  10:      Singlet-A      9.7648 eV  126.97 nm  f=0.0009  <S**2>=0.000
      10 -> 15        -0.14970
      13 -> 16         0.10191
      13 -> 18         0.10708
      13 -> 19         0.64001
      13 -> 22        -0.12215

 Excited State  11:      Singlet-A     10.3101 eV  120.25 nm  f=0.0061  <S**2>=0.000
      11 -> 15        -0.25100
      11 -> 16         0.27739
      11 -> 19        -0.14307
      12 -> 15         0.39709
      12 -> 16         0.37442
      12 -> 17        -0.12208

 Excited State  12:      Singlet-A     10.3450 eV  119.85 nm  f=0.2315  <S**2>=0.000
      11 -> 15         0.38367
      12 -> 15        -0.21924
      12 -> 16         0.50389
      12 -> 19        -0.12383

 Excited State  13:      Singlet-A     10.4942 eV  118.15 nm  f=0.0336  <S**2>=0.000
      13 -> 18        -0.19533
      13 -> 19         0.15135
      13 -> 20        -0.40900
      13 -> 22         0.48444

 Excited State  14:      Singlet-A     10.6629 eV  116.28 nm  f=0.0443  <S**2>=0.000
      10 -> 15         0.40082
      13 -> 18        -0.11077
      13 -> 19         0.11255
      13 -> 20         0.40857
      13 -> 22         0.32813

 Excited State  15:      Singlet-A     10.7638 eV  115.19 nm  f=0.0321  <S**2>=0.000
      10 -> 15         0.49420
      10 -> 16         0.18817
      13 -> 20        -0.31329
      13 -> 22        -0.27153

 The electronic state is 1-A.
 Alpha  occ. eigenvalues --   -1.98984  -1.28931  -1.01889  -0.89148  -0.86738
 Alpha  occ. eigenvalues --   -0.77078  -0.74642  -0.64206  -0.62289  -0.52155
 Alpha  occ. eigenvalues --   -0.50580  -0.49625  -0.36931
 Alpha virt. eigenvalues --    0.05264   0.12283   0.13126   0.19917   0.20401
 Alpha virt. eigenvalues --    0.23539   0.25820   0.27128   0.27725   0.35463
 Alpha virt. eigenvalues --    0.40207

 Mulliken charges:
               1
     1  C   -0.156984
     2  C   -1.893409
     3  O    3.181302
     4  C   -1.861455
     5  C   -0.120659
     6  H    0.157904
     7  H    0.253979
     8  H    0.275074
     9  H    0.164249
 Sum of Mulliken charges =   0.00000

 Dipole moment (field-independent basis, Debye):
    X=             -0.5250    Y=            -10.8395    Z=             -0.5511  Tot=             10.8662
 N-N= 1.058700480275D+02 E-N=-1.709032925183D+02  KE=-1.570303349718D+01
 Orbital energies and kinetic energies (alpha):
                                 1                 2
   1         O                -1.989843         -1.359894
   2         O                -1.289308         -1.060626
   3         O                -1.018891         -0.902039
   4         O                -0.891476         -0.587319
   5         O                -0.867379         -0.712099
   6         O                -0.770784         -0.607938
   7         O                -0.746424         -0.553171

 Normal termination of Gaussian 09 at Tue Dec 15 17:08:58 2015.
