 Gaussian 09, Revision D.01,
 Gaussian 09:  ES64L-G09RevD.01 24-Apr-2013

 ------------------------------------------------------------
 #P AM1(Input,print) CIS(Singlets,NStates=15) pop(full) force
 ------------------------------------------------------------

 -----------------
 AM1-Reparam Input
 -----------------
 Symbolic Z-matrix:
 Charge =  0 Multiplicity = 1

                         Standard orientation:
 ---------------------------------------------------------------------
 Center     Atomic      Atomic             Coordinates (Angstroms)
 Number     Number       Type             X           Y           Z
 ---------------------------------------------------------------------
      1          6           0        0.784739    0.890012    0.024979
      2          6           0        1.094651   -0.427110   -0.003319
      3          8           0       -0.098608   -1.146301   -0.008261
      4          6           0       -1.154740   -0.277523    0.017410
      5          6           0       -0.611548    1.025134   -0.026362
      6          1           0       -1.258019    1.925486   -0.014861
      7          1           0       -2.069470   -0.704131    0.026416
      8          1           0        1.965159   -1.006822   -0.021285
      9          1           0        1.472580    1.692791   -0.000433
 ---------------------------------------------------------------------

 SCF Done:  E(RAM1) =   2.52203909141     A.U. after   13 cycles

 Excitation energies and oscillator strengths:

 Excited State   1:      Singlet-A      5.4864 eV  225.98 nm  f=0.3365  <S**2>=0.000
      13 -> 14         0.69351
 This state for optimization and/or second-order correction.
 Total Energy, E(CIS) =   2.72366074579
 Copying the excited state density for this state as the 1-particle RhoCI density.

 Excited State   2:      Singlet-A      6.7279 eV  184.28 nm  f=0.0064  <S**2>=0.000
      10 -> 16        -0.10254
      13 -> 15         0.63026
      13 -> 16         0.19647
      13 -> 17        -0.20986

 Excited State   3:      Singlet-A      6.9742 eV  177.78 nm  f=0.0000  <S**2>=0.000
      10 -> 15        -0.13031
      13 -> 15        -0.19981
      13 -> 16         0.62165
      13 -> 18         0.11533
      13 -> 19        -0.17573

 Excited State   4:      Singlet-A      7.0622 eV  175.56 nm  f=0.0003  <S**2>=0.000
       9 -> 14         0.13207
      12 -> 14         0.68969

 Excited State   5:      Singlet-A      7.7570 eV  159.84 nm  f=0.0052  <S**2>=0.000
      10 -> 14        -0.14308
      11 -> 14         0.68260

 Excited State   6:      Singlet-A      8.1411 eV  152.29 nm  f=0.0003  <S**2>=0.000
      13 -> 16        -0.10103
      13 -> 18         0.58089
      13 -> 20         0.17146
      13 -> 21        -0.31331

 Excited State   7:      Singlet-A      8.5428 eV  145.13 nm  f=0.0082  <S**2>=0.000
      10 -> 16        -0.17543
      13 -> 15         0.15909
      13 -> 17         0.64730

 Excited State   8:      Singlet-A      8.7957 eV  140.96 nm  f=0.0942  <S**2>=0.000
      10 -> 14         0.67364
      11 -> 14         0.13862

 Excited State   9:      Singlet-A      9.1597 eV  135.36 nm  f=0.0007  <S**2>=0.000
      10 -> 15        -0.15697
      13 -> 16         0.14019
      13 -> 19         0.63504
      13 -> 20        -0.11861
      13 -> 21         0.11911

 Excited State  10:      Singlet-A      9.5587 eV  129.71 nm  f=0.0463  <S**2>=0.000
       9 -> 16        -0.12920
      11 -> 15         0.29608
      11 -> 17        -0.25279
      12 -> 16        -0.18456
      12 -> 18        -0.28939
      13 -> 18        -0.18318
      13 -> 20         0.22882
      13 -> 21        -0.19216

 Excited State  11:      Singlet-A      9.5918 eV  129.26 nm  f=0.0227  <S**2>=0.000
      11 -> 15         0.17897
      11 -> 17        -0.14581
      12 -> 16        -0.10653
      12 -> 18        -0.17644
      13 -> 18         0.31275
      13 -> 19        -0.14335
      13 -> 20        -0.28361
      13 -> 21         0.39234

 Excited State  12:      Singlet-A      9.9460 eV  124.66 nm  f=0.0297  <S**2>=0.000
      11 -> 16         0.29774
      11 -> 19        -0.11504
      12 -> 15         0.47623
      12 -> 16         0.29203
      12 -> 17        -0.16919
      13 -> 20        -0.10768

 Excited State  13:      Singlet-A      9.9882 eV  124.13 nm  f=0.1877  <S**2>=0.000
      11 -> 15         0.27430
      12 -> 15        -0.35961
      12 -> 16         0.47112
      12 -> 19        -0.12681

 Excited State  14:      Singlet-A     10.0336 eV  123.57 nm  f=0.0936  <S**2>=0.000
       9 -> 14        -0.16713
      10 -> 16        -0.15968
      12 -> 16         0.16063
      13 -> 20         0.50869
      13 -> 21         0.35931

 Excited State  15:      Singlet-A     10.1539 eV  122.11 nm  f=0.0069  <S**2>=0.000
       9 -> 14         0.64845
      12 -> 14        -0.12063
      13 -> 20         0.10980
      13 -> 21         0.17844

 The electronic state is 1-A.
 Alpha  occ. eigenvalues --   -1.73081  -1.15549  -0.95913  -0.80919  -0.77363
 Alpha  occ. eigenvalues --   -0.67718  -0.63962  -0.56447  -0.50972  -0.44093
 Alpha  occ. eigenvalues --   -0.43909  -0.41712  -0.30060
 Alpha virt. eigenvalues --    0.11009   0.18623   0.19130   0.24782   0.26883
 Alpha virt. eigenvalues --    0.28451   0.30254   0.31599   0.38180   0.47003
 Alpha virt. eigenvalues --    0.52282

 Mulliken charges:
               1
     1  C   -0.036195
     2  C   -1.919922
     3  O    3.241038
     4  C   -1.942345
     5  C   -0.091648
     6  H    0.129176
     7  H    0.247576
     8  H    0.250021
     9  H    0.122298
 Sum of Mulliken charges =   0.00000

 Dipole moment (field-independent basis, Debye):
    X=             -0.6780    Y=            -10.3067    Z=             -0.2225  Tot=             10.3313
 N-N= 1.035158505338D+02 E-N=-1.681219188263D+02  KE=-1.503174535431D+01
 Orbital energies and kinetic energies (alpha):
                                 1                 2
   1         O                -1.730807         -1.218307
   2         O                -1.155492         -1.005865
   3         O                -0.959133         -0.860568
   4         O                -0.809185         -0.630232
   5         O                -0.773630         -0.690273
   6         O                -0.677181         -0.579215
   7         O                -0.639619         -0.517933

 Normal termination of Gaussian 09 at Tue Dec 15 17:06:18 2015.
