 Gaussian 09, Revision D.01,
 Gaussian 09:  ES64L-G09RevD.01 24-Apr-2013

 ------------------------------------------------------------
 #P AM1(Input,print) CIS(Singlets,NStates=15) pop(full) force
 ------------------------------------------------------------

 -----------------
 AM1-Reparam Input
 -----------------
 Symbolic Z-matrix:
 Charge =  0 Multiplicity = 1

                         Standard orientation:
 ---------------------------------------------------------------------
 Center     Atomic      Atomic             Coordinates (Angstroms)
 Number     Number       Type             X           Y           Z
 ---------------------------------------------------------------------
      1          6           0        0.210344    1.215219    0.000537
      2          6           0        1.154654    0.153317    0.005513
      3          8           0        0.507579   -1.068729   -0.020091
      4          6           0       -0.798119   -0.745271    0.028571
      5          6           0       -1.090367    0.497913   -0.007144
      6          1           0       -2.018436    1.049665   -0.014923
      7          1           0       -1.467395   -1.591341   -0.012691
      8          1           0        2.158500    0.144025    0.042539
      9          1           0        0.407627    2.220422   -0.019058
 ---------------------------------------------------------------------

 SCF Done:  E(RAM1) =   1.77582359284     A.U. after   14 cycles

 Excitation energies and oscillator strengths:

 Excited State   1:      Singlet-A      5.2274 eV  237.18 nm  f=0.3807  <S**2>=0.000
      13 -> 14         0.69731
 This state for optimization and/or second-order correction.
 Total Energy, E(CIS) =   1.96792713102
 Copying the excited state density for this state as the 1-particle RhoCI density.

 Excited State   2:      Singlet-A      6.6033 eV  187.76 nm  f=0.0006  <S**2>=0.000
      13 -> 15         0.67897
      13 -> 18         0.12467

 Excited State   3:      Singlet-A      6.7288 eV  184.26 nm  f=0.0003  <S**2>=0.000
      12 -> 14         0.70087

 Excited State   4:      Singlet-A      7.2570 eV  170.85 nm  f=0.0035  <S**2>=0.000
      13 -> 16         0.65920
      13 -> 17        -0.18900
      13 -> 19         0.10984

 Excited State   5:      Singlet-A      8.1312 eV  152.48 nm  f=0.0060  <S**2>=0.000
      11 -> 14         0.69799

 Excited State   6:      Singlet-A      8.5434 eV  145.12 nm  f=0.0032  <S**2>=0.000
      13 -> 16         0.14465
      13 -> 17         0.47226
      13 -> 18         0.42960
      13 -> 22         0.22450

 Excited State   7:      Singlet-A      9.1813 eV  135.04 nm  f=0.0714  <S**2>=0.000
      10 -> 14         0.59051
      12 -> 15        -0.25900
      12 -> 17        -0.11057
      13 -> 17        -0.11041
      13 -> 18         0.13191

 Excited State   8:      Singlet-A      9.2105 eV  134.61 nm  f=0.0103  <S**2>=0.000
      10 -> 14        -0.14909
      13 -> 17        -0.41330
      13 -> 18         0.49753
      13 -> 19        -0.15080

 Excited State   9:      Singlet-A      9.5842 eV  129.36 nm  f=0.1874  <S**2>=0.000
       9 -> 15        -0.10136
      10 -> 14         0.30369
      11 -> 18        -0.10325
      12 -> 15         0.50890
      12 -> 16        -0.20025
      12 -> 17         0.16532
      12 -> 18         0.14387

 Excited State  10:      Singlet-A      9.7530 eV  127.12 nm  f=0.0044  <S**2>=0.000
      10 -> 16         0.12204
      13 -> 16        -0.11452
      13 -> 19         0.66012

 Excited State  11:      Singlet-A     10.1673 eV  121.94 nm  f=0.0133  <S**2>=0.000
      11 -> 15         0.18819
      11 -> 18         0.18468
      12 -> 15         0.34950
      12 -> 16         0.35577
      12 -> 17        -0.32489
      12 -> 18        -0.11463
      12 -> 22        -0.10230

 Excited State  12:      Singlet-A     10.5694 eV  117.30 nm  f=0.0683  <S**2>=0.000
       9 -> 14        -0.12379
      13 -> 17        -0.11807
      13 -> 20         0.34234
      13 -> 21        -0.38052
      13 -> 22         0.42368

 Excited State  13:      Singlet-A     10.6012 eV  116.95 nm  f=0.0256  <S**2>=0.000
      13 -> 17        -0.14629
      13 -> 20        -0.26857
      13 -> 21         0.34145
      13 -> 22         0.50826

 Excited State  14:      Singlet-A     10.8464 eV  114.31 nm  f=0.0799  <S**2>=0.000
       9 -> 15         0.20885
      10 -> 14        -0.13161
      11 -> 15         0.34001
      12 -> 16        -0.22989
      12 -> 19        -0.11920
      13 -> 20         0.35009
      13 -> 21         0.27992

 Excited State  15:      Singlet-A     10.9326 eV  113.41 nm  f=0.1182  <S**2>=0.000
      11 -> 15         0.11712
      11 -> 16        -0.33745
      11 -> 17         0.13500
      12 -> 16         0.40603
      12 -> 17         0.17183
      12 -> 18         0.24462
      12 -> 19         0.16085

 The electronic state is 1-A.
 Alpha  occ. eigenvalues --   -1.90709  -1.16989  -0.93067  -0.81923  -0.78624
 Alpha  occ. eigenvalues --   -0.70699  -0.67529  -0.55510  -0.54666  -0.46499
 Alpha  occ. eigenvalues --   -0.45502  -0.40867  -0.28979
 Alpha virt. eigenvalues --    0.10600   0.17601   0.21481   0.28350   0.29326
 Alpha virt. eigenvalues --    0.31189   0.33546   0.33880   0.35982   0.42808
 Alpha virt. eigenvalues --    0.45647

 Mulliken charges:
               1
     1  C   -0.184575
     2  C   -2.024384
     3  O    3.282555
     4  C   -1.978666
     5  C   -0.155237
     6  H    0.201751
     7  H    0.336781
     8  H    0.319925
     9  H    0.201850
 Sum of Mulliken charges =   0.00000

 Dipole moment (field-independent basis, Debye):
    X=              3.7974    Y=            -10.5903    Z=             -0.5446  Tot=             11.2637
 N-N= 1.038639422718D+02 E-N=-1.692339002144D+02  KE=-1.551109287616D+01
 Orbital energies and kinetic energies (alpha):
                                 1                 2
   1         O                -1.907090         -1.363723
   2         O                -1.169889         -1.056977
   3         O                -0.930670         -0.892362
   4         O                -0.819227         -0.571390
   5         O                -0.786239         -0.701802
   6         O                -0.706989         -0.588045
   7         O                -0.675288         -0.534175

 Normal termination of Gaussian 09 at Tue Dec 15 17:09:37 2015.
