 Gaussian 09, Revision D.01,
 Gaussian 09:  ES64L-G09RevD.01 24-Apr-2013

 ------------------------------------------------------------
 #P AM1(Input,print) CIS(Singlets,NStates=15) pop(full) force
 ------------------------------------------------------------

 -----------------
 AM1-Reparam Input
 -----------------
 Symbolic Z-matrix:
 Charge =  0 Multiplicity = 1

                         Standard orientation:
 ---------------------------------------------------------------------
 Center     Atomic      Atomic             Coordinates (Angstroms)
 Number     Number       Type             X           Y           Z
 ---------------------------------------------------------------------
      1          6           0       -0.885000    0.851222   -0.017525
      2          6           0       -1.028314   -0.529937    0.024752
      3          8           0        0.176282   -1.125813   -0.025403
      4          6           0        1.140646   -0.185201    0.009596
      5          6           0        0.603293    1.036301    0.004514
      6          1           0        1.084755    1.957468   -0.002401
      7          1           0        2.141008   -0.531214    0.041122
      8          1           0       -1.941124   -1.084861    0.040854
      9          1           0       -1.678640    1.630808   -0.004370
 ---------------------------------------------------------------------

 SCF Done:  E(RAM1) =   1.78591306815     A.U. after   14 cycles

 Excitation energies and oscillator strengths:

 Excited State   1:      Singlet-A      5.2235 eV  237.36 nm  f=0.3779  <S**2>=0.000
      13 -> 14         0.69571
 This state for optimization and/or second-order correction.
 Total Energy, E(CIS) =   1.97787322757
 Copying the excited state density for this state as the 1-particle RhoCI density.

 Excited State   2:      Singlet-A      6.6266 eV  187.10 nm  f=0.0088  <S**2>=0.000
      13 -> 15         0.56609
      13 -> 16         0.37524
      13 -> 18        -0.15248

 Excited State   3:      Singlet-A      6.6897 eV  185.33 nm  f=0.0004  <S**2>=0.000
      13 -> 15        -0.37464
      13 -> 16         0.54238
      13 -> 17         0.18959
      13 -> 19        -0.13208

 Excited State   4:      Singlet-A      7.2335 eV  171.40 nm  f=0.0002  <S**2>=0.000
      12 -> 14         0.70052

 Excited State   5:      Singlet-A      7.8966 eV  157.01 nm  f=0.0001  <S**2>=0.000
      13 -> 16        -0.16931
      13 -> 17         0.63501
      13 -> 20         0.13371
      13 -> 21        -0.17424

 Excited State   6:      Singlet-A      8.3744 eV  148.05 nm  f=0.0063  <S**2>=0.000
      10 -> 14         0.68765
      11 -> 14         0.10266

 Excited State   7:      Singlet-A      8.9813 eV  138.05 nm  f=0.1098  <S**2>=0.000
      10 -> 14        -0.12868
      11 -> 14         0.63620
      13 -> 18        -0.21731

 Excited State   8:      Singlet-A      9.0057 eV  137.67 nm  f=0.0198  <S**2>=0.000
      11 -> 14         0.23598
      11 -> 16        -0.12186
      13 -> 15         0.11646
      13 -> 18         0.63047

 Excited State   9:      Singlet-A      9.4496 eV  131.21 nm  f=0.0008  <S**2>=0.000
      11 -> 15        -0.11321
      13 -> 16         0.11561
      13 -> 19         0.67427

 Excited State  10:      Singlet-A      9.7842 eV  126.72 nm  f=0.0211  <S**2>=0.000
       8 -> 15        -0.10461
       9 -> 16        -0.12710
      10 -> 15         0.20269
      10 -> 18        -0.20965
      12 -> 15        -0.10037
      12 -> 16         0.39994
      12 -> 17         0.40383

 Excited State  11:      Singlet-A     10.0844 eV  122.95 nm  f=0.0251  <S**2>=0.000
      13 -> 17        -0.20623
      13 -> 20         0.54823
      13 -> 21        -0.36880

 Excited State  12:      Singlet-A     10.2988 eV  120.39 nm  f=0.0840  <S**2>=0.000
      10 -> 15         0.20697
      10 -> 16        -0.11592
      12 -> 15         0.61602
      12 -> 18        -0.10427

 Excited State  13:      Singlet-A     10.4135 eV  119.06 nm  f=0.0771  <S**2>=0.000
      11 -> 16        -0.15709
      13 -> 20         0.37924
      13 -> 21         0.55539

 Excited State  14:      Singlet-A     10.5085 eV  117.98 nm  f=0.1926  <S**2>=0.000
      10 -> 15        -0.23212
      10 -> 16        -0.25394
      10 -> 18         0.12577
      11 -> 15        -0.16610
      12 -> 15         0.12005
      12 -> 16         0.48109
      12 -> 17        -0.15729
      12 -> 19        -0.12876

 Excited State  15:      Singlet-A     10.6106 eV  116.85 nm  f=0.0116  <S**2>=0.000
       7 -> 16         0.10777
      10 -> 15        -0.13247
      10 -> 16        -0.12691
      11 -> 15         0.55398
      11 -> 16         0.26582
      12 -> 16         0.11608
      13 -> 16         0.11692

 The electronic state is 1-A.
 Alpha  occ. eigenvalues --   -2.00063  -1.25195  -1.01222  -0.90198  -0.84362
 Alpha  occ. eigenvalues --   -0.76981  -0.74556  -0.64731  -0.61308  -0.53686
 Alpha  occ. eigenvalues --   -0.52965  -0.50018  -0.36499
 Alpha virt. eigenvalues --    0.02920   0.11207   0.11636   0.19505   0.19856
 Alpha virt. eigenvalues --    0.22419   0.24576   0.26037   0.30085   0.37740
 Alpha virt. eigenvalues --    0.43654

 Mulliken charges:
               1
     1  C   -0.133843
     2  C   -1.923717
     3  O    3.174538
     4  C   -1.883297
     5  C   -0.119131
     6  H    0.146102
     7  H    0.284256
     8  H    0.298771
     9  H    0.156323
 Sum of Mulliken charges =   0.00000

 Dipole moment (field-independent basis, Debye):
    X=              1.5257    Y=             -9.9751    Z=             -0.4719  Tot=             10.1022
 N-N= 1.054159794688D+02 E-N=-1.701899768984D+02  KE=-1.563447253158D+01
 Orbital energies and kinetic energies (alpha):
                                 1                 2
   1         O                -2.000630         -1.385786
   2         O                -1.251950         -1.028156
   3         O                -1.012216         -0.879007
   4         O                -0.901976         -0.593160
   5         O                -0.843618         -0.709696
   6         O                -0.769815         -0.593436
   7         O                -0.745562         -0.536384

 Normal termination of Gaussian 09 at Tue Dec 15 17:09:05 2015.
