 Gaussian 09, Revision D.01,
 Gaussian 09:  ES64L-G09RevD.01 24-Apr-2013

 ------------------------------------------------------------
 #P AM1(Input,print) CIS(Singlets,NStates=15) pop(full) force
 ------------------------------------------------------------

 -----------------
 AM1-Reparam Input
 -----------------
 Symbolic Z-matrix:
 Charge =  0 Multiplicity = 1

                         Standard orientation:
 ---------------------------------------------------------------------
 Center     Atomic      Atomic             Coordinates (Angstroms)
 Number     Number       Type             X           Y           Z
 ---------------------------------------------------------------------
      1          6           0       -0.942754    0.721818   -0.008713
      2          6           0       -1.013396   -0.617276   -0.014587
      3          8           0        0.338747   -1.090956    0.005008
      4          6           0        1.173161   -0.066625    0.004058
      5          6           0        0.431732    1.096270   -0.017886
      6          1           0        0.818183    2.137040    0.053337
      7          1           0        2.240727   -0.294566    0.014654
      8          1           0       -1.820827   -1.306558    0.045322
      9          1           0       -1.840517    1.386614    0.069402
 ---------------------------------------------------------------------

 SCF Done:  E(RAM1) =   2.51641287586     A.U. after   13 cycles

 Excitation energies and oscillator strengths:

 Excited State   1:      Singlet-A      5.3130 eV  233.36 nm  f=0.3420  <S**2>=0.000
      13 -> 14         0.69490
 This state for optimization and/or second-order correction.
 Total Energy, E(CIS) =   2.71166297414
 Copying the excited state density for this state as the 1-particle RhoCI density.

 Excited State   2:      Singlet-A      6.2713 eV  197.70 nm  f=0.0029  <S**2>=0.000
      10 -> 15         0.10175
      13 -> 15         0.65810
      13 -> 17        -0.18383
      13 -> 19        -0.10477

 Excited State   3:      Singlet-A      6.8723 eV  180.41 nm  f=0.0024  <S**2>=0.000
      13 -> 16         0.64374
      13 -> 18        -0.12342
      13 -> 19         0.13376
      13 -> 20        -0.10897

 Excited State   4:      Singlet-A      6.8982 eV  179.73 nm  f=0.0019  <S**2>=0.000
       9 -> 14        -0.12290
      12 -> 14         0.68597

 Excited State   5:      Singlet-A      7.6976 eV  161.07 nm  f=0.0056  <S**2>=0.000
      10 -> 14        -0.20114
      11 -> 14         0.65817
      13 -> 17        -0.10727

 Excited State   6:      Singlet-A      7.8650 eV  157.64 nm  f=0.0002  <S**2>=0.000
      13 -> 16         0.11789
      13 -> 18         0.57762
      13 -> 20         0.14933
      13 -> 21        -0.31170

 Excited State   7:      Singlet-A      8.1403 eV  152.31 nm  f=0.0060  <S**2>=0.000
      11 -> 14         0.10969
      13 -> 15         0.15699
      13 -> 17         0.63715
      13 -> 18         0.12226

 Excited State   8:      Singlet-A      8.8220 eV  140.54 nm  f=0.0872  <S**2>=0.000
      10 -> 14         0.63926
      11 -> 14         0.19311

 Excited State   9:      Singlet-A      8.8965 eV  139.36 nm  f=0.0027  <S**2>=0.000
      13 -> 16        -0.11119
      13 -> 17        -0.11791
      13 -> 18         0.15325
      13 -> 19         0.61389
      13 -> 20        -0.16191

 Excited State  10:      Singlet-A      9.3081 eV  133.20 nm  f=0.0119  <S**2>=0.000
      13 -> 18         0.31030
      13 -> 19        -0.23588
      13 -> 20        -0.36457
      13 -> 21         0.43298

 Excited State  11:      Singlet-A      9.4135 eV  131.71 nm  f=0.0029  <S**2>=0.000
       8 -> 15         0.11062
      11 -> 16         0.16880
      11 -> 17        -0.16380
      12 -> 15         0.49697
      12 -> 16        -0.13263
      12 -> 17        -0.12935
      12 -> 18         0.26045

 Excited State  12:      Singlet-A      9.5743 eV  129.50 nm  f=0.1177  <S**2>=0.000
       9 -> 15        -0.16912
      10 -> 14         0.14325
      11 -> 15         0.36921
      11 -> 16         0.14742
      11 -> 17        -0.23759
      12 -> 15        -0.34117
      12 -> 18         0.23823

 Excited State  13:      Singlet-A      9.8284 eV  126.15 nm  f=0.0848  <S**2>=0.000
       9 -> 14        -0.21428
      10 -> 15         0.19402
      13 -> 20         0.49367
      13 -> 21         0.36174

 Excited State  14:      Singlet-A      9.9724 eV  124.33 nm  f=0.0062  <S**2>=0.000
       7 -> 15        -0.14074
      10 -> 15         0.54555
      11 -> 15         0.20628
      12 -> 16         0.18042
      13 -> 15        -0.13627
      13 -> 20        -0.11496
      13 -> 21        -0.16032

 Excited State  15:      Singlet-A     10.0076 eV  123.89 nm  f=0.0328  <S**2>=0.000
       9 -> 14         0.60286
      11 -> 16        -0.12230
      12 -> 14         0.10631
      12 -> 16        -0.22360
      13 -> 20         0.10401
      13 -> 21         0.13498

 The electronic state is 1-A.
 Alpha  occ. eigenvalues --   -1.73461  -1.15037  -0.95249  -0.80521  -0.76237
 Alpha  occ. eigenvalues --   -0.67021  -0.64233  -0.56421  -0.50357  -0.44497
 Alpha  occ. eigenvalues --   -0.43482  -0.40925  -0.29139
 Alpha virt. eigenvalues --    0.11029   0.16508   0.20041   0.24486   0.26496
 Alpha virt. eigenvalues --    0.28264   0.30616   0.31393   0.38795   0.47445
 Alpha virt. eigenvalues --    0.52919

 Mulliken charges:
               1
     1  C   -0.003914
     2  C   -1.921160
     3  O    3.242790
     4  C   -1.948482
     5  C   -0.151702
     6  H    0.132518
     7  H    0.272458
     8  H    0.257852
     9  H    0.119640
 Sum of Mulliken charges =   0.00000

 Dipole moment (field-independent basis, Debye):
    X=              3.1568    Y=             -9.7868    Z=              0.3586  Tot=             10.2896
 N-N= 1.033770378299D+02 E-N=-1.680018801694D+02  KE=-1.498778242370D+01
 Orbital energies and kinetic energies (alpha):
                                 1                 2
   1         O                -1.734606         -1.224791
   2         O                -1.150367         -0.997598
   3         O                -0.952491         -0.861493
   4         O                -0.805214         -0.611616
   5         O                -0.762368         -0.689064
   6         O                -0.670210         -0.564527
   7         O                -0.642329         -0.516831

 Normal termination of Gaussian 09 at Tue Dec 15 17:06:16 2015.
