 Gaussian 09, Revision D.01,
 Gaussian 09:  ES64L-G09RevD.01 24-Apr-2013

 -------------------------------------------------------
 #P B3LYP/3-21G CIS(Singlets,NStates=15) pop(full) force
 -------------------------------------------------------

 --------
 FuranDFT
 --------
 Symbolic Z-matrix:
 Charge =  0 Multiplicity = 1

                         Standard orientation:
 ---------------------------------------------------------------------
 Center     Atomic      Atomic             Coordinates (Angstroms)
 Number     Number       Type             X           Y           Z
 ---------------------------------------------------------------------
      1          6           0       -0.685111    0.991015    0.021160
      2          6           0       -1.135127   -0.328947   -0.015221
      3          8           0       -0.036305   -1.156871   -0.007342
      4          6           0        1.072902   -0.396633    0.016351
      5          6           0        0.773493    0.935706   -0.028227
      6          1           0        1.464876    1.811487   -0.020138
      7          1           0        2.075037   -0.919432    0.058898
      8          1           0       -2.062794   -0.716989    0.015417
      9          1           0       -1.343626    1.873056    0.040183
 ---------------------------------------------------------------------

 SCF Done:  E(RB3LYP) =  -228.741524636     A.U. after   15 cycles

 Excitation energies and oscillator strengths:

 Excited State   1:      Singlet-A      7.0295 eV  176.38 nm  f=0.0086  <S**2>=0.000
      17 -> 19         0.50447
      18 -> 19         0.13075
      18 -> 20         0.46809
 This state for optimization and/or second-order correction.
 Total Energy, E(CIS) =  -228.483195852
 Copying the excited state density for this state as the 1-particle RhoCI density.

 Excited State   2:      Singlet-A      7.2269 eV  171.56 nm  f=0.2182  <S**2>=0.000
      18 -> 19         0.67002
      18 -> 20        -0.11335

 Excited State   3:      Singlet-A      8.4946 eV  145.96 nm  f=0.0006  <S**2>=0.000
      18 -> 21         0.67126
      18 -> 22        -0.18158

 Excited State   4:      Singlet-A      8.6272 eV  143.71 nm  f=0.0045  <S**2>=0.000
      16 -> 19         0.69237

 Excited State   5:      Singlet-A      8.8657 eV  139.85 nm  f=0.0035  <S**2>=0.000
      18 -> 21         0.18959
      18 -> 22         0.66299

 Excited State   6:      Singlet-A      9.2318 eV  134.30 nm  f=0.1847  <S**2>=0.000
      17 -> 19         0.17389
      17 -> 20         0.62857
      18 -> 20        -0.17126

 Excited State   7:      Singlet-A      9.5324 eV  130.07 nm  f=0.3984  <S**2>=0.000
      17 -> 19        -0.35861
      17 -> 20         0.19507
      17 -> 21        -0.32357
      18 -> 20         0.39504
      18 -> 24         0.11415

 Excited State   8:      Singlet-A      9.6265 eV  128.79 nm  f=0.1197  <S**2>=0.000
      17 -> 19        -0.17853
      17 -> 20         0.16289
      17 -> 21         0.57915
      17 -> 22        -0.13908
      18 -> 20         0.19780
      18 -> 23        -0.11300

 Excited State   9:      Singlet-A      9.8222 eV  126.23 nm  f=0.0092  <S**2>=0.000
      15 -> 19         0.67590
      18 -> 23         0.10823
      18 -> 24        -0.12571

 Excited State  10:      Singlet-A      9.9928 eV  124.07 nm  f=0.0044  <S**2>=0.000
      14 -> 19         0.21822
      16 -> 20         0.20264
      17 -> 22         0.59737
      18 -> 23        -0.14106
      18 -> 24        -0.13371

 Excited State  11:      Singlet-A     10.0296 eV  123.62 nm  f=0.0005  <S**2>=0.000
      14 -> 19         0.27839
      16 -> 20         0.36528
      17 -> 21         0.10709
      18 -> 23         0.34136
      18 -> 24         0.37941

 Excited State  12:      Singlet-A     10.0373 eV  123.52 nm  f=0.0036  <S**2>=0.000
      14 -> 19        -0.27689
      16 -> 20        -0.30758
      17 -> 21         0.17249
      17 -> 22         0.31106
      18 -> 23         0.41405
      18 -> 24         0.14858

 Excited State  13:      Singlet-A     10.1249 eV  122.45 nm  f=0.0089  <S**2>=0.000
      14 -> 19        -0.12207
      15 -> 19         0.17804
      18 -> 23        -0.40163
      18 -> 24         0.50652

 Excited State  14:      Singlet-A     10.4723 eV  118.39 nm  f=0.0042  <S**2>=0.000
      14 -> 19         0.51332
      16 -> 20        -0.45619

 Excited State  15:      Singlet-A     10.7929 eV  114.88 nm  f=0.0087  <S**2>=0.000
      18 -> 25         0.67934
      18 -> 26         0.11244

 The electronic state is 1-A.
 Alpha  occ. eigenvalues --  -19.11622 -10.18293 -10.17285 -10.13287 -10.13126
 Alpha  occ. eigenvalues --   -1.12865  -0.79484  -0.75025  -0.59886  -0.57417
 Alpha  occ. eigenvalues --   -0.53523  -0.45593  -0.44825  -0.41276  -0.39646
 Alpha  occ. eigenvalues --   -0.35706  -0.27339  -0.23117
 Alpha virt. eigenvalues --    0.01883   0.07254   0.12660   0.13774   0.17652
 Alpha virt. eigenvalues --    0.18466   0.21289   0.22895   0.34990   0.40446
 Alpha virt. eigenvalues --    0.45844   0.69059   0.69977   0.70145   0.73788

 Mulliken charges:
               1
     1  C   -0.250115
     2  C    0.072132
     3  O   -0.490516
     4  C    0.113586
     5  C   -0.253994
     6  H    0.187016
     7  H    0.212457
     8  H    0.223558
     9  H    0.185876
 Sum of Mulliken charges =   0.00000

 Dipole moment (field-independent basis, Debye):
    X=             -0.0033    Y=              0.6754    Z=              0.0992  Tot=              0.6827
 Quadrupole moment (field-independent basis, Debye-Ang):
   XX=            -23.3894   YY=            -28.1562   ZZ=            -31.9904
   XY=             -0.1344   XZ=              0.0159   YZ=             -0.0268

 Normal termination of Gaussian 09 at Sat Nov 14 17:21:46 2015.
