 Gaussian 09, Revision D.01,
 Gaussian 09:  ES64L-G09RevD.01 24-Apr-2013

 ------------------------------------------------------------
 #P AM1(Input,print) CIS(Singlets,NStates=15) pop(full) force
 ------------------------------------------------------------

 -----------------
 AM1-Reparam Input
 -----------------
 Symbolic Z-matrix:
 Charge =  0 Multiplicity = 1

                         Standard orientation:
 ---------------------------------------------------------------------
 Center     Atomic      Atomic             Coordinates (Angstroms)
 Number     Number       Type             X           Y           Z
 ---------------------------------------------------------------------
      1          6           0       -0.854886    0.855175    0.007371
      2          6           0       -1.039381   -0.523795   -0.018260
      3          8           0        0.161980   -1.110345    0.011342
      4          6           0        1.149741   -0.200510   -0.033841
      5          6           0        0.565601    1.020617    0.019370
      6          1           0        1.073919    1.971679   -0.025861
      7          1           0        2.154652   -0.508292    0.067459
      8          1           0       -1.846721   -1.133546    0.036402
      9          1           0       -1.604135    1.643992   -0.016579
 ---------------------------------------------------------------------

 SCF Done:  E(RAM1) =  0.229071739324E-01 A.U. after   14 cycles

 Excitation energies and oscillator strengths:

 Excited State   1:      Singlet-A      4.4807 eV  276.71 nm  f=0.0901  <S**2>=0.000
      12 -> 15         0.22688
      13 -> 14         0.66192
 This state for optimization and/or second-order correction.
 Total Energy, E(CIS) =  0.187569120686
 Copying the excited state density for this state as the 1-particle RhoCI density.

 Excited State   2:      Singlet-A      4.7851 eV  259.10 nm  f=0.0004  <S**2>=0.000
      13 -> 15        -0.10596
      13 -> 16         0.68223

 Excited State   3:      Singlet-A      4.9961 eV  248.16 nm  f=0.0077  <S**2>=0.000
      12 -> 14        -0.41913
      13 -> 15         0.55271
      13 -> 16         0.11584

 Excited State   4:      Singlet-A      5.8725 eV  211.13 nm  f=0.0009  <S**2>=0.000
      12 -> 17         0.10022
      12 -> 18         0.19127
      13 -> 17         0.28458
      13 -> 18         0.45339
      13 -> 19        -0.12698
      13 -> 20         0.13310
      13 -> 21         0.12099
      13 -> 22        -0.13482
      13 -> 23        -0.21581

 Excited State   5:      Singlet-A      5.8838 eV  210.72 nm  f=0.0017  <S**2>=0.000
       7 -> 16        -0.17121
      12 -> 16         0.65747
      12 -> 22         0.11688

 Excited State   6:      Singlet-A      6.1075 eV  203.00 nm  f=0.0240  <S**2>=0.000
      12 -> 14        -0.13386
      12 -> 17        -0.16648
      12 -> 19        -0.18008
      12 -> 20         0.11249
      12 -> 22        -0.11785
      12 -> 23         0.13122
      13 -> 15        -0.11111
      13 -> 17         0.29803
      13 -> 19         0.35400
      13 -> 20        -0.19578
      13 -> 22         0.22134
      13 -> 23        -0.18147

 Excited State   7:      Singlet-A      6.1494 eV  201.62 nm  f=0.3503  <S**2>=0.000
      10 -> 16        -0.10742
      12 -> 14         0.51012
      13 -> 15         0.38623
      13 -> 19         0.11104

 Excited State   8:      Singlet-A      6.3266 eV  195.97 nm  f=0.1584  <S**2>=0.000
      12 -> 15         0.65379
      13 -> 14        -0.21122

 Excited State   9:      Singlet-A      6.6431 eV  186.64 nm  f=0.0018  <S**2>=0.000
      13 -> 17        -0.38052
      13 -> 18         0.40539
      13 -> 19         0.36817

 Excited State  10:      Singlet-A      6.9308 eV  178.89 nm  f=0.0088  <S**2>=0.000
       9 -> 14         0.13309
       9 -> 15         0.19759
      10 -> 14         0.20529
      10 -> 15        -0.17225
      11 -> 14         0.57872

 Excited State  11:      Singlet-A      7.0494 eV  175.88 nm  f=0.0009  <S**2>=0.000
      12 -> 17        -0.34430
      12 -> 18         0.40378
      12 -> 19         0.21874
      12 -> 21         0.26973
      12 -> 23         0.18187
      13 -> 18        -0.12315
      13 -> 22        -0.12845

 Excited State  12:      Singlet-A      7.3748 eV  168.12 nm  f=0.0002  <S**2>=0.000
       9 -> 14         0.36003
      10 -> 14        -0.39811
      11 -> 15         0.41142

 Excited State  13:      Singlet-A      7.4243 eV  167.00 nm  f=0.0008  <S**2>=0.000
      10 -> 15        -0.14270
      12 -> 17         0.28965
      12 -> 18         0.13604
      12 -> 19         0.27510
      12 -> 21        -0.16772
      13 -> 17         0.17966
      13 -> 19         0.34599
      13 -> 20         0.18673

 Excited State  14:      Singlet-A      7.5917 eV  163.32 nm  f=0.0004  <S**2>=0.000
      10 -> 15        -0.12849
      12 -> 17         0.16664
      12 -> 18         0.31759
      12 -> 19        -0.27297
      12 -> 22        -0.23097
      13 -> 17        -0.25214
      13 -> 18        -0.18984
      13 -> 21         0.14894
      13 -> 23        -0.10899
      13 -> 24        -0.17618

 Excited State  15:      Singlet-A      7.7285 eV  160.42 nm  f=0.0011  <S**2>=0.000
      12 -> 17         0.13785
      12 -> 18         0.11311
      12 -> 19         0.11656
      12 -> 21         0.15635
      12 -> 23         0.16092
      13 -> 19        -0.12037
      13 -> 20         0.16365
      13 -> 21        -0.16865
      13 -> 22         0.53949

 The electronic state is 1-A.
 Alpha  occ. eigenvalues --   -1.58502  -1.22970  -1.11365  -0.83068  -0.81725
 Alpha  occ. eigenvalues --   -0.69287  -0.61269  -0.58005  -0.50850  -0.50024
 Alpha  occ. eigenvalues --   -0.49488  -0.39127  -0.34516
 Alpha virt. eigenvalues --    0.03101   0.06174   0.09313   0.14486   0.15099
 Alpha virt. eigenvalues --    0.15811   0.17994   0.18393   0.19487   0.20620
 Alpha virt. eigenvalues --    0.22947

 Mulliken charges:
               1
     1  C   -0.212133
     2  C   -0.092216
     3  O   -0.072787
     4  C   -0.099451
     5  C   -0.215318
     6  H    0.151964
     7  H    0.192446
     8  H    0.183693
     9  H    0.163802
 Sum of Mulliken charges =   0.00000

 Dipole moment (field-independent basis, Debye):
    X=             -0.0025    Y=              0.2781    Z=              0.0843  Tot=              0.2906
 N-N= 1.038600331882D+02 E-N=-1.716567539822D+02  KE=-1.661361111096D+01
 Orbital energies and kinetic energies (alpha):
                                 1                 2
   1         O                -1.585016         -1.323476
   2         O                -1.229698         -1.048465
   3         O                -1.113650         -0.969839
   4         O                -0.830678         -0.714686
   5         O                -0.817253         -0.722640
   6         O                -0.692865         -0.605790
   7         O                -0.612692         -0.493178

 Normal termination of Gaussian 09 at Tue Dec 15 16:23:05 2015.
