 Gaussian 09, Revision D.01,
 Gaussian 09:  ES64L-G09RevD.01 24-Apr-2013

 ------------------------------------------------------------
 #P AM1(Input,print) CIS(Singlets,NStates=15) pop(full) force
 ------------------------------------------------------------

 -----------------
 AM1-Reparam Input
 -----------------
 Symbolic Z-matrix:
 Charge =  0 Multiplicity = 1

                         Standard orientation:
 ---------------------------------------------------------------------
 Center     Atomic      Atomic             Coordinates (Angstroms)
 Number     Number       Type             X           Y           Z
 ---------------------------------------------------------------------
      1          6           0       -0.975310    0.715668   -0.009273
      2          6           0       -0.928919   -0.602198   -0.018064
      3          8           0        0.318882   -1.148367    0.018147
      4          6           0        1.166129   -0.012823   -0.013168
      5          6           0        0.405930    1.103118    0.015270
      6          1           0        0.802026    2.164230   -0.016746
      7          1           0        2.195371   -0.198491   -0.022500
      8          1           0       -1.727105   -1.367089   -0.003242
      9          1           0       -1.828327    1.365698    0.048715
 ---------------------------------------------------------------------

 SCF Done:  E(RAM1) =  -5.61185633239     A.U. after   15 cycles

 Excitation energies and oscillator strengths:

 Excited State   1:      Singlet-A      6.0743 eV  204.11 nm  f=0.0221  <S**2>=0.000
      13 -> 14         0.27292
      13 -> 16         0.64234
 This state for optimization and/or second-order correction.
 Total Energy, E(CIS) =  -5.38862882770
 Copying the excited state density for this state as the 1-particle RhoCI density.

 Excited State   2:      Singlet-A      6.2895 eV  197.13 nm  f=0.1930  <S**2>=0.000
      11 -> 15         0.12365
      13 -> 14         0.62870
      13 -> 16        -0.27770

 Excited State   3:      Singlet-A      6.4273 eV  192.90 nm  f=0.2031  <S**2>=0.000
      11 -> 14        -0.14001
      13 -> 15         0.66953

 Excited State   4:      Singlet-A      7.5374 eV  164.49 nm  f=0.0004  <S**2>=0.000
      12 -> 14        -0.21512
      12 -> 15         0.65823

 Excited State   5:      Singlet-A      8.0604 eV  153.82 nm  f=0.0001  <S**2>=0.000
      13 -> 17         0.67817
      13 -> 22         0.11483

 Excited State   6:      Singlet-A      8.4006 eV  147.59 nm  f=0.0033  <S**2>=0.000
      10 -> 14        -0.13797
      10 -> 15         0.56477
      11 -> 15         0.34130
      12 -> 14         0.15885

 Excited State   7:      Singlet-A      8.9451 eV  138.61 nm  f=0.0077  <S**2>=0.000
      10 -> 14        -0.12769
      10 -> 16        -0.33959
      11 -> 14         0.19113
      11 -> 16         0.53722
      13 -> 19        -0.13578

 Excited State   8:      Singlet-A      8.9795 eV  138.08 nm  f=0.0021  <S**2>=0.000
       9 -> 15        -0.11046
      10 -> 15        -0.10935
      12 -> 14         0.63896
      12 -> 15         0.20845

 Excited State   9:      Singlet-A      9.1743 eV  135.14 nm  f=0.1061  <S**2>=0.000
       9 -> 16        -0.15608
      10 -> 14        -0.28093
      11 -> 14         0.41228
      11 -> 16        -0.22695
      12 -> 16         0.32209
      13 -> 15         0.12526

 Excited State  10:      Singlet-A      9.3880 eV  132.07 nm  f=0.0501  <S**2>=0.000
      10 -> 14         0.11887
      10 -> 15         0.18198
      11 -> 14        -0.20201
      11 -> 15        -0.29458
      12 -> 16         0.52889

 Excited State  11:      Singlet-A      9.6790 eV  128.10 nm  f=0.0045  <S**2>=0.000
      11 -> 17         0.11779
      13 -> 18         0.63219
      13 -> 20        -0.19961

 Excited State  12:      Singlet-A      9.8078 eV  126.41 nm  f=0.0270  <S**2>=0.000
      10 -> 14        -0.32045
      11 -> 14        -0.10882
      11 -> 15        -0.20658
      12 -> 16        -0.10560
      13 -> 19         0.44680
      13 -> 20         0.10314
      13 -> 21        -0.20969
      13 -> 22        -0.16489

 Excited State  13:      Singlet-A      9.8414 eV  125.98 nm  f=0.1067  <S**2>=0.000
       9 -> 14         0.10048
      10 -> 14         0.33182
      10 -> 15        -0.10384
      10 -> 16        -0.11506
      11 -> 15         0.31736
      12 -> 16         0.17435
      13 -> 19         0.33341
      13 -> 21        -0.15998
      13 -> 22        -0.12951

 Excited State  14:      Singlet-A      9.8901 eV  125.36 nm  f=0.1316  <S**2>=0.000
       9 -> 14         0.11837
      10 -> 14         0.27011
      10 -> 15         0.27030
      10 -> 16         0.12763
      11 -> 14         0.40535
      11 -> 15        -0.22840
      12 -> 16        -0.17453
      13 -> 19         0.10219

 Excited State  15:      Singlet-A     10.1301 eV  122.39 nm  f=0.0622  <S**2>=0.000
       9 -> 16         0.10604
      10 -> 15        -0.13569
      10 -> 16         0.47990
      10 -> 20        -0.11068
      11 -> 15         0.16955
      11 -> 16         0.26568
      12 -> 17        -0.15698
      12 -> 20         0.15877

 The electronic state is 1-A.
 Alpha  occ. eigenvalues --   -4.03935  -1.19895  -0.91052  -0.87914  -0.84818
 Alpha  occ. eigenvalues --   -0.80978  -0.73571  -0.60182  -0.58461  -0.49782
 Alpha  occ. eigenvalues --   -0.49623  -0.47022  -0.36070
 Alpha virt. eigenvalues --    0.09256   0.10091   0.11291   0.18281   0.23819
 Alpha virt. eigenvalues --    0.25667   0.27621   0.29648   0.31954   0.35263
 Alpha virt. eigenvalues --    0.35977

 Mulliken charges:
               1
     1  C   -0.154859
     2  C   -1.389959
     3  O    2.436206
     4  C   -1.397135
     5  C   -0.116093
     6  H    0.117774
     7  H    0.187183
     8  H    0.199772
     9  H    0.117110
 Sum of Mulliken charges =   0.00000

 Dipole moment (field-independent basis, Debye):
    X=              1.9949    Y=             -8.8375    Z=              0.3756  Tot=              9.0676
 N-N= 1.046540572104D+02 E-N=-1.722551235932D+02  KE=-2.341064900043D+01
 Orbital energies and kinetic energies (alpha):
                                 1                 2
   1         O                -4.039348         -3.401038
   2         O                -1.198953         -1.158029
   3         O                -0.910519         -0.859753
   4         O                -0.879138         -0.901400
   5         O                -0.848182         -0.827510
   6         O                -0.809778         -0.772470
   7         O                -0.735710         -0.732373

 Normal termination of Gaussian 09 at Fri Dec 11 13:41:19 2015.
