 Gaussian 09, Revision D.01,
 Gaussian 09:  ES64L-G09RevD.01 24-Apr-2013

 ------------------------------------------------------------
 #P AM1(Input,print) CIS(Singlets,NStates=15) pop(full) force
 ------------------------------------------------------------

 -----------------
 AM1-Reparam Input
 -----------------
 Symbolic Z-matrix:
 Charge =  0 Multiplicity = 1

                         Standard orientation:
 ---------------------------------------------------------------------
 Center     Atomic      Atomic             Coordinates (Angstroms)
 Number     Number       Type             X           Y           Z
 ---------------------------------------------------------------------
      1          6           0       -0.409688    1.107866    0.020502
      2          6           0       -1.136864   -0.016702   -0.004374
      3          8           0       -0.361389   -1.094562    0.000825
      4          6           0        0.901189   -0.638383    0.008814
      5          6           0        1.003535    0.698559   -0.022100
      6          1           0        1.949464    1.271398    0.049859
      7          1           0        1.671334   -1.509186   -0.021189
      8          1           0       -2.193206   -0.109073   -0.007104
      9          1           0       -0.685512    2.195320   -0.045213
 ---------------------------------------------------------------------

 SCF Done:  E(RAM1) =   1.09651755971     A.U. after   14 cycles

 Excitation energies and oscillator strengths:

 Excited State   1:      Singlet-A      5.4294 eV  228.36 nm  f=0.2271  <S**2>=0.000
      12 -> 17         0.12774
      13 -> 14         0.68415
 This state for optimization and/or second-order correction.
 Total Energy, E(CIS) =   1.29604390173
 Copying the excited state density for this state as the 1-particle RhoCI density.

 Excited State   2:      Singlet-A      6.4225 eV  193.05 nm  f=0.0029  <S**2>=0.000
      13 -> 15         0.64030
      13 -> 16         0.19965
      13 -> 18        -0.14320
      13 -> 19        -0.10928

 Excited State   3:      Singlet-A      6.6182 eV  187.34 nm  f=0.0016  <S**2>=0.000
      13 -> 15        -0.18466
      13 -> 16         0.64023
      13 -> 18         0.11721
      13 -> 21        -0.14910

 Excited State   4:      Singlet-A      7.0472 eV  175.93 nm  f=0.0039  <S**2>=0.000
      11 -> 14        -0.13550
      12 -> 14        -0.43719
      13 -> 17         0.52287

 Excited State   5:      Singlet-A      7.0872 eV  174.94 nm  f=0.0006  <S**2>=0.000
       9 -> 14         0.12259
      11 -> 14         0.67655
      13 -> 17         0.10337

 Excited State   6:      Singlet-A      7.9435 eV  156.08 nm  f=0.0003  <S**2>=0.000
      10 -> 14         0.13105
      12 -> 15        -0.12661
      13 -> 15         0.13322
      13 -> 18         0.60791
      13 -> 19        -0.16145
      13 -> 22         0.16375

 Excited State   7:      Singlet-A      8.0162 eV  154.67 nm  f=0.0067  <S**2>=0.000
       9 -> 14         0.11436
      10 -> 14         0.65625
      13 -> 18        -0.11278

 Excited State   8:      Singlet-A      8.1303 eV  152.50 nm  f=0.2860  <S**2>=0.000
      12 -> 14         0.52501
      13 -> 17         0.41982

 Excited State   9:      Singlet-A      8.6499 eV  143.34 nm  f=0.0010  <S**2>=0.000
      12 -> 15         0.57172
      12 -> 16         0.15224
      13 -> 19        -0.24537
      13 -> 20         0.20753
      13 -> 21         0.10527

 Excited State  10:      Singlet-A      8.7188 eV  142.20 nm  f=0.0002  <S**2>=0.000
      12 -> 15        -0.14254
      12 -> 16        -0.27955
      13 -> 20         0.59155
      13 -> 23         0.14627

 Excited State  11:      Singlet-A      8.8124 eV  140.69 nm  f=0.0012  <S**2>=0.000
      12 -> 16         0.48649
      13 -> 18         0.13057
      13 -> 19         0.38691
      13 -> 20         0.23425

 Excited State  12:      Singlet-A      8.9260 eV  138.90 nm  f=0.0475  <S**2>=0.000
       9 -> 16         0.15014
       9 -> 17         0.15953
      10 -> 17        -0.10923
      11 -> 15        -0.17761
      11 -> 17        -0.34625
      11 -> 18         0.15662
      12 -> 17         0.41723

 Excited State  13:      Singlet-A      8.9736 eV  138.16 nm  f=0.0362  <S**2>=0.000
       9 -> 17        -0.23776
      10 -> 14        -0.10085
      10 -> 17         0.13610
      11 -> 15        -0.12114
      11 -> 16         0.15623
      11 -> 17         0.44848
      11 -> 18         0.12500
      12 -> 17         0.30163

 Excited State  14:      Singlet-A      9.1888 eV  134.93 nm  f=0.0001  <S**2>=0.000
       9 -> 14         0.20138
      12 -> 15        -0.28887
      12 -> 16         0.26361
      13 -> 15        -0.13819
      13 -> 18        -0.10019
      13 -> 19        -0.34478
      13 -> 21         0.37456

 Excited State  15:      Singlet-A      9.3199 eV  133.03 nm  f=0.0016  <S**2>=0.000
       9 -> 14         0.62337
      10 -> 14        -0.10104
      10 -> 17        -0.10456
      11 -> 14        -0.12649
      12 -> 16        -0.10779
      13 -> 19         0.17450

 The electronic state is 1-A.
 Alpha  occ. eigenvalues --   -1.84341  -1.18779  -0.98819  -0.87592  -0.79420
 Alpha  occ. eigenvalues --   -0.73230  -0.72357  -0.59670  -0.54960  -0.52057
 Alpha  occ. eigenvalues --   -0.49053  -0.47439  -0.37484
 Alpha virt. eigenvalues --    0.03496   0.09527   0.10879   0.11028   0.17798
 Alpha virt. eigenvalues --    0.19056   0.20877   0.21716   0.27113   0.27295
 Alpha virt. eigenvalues --    0.28587

 Mulliken charges:
               1
     1  C   -0.154501
     2  C   -1.255035
     3  O    2.128908
     4  C   -1.249847
     5  C   -0.117590
     6  H    0.110167
     7  H    0.209487
     8  H    0.212154
     9  H    0.116258
 Sum of Mulliken charges =   0.00000

 Dipole moment (field-independent basis, Debye):
    X=             -2.0234    Y=             -6.8857    Z=             -0.0589  Tot=              7.1770
 N-N= 1.044462773614D+02 E-N=-1.714240997156D+02  KE=-1.497138658159D+01
 Orbital energies and kinetic energies (alpha):
                                 1                 2
   1         O                -1.843409         -1.265391
   2         O                -1.187794         -0.964513
   3         O                -0.988195         -0.804544
   4         O                -0.875921         -0.631281
   5         O                -0.794198         -0.673263
   6         O                -0.732298         -0.577723
   7         O                -0.723572         -0.517799

 Normal termination of Gaussian 09 at Tue Dec 15 17:05:44 2015.
