 Gaussian 09, Revision D.01,
 Gaussian 09:  ES64L-G09RevD.01 24-Apr-2013

 ------------------------------------------------------------
 #P AM1(Input,print) CIS(Singlets,NStates=15) pop(full) force
 ------------------------------------------------------------

 -----------------
 AM1-Reparam Input
 -----------------
 Symbolic Z-matrix:
 Charge =  0 Multiplicity = 1

                         Standard orientation:
 ---------------------------------------------------------------------
 Center     Atomic      Atomic             Coordinates (Angstroms)
 Number     Number       Type             X           Y           Z
 ---------------------------------------------------------------------
      1          6           0       -0.619851    1.030034    0.007988
      2          6           0       -1.102430   -0.219413   -0.030448
      3          8           0       -0.134311   -1.166405    0.029321
      4          6           0        1.027502   -0.459811   -0.018884
      5          6           0        0.840039    0.864140    0.005937
      6          1           0        1.535831    1.716008   -0.021504
      7          1           0        1.951865   -1.049190   -0.017593
      8          1           0       -2.137643   -0.600521   -0.033458
      9          1           0       -1.147130    1.975245    0.050430
 ---------------------------------------------------------------------

 SCF Done:  E(RAM1) =   2.12209330389     A.U. after   13 cycles

 Excitation energies and oscillator strengths:

 Excited State   1:      Singlet-A      5.3324 eV  232.51 nm  f=0.3634  <S**2>=0.000
      13 -> 14         0.69725
 This state for optimization and/or second-order correction.
 Total Energy, E(CIS) =   2.31805641582
 Copying the excited state density for this state as the 1-particle RhoCI density.

 Excited State   2:      Singlet-A      6.1920 eV  200.23 nm  f=0.0002  <S**2>=0.000
      13 -> 15         0.65708
      13 -> 16        -0.15575
      13 -> 19        -0.12511

 Excited State   3:      Singlet-A      6.2902 eV  197.11 nm  f=0.0017  <S**2>=0.000
      13 -> 15         0.15944
      13 -> 16         0.65911
      13 -> 17        -0.10753

 Excited State   4:      Singlet-A      6.9873 eV  177.44 nm  f=0.0002  <S**2>=0.000
      12 -> 14         0.70157

 Excited State   5:      Singlet-A      7.8660 eV  157.62 nm  f=0.0001  <S**2>=0.000
      13 -> 15        -0.10211
      13 -> 17        -0.20298
      13 -> 18         0.54773
      13 -> 19        -0.20700
      13 -> 22         0.29875

 Excited State   6:      Singlet-A      8.1642 eV  151.86 nm  f=0.0109  <S**2>=0.000
      10 -> 14        -0.45070
      13 -> 17         0.48947
      13 -> 18         0.17104

 Excited State   7:      Singlet-A      8.3723 eV  148.09 nm  f=0.0011  <S**2>=0.000
      10 -> 14         0.52196
      13 -> 17         0.42890
      13 -> 18         0.12929

 Excited State   8:      Singlet-A      8.9196 eV  139.00 nm  f=0.0536  <S**2>=0.000
      10 -> 14         0.11724
      11 -> 14         0.59606
      12 -> 16         0.11019
      13 -> 19        -0.23791
      13 -> 21         0.14894

 Excited State   9:      Singlet-A      8.9220 eV  138.96 nm  f=0.0085  <S**2>=0.000
      11 -> 14         0.23380
      13 -> 18         0.24391
      13 -> 19         0.59491

 Excited State  10:      Singlet-A      9.4103 eV  131.75 nm  f=0.1458  <S**2>=0.000
       8 -> 15         0.12048
       8 -> 16         0.12940
      10 -> 17         0.13859
      12 -> 15         0.48592
      12 -> 16        -0.31933
      12 -> 18         0.21794
      12 -> 19        -0.10004
      13 -> 22         0.10189

 Excited State  11:      Singlet-A      9.4683 eV  130.95 nm  f=0.0049  <S**2>=0.000
      13 -> 18        -0.25951
      13 -> 19         0.12130
      13 -> 22         0.62413

 Excited State  12:      Singlet-A      9.6370 eV  128.65 nm  f=0.1044  <S**2>=0.000
      11 -> 15        -0.11836
      13 -> 20         0.66416
      13 -> 21         0.12648

 Excited State  13:      Singlet-A      9.9162 eV  125.03 nm  f=0.0817  <S**2>=0.000
      11 -> 14        -0.17737
      11 -> 15        -0.14440
      12 -> 15         0.34550
      12 -> 16         0.51252

 Excited State  14:      Singlet-A     10.1332 eV  122.35 nm  f=0.0092  <S**2>=0.000
       7 -> 15         0.11674
      11 -> 15         0.49061
      11 -> 16         0.39955
      12 -> 16         0.11523
      13 -> 15         0.12238

 Excited State  15:      Singlet-A     10.2352 eV  121.14 nm  f=0.0469  <S**2>=0.000
      10 -> 15         0.13319
      10 -> 16         0.19533
      10 -> 17        -0.16783
      11 -> 15        -0.22029
      11 -> 16         0.38019
      12 -> 15         0.13045
      12 -> 16        -0.11532
      12 -> 18        -0.20080
      13 -> 16        -0.10213
      13 -> 21        -0.29880

 The electronic state is 1-A.
 Alpha  occ. eigenvalues --   -1.93745  -1.18603  -0.92591  -0.80190  -0.78044
 Alpha  occ. eigenvalues --   -0.69066  -0.65797  -0.53668  -0.53562  -0.44727
 Alpha  occ. eigenvalues --   -0.44082  -0.40530  -0.27724
 Alpha virt. eigenvalues --    0.12085   0.17587   0.17924   0.26949   0.27728
 Alpha virt. eigenvalues --    0.30394   0.31402   0.32455   0.33154   0.41026
 Alpha virt. eigenvalues --    0.44592

 Mulliken charges:
               1
     1  C   -0.157561
     2  C   -1.865511
     3  O    3.194572
     4  C   -1.865345
     5  C   -0.146133
     6  H    0.153662
     7  H    0.267277
     8  H    0.265864
     9  H    0.153174
 Sum of Mulliken charges =   0.00000

 Dipole moment (field-independent basis, Debye):
    X=             -1.2797    Y=            -11.0479    Z=              0.7268  Tot=             11.1455
 N-N= 1.040312432835D+02 E-N=-1.692620585754D+02  KE=-1.530963604532D+01
 Orbital energies and kinetic energies (alpha):
                                 1                 2
   1         O                -1.937452         -1.364415
   2         O                -1.186034         -1.051836
   3         O                -0.925914         -0.880427
   4         O                -0.801903         -0.560008
   5         O                -0.780441         -0.686479
   6         O                -0.690656         -0.583904
   7         O                -0.657970         -0.529110

 Normal termination of Gaussian 09 at Tue Dec 15 17:08:32 2015.
