 Gaussian 09, Revision D.01,
 Gaussian 09:  ES64L-G09RevD.01 24-Apr-2013

 ------------------------------------------------------------
 #P AM1(Input,print) CIS(Singlets,NStates=15) pop(full) force
 ------------------------------------------------------------

 -----------------
 AM1-Reparam Input
 -----------------
 Symbolic Z-matrix:
 Charge =  0 Multiplicity = 1

                         Standard orientation:
 ---------------------------------------------------------------------
 Center     Atomic      Atomic             Coordinates (Angstroms)
 Number     Number       Type             X           Y           Z
 ---------------------------------------------------------------------
      1          6           0       -0.255349    1.154326   -0.018917
      2          6           0       -1.171603    0.043826    0.001751
      3          8           0       -0.444608   -1.028435    0.007647
      4          6           0        0.888982   -0.700744   -0.033743
      5          6           0        0.990899    0.587051    0.036535
      6          1           0        1.995673    1.179372   -0.013098
      7          1           0        1.550679   -1.601472    0.026153
      8          1           0       -2.157597    0.016672    0.021472
      9          1           0       -0.549466    2.126148   -0.009459
 ---------------------------------------------------------------------

 SCF Done:  E(RAM1) =   1.75327101844     A.U. after   14 cycles

 Excitation energies and oscillator strengths:

 Excited State   1:      Singlet-A      5.7344 eV  216.21 nm  f=0.3353  <S**2>=0.000
      13 -> 14         0.68925
 This state for optimization and/or second-order correction.
 Total Energy, E(CIS) =   1.96400613683
 Copying the excited state density for this state as the 1-particle RhoCI density.

 Excited State   2:      Singlet-A      7.1249 eV  174.02 nm  f=0.0019  <S**2>=0.000
      12 -> 14         0.69591

 Excited State   3:      Singlet-A      7.3271 eV  169.21 nm  f=0.0081  <S**2>=0.000
      13 -> 15         0.36344
      13 -> 16         0.56974
      13 -> 17        -0.10382

 Excited State   4:      Singlet-A      7.5194 eV  164.89 nm  f=0.0003  <S**2>=0.000
      10 -> 15         0.12596
      13 -> 15         0.56730
      13 -> 16        -0.36179
      13 -> 19        -0.14985

 Excited State   5:      Singlet-A      7.9481 eV  155.99 nm  f=0.0059  <S**2>=0.000
      11 -> 14         0.69618

 Excited State   6:      Singlet-A      9.1567 eV  135.40 nm  f=0.0013  <S**2>=0.000
      13 -> 17         0.46081
      13 -> 18         0.43193
      13 -> 19        -0.16221
      13 -> 21         0.24010

 Excited State   7:      Singlet-A      9.4413 eV  131.32 nm  f=0.0088  <S**2>=0.000
      10 -> 14         0.53303
      11 -> 15         0.16728
      12 -> 15         0.13739
      12 -> 16        -0.20992
      12 -> 17         0.22366

 Excited State   8:      Singlet-A      9.4711 eV  130.91 nm  f=0.0083  <S**2>=0.000
      13 -> 15         0.10901
      13 -> 17         0.47845
      13 -> 18        -0.31589
      13 -> 19         0.34310
      13 -> 21        -0.11626

 Excited State   9:      Singlet-A      9.9935 eV  124.07 nm  f=0.2426  <S**2>=0.000
       9 -> 16         0.11272
      10 -> 14         0.33048
      11 -> 15        -0.18721
      11 -> 16        -0.10135
      11 -> 18        -0.17368
      11 -> 19         0.10084
      12 -> 15         0.27467
      12 -> 16         0.32045
      12 -> 17        -0.21978
      13 -> 14        -0.10324

 Excited State  10:      Singlet-A     10.0753 eV  123.06 nm  f=0.1531  <S**2>=0.000
      10 -> 14        -0.27063
      12 -> 15         0.60448
      12 -> 16        -0.15043

 Excited State  11:      Singlet-A     10.1575 eV  122.06 nm  f=0.0076  <S**2>=0.000
      10 -> 16         0.18069
      13 -> 16        -0.11665
      13 -> 18         0.37844
      13 -> 19         0.50112
      13 -> 20        -0.12331

 Excited State  12:      Singlet-A     10.4075 eV  119.13 nm  f=0.0946  <S**2>=0.000
      11 -> 16         0.57211
      11 -> 18         0.10526
      11 -> 19         0.12835
      12 -> 16         0.30882

 Excited State  13:      Singlet-A     10.7366 eV  115.48 nm  f=0.0505  <S**2>=0.000
       8 -> 16         0.11304
       9 -> 16         0.14732
      10 -> 14        -0.11317
      11 -> 16        -0.13400
      11 -> 17        -0.10683
      11 -> 18        -0.14483
      12 -> 16         0.31384
      12 -> 17         0.40020
      12 -> 18         0.21389
      12 -> 19         0.19041

 Excited State  14:      Singlet-A     10.9705 eV  113.02 nm  f=0.0273  <S**2>=0.000
       9 -> 14        -0.16018
      10 -> 16        -0.15930
      13 -> 17        -0.11912
      13 -> 18        -0.16804
      13 -> 19         0.14006
      13 -> 20        -0.33589
      13 -> 21         0.50461

 Excited State  15:      Singlet-A     11.0808 eV  111.89 nm  f=0.0665  <S**2>=0.000
       9 -> 14        -0.10073
      10 -> 16         0.15614
      13 -> 19         0.14523
      13 -> 20         0.55686
      13 -> 21         0.33607

 The electronic state is 1-A.
 Alpha  occ. eigenvalues --   -1.93062  -1.19637  -0.93915  -0.83141  -0.79241
 Alpha  occ. eigenvalues --   -0.70531  -0.69416  -0.58669  -0.55717  -0.48104
 Alpha  occ. eigenvalues --   -0.45168  -0.42244  -0.32360
 Alpha virt. eigenvalues --    0.10607   0.17879   0.18987   0.25481   0.28173
 Alpha virt. eigenvalues --    0.29166   0.32620   0.34989   0.35609   0.43603
 Alpha virt. eigenvalues --    0.48417

 Mulliken charges:
               1
     1  C   -0.240140
     2  C   -2.085545
     3  O    3.307891
     4  C   -1.997905
     5  C   -0.082535
     6  H    0.211058
     7  H    0.328102
     8  H    0.341020
     9  H    0.218054
 Sum of Mulliken charges =   0.00000

 Dipole moment (field-independent basis, Debye):
    X=             -3.1658    Y=             -9.3305    Z=              0.4944  Tot=              9.8654
 N-N= 1.046643161697D+02 E-N=-1.704214422008D+02  KE=-1.557652865475D+01
 Orbital energies and kinetic energies (alpha):
                                 1                 2
   1         O                -1.930620         -1.407170
   2         O                -1.196373         -1.056278
   3         O                -0.939145         -0.884377
   4         O                -0.831408         -0.581228
   5         O                -0.792415         -0.699135
   6         O                -0.705311         -0.586896
   7         O                -0.694163         -0.552173

 Normal termination of Gaussian 09 at Tue Dec 15 17:09:40 2015.
