 Gaussian 09, Revision D.01,
 Gaussian 09:  ES64L-G09RevD.01 24-Apr-2013

 ------------------------------------------------------------
 #P AM1(Input,print) CIS(Singlets,NStates=15) pop(full) force
 ------------------------------------------------------------

 -----------------
 AM1-Reparam Input
 -----------------
 Symbolic Z-matrix:
 Charge =  0 Multiplicity = 1

                         Standard orientation:
 ---------------------------------------------------------------------
 Center     Atomic      Atomic             Coordinates (Angstroms)
 Number     Number       Type             X           Y           Z
 ---------------------------------------------------------------------
      1          6           0        0.569653    1.043992    0.004934
      2          6           0        1.183941   -0.220889   -0.006324
      3          8           0        0.135734   -1.131821   -0.002770
      4          6           0       -1.038320   -0.454336    0.013365
      5          6           0       -0.867145    0.820923   -0.009065
      6          1           0       -1.586914    1.554453   -0.018553
      7          1           0       -1.864804   -1.070508   -0.002558
      8          1           0        2.119918   -0.536569    0.003201
      9          1           0        1.157157    1.969053    0.022617
 ---------------------------------------------------------------------

 SCF Done:  E(RAM1) =   2.63304022582     A.U. after   13 cycles

 Excitation energies and oscillator strengths:

 Excited State   1:      Singlet-A      4.9341 eV  251.28 nm  f=0.3601  <S**2>=0.000
      13 -> 14         0.69895
 This state for optimization and/or second-order correction.
 Total Energy, E(CIS) =   2.81436372792
 Copying the excited state density for this state as the 1-particle RhoCI density.

 Excited State   2:      Singlet-A      6.0947 eV  203.43 nm  f=0.0006  <S**2>=0.000
      13 -> 15         0.65891
      13 -> 16        -0.14622
      13 -> 17         0.12501
      13 -> 19        -0.10287

 Excited State   3:      Singlet-A      6.5059 eV  190.57 nm  f=0.0006  <S**2>=0.000
      12 -> 14         0.63494
      13 -> 16        -0.26804

 Excited State   4:      Singlet-A      6.5617 eV  188.95 nm  f=0.0043  <S**2>=0.000
      12 -> 14         0.28622
      13 -> 15         0.13508
      13 -> 16         0.60599

 Excited State   5:      Singlet-A      7.3546 eV  168.58 nm  f=0.0049  <S**2>=0.000
      11 -> 14         0.69635

 Excited State   6:      Singlet-A      7.7243 eV  160.51 nm  f=0.0004  <S**2>=0.000
      13 -> 16         0.10645
      13 -> 17         0.67191
      13 -> 21         0.11197

 Excited State   7:      Singlet-A      8.4372 eV  146.95 nm  f=0.1305  <S**2>=0.000
      10 -> 14         0.69641

 Excited State   8:      Singlet-A      9.3463 eV  132.66 nm  f=0.0100  <S**2>=0.000
      10 -> 15         0.22885
      10 -> 16        -0.11481
      12 -> 15         0.12382
      13 -> 18         0.61116
      13 -> 19         0.13309

 Excited State   9:      Singlet-A      9.3592 eV  132.47 nm  f=0.0426  <S**2>=0.000
       9 -> 15        -0.10984
      11 -> 16        -0.20520
      11 -> 18         0.14492
      12 -> 15         0.47362
      12 -> 16        -0.18145
      12 -> 17         0.31254
      13 -> 18        -0.13034

 Excited State  10:      Singlet-A      9.6547 eV  128.42 nm  f=0.0011  <S**2>=0.000
       7 -> 16         0.11021
      10 -> 16         0.38180
      13 -> 19         0.55611

 Excited State  11:      Singlet-A      9.7108 eV  127.68 nm  f=0.2203  <S**2>=0.000
      11 -> 15         0.37922
      11 -> 16         0.23533
      11 -> 18        -0.16231
      12 -> 15         0.39187
      12 -> 17        -0.27154

 Excited State  12:      Singlet-A      9.9606 eV  124.47 nm  f=0.1023  <S**2>=0.000
      11 -> 15         0.20345
      11 -> 16        -0.35708
      11 -> 19        -0.12422
      12 -> 16         0.52003

 Excited State  13:      Singlet-A     10.3091 eV  120.27 nm  f=0.0006  <S**2>=0.000
       7 -> 15        -0.12707
       9 -> 14         0.42258
      10 -> 15         0.48398
      10 -> 16         0.11572
      13 -> 15        -0.11430
      13 -> 18        -0.12961

 Excited State  14:      Singlet-A     10.3992 eV  119.22 nm  f=0.0014  <S**2>=0.000
       9 -> 14         0.51929
      10 -> 15        -0.38918
      13 -> 18         0.19415

 Excited State  15:      Singlet-A     10.4973 eV  118.11 nm  f=0.0044  <S**2>=0.000
       8 -> 15         0.18455
       9 -> 15         0.23144
       9 -> 16         0.10059
      11 -> 15         0.36598
      11 -> 17        -0.16209
      11 -> 19        -0.13778
      12 -> 15        -0.15028
      12 -> 16        -0.28254
      12 -> 17         0.23162

 The electronic state is 1-A.
 Alpha  occ. eigenvalues --   -1.85205  -1.12937  -0.90359  -0.80404  -0.75667
 Alpha  occ. eigenvalues --   -0.67766  -0.63828  -0.57410  -0.55275  -0.45607
 Alpha  occ. eigenvalues --   -0.45394  -0.43140  -0.30060
 Alpha virt. eigenvalues --    0.07834   0.16089   0.18419   0.24814   0.28302
 Alpha virt. eigenvalues --    0.29908   0.35500   0.39446   0.47286   0.54609
 Alpha virt. eigenvalues --    0.59181

 Mulliken charges:
               1
     1  C   -0.195854
     2  C   -2.002596
     3  O    3.443854
     4  C   -1.970966
     5  C   -0.191895
     6  H    0.193233
     7  H    0.268552
     8  H    0.255968
     9  H    0.199704
 Sum of Mulliken charges =   0.00000

 Dipole moment (field-independent basis, Debye):
    X=              0.5867    Y=            -11.1604    Z=             -0.0923  Tot=             11.1762
 N-N= 1.042398053062D+02 E-N=-1.697460508986D+02  KE=-1.440640071235D+01
 Orbital energies and kinetic energies (alpha):
                                 1                 2
   1         O                -1.852047         -1.244907
   2         O                -1.129372         -0.960642
   3         O                -0.903591         -0.806176
   4         O                -0.804045         -0.542965
   5         O                -0.756672         -0.641073
   6         O                -0.677659         -0.538273
   7         O                -0.638283         -0.493839

 Normal termination of Gaussian 09 at Tue Dec 15 17:07:39 2015.
