 Gaussian 09, Revision D.01,
 Gaussian 09:  ES64L-G09RevD.01 24-Apr-2013

 ------------------------------------------------------------
 #P AM1(Input,print) CIS(Singlets,NStates=15) pop(full) force
 ------------------------------------------------------------

 -----------------
 AM1-Reparam Input
 -----------------
 Symbolic Z-matrix:
 Charge =  0 Multiplicity = 1

                         Standard orientation:
 ---------------------------------------------------------------------
 Center     Atomic      Atomic             Coordinates (Angstroms)
 Number     Number       Type             X           Y           Z
 ---------------------------------------------------------------------
      1          6           0       -1.151780    0.428735   -0.051436
      2          6           0       -0.731541   -0.889562    0.041920
      3          8           0        0.676392   -0.968070   -0.012975
      4          6           0        1.099382    0.333947   -0.022468
      5          6           0        0.067705    1.137959    0.042047
      6          1           0        0.142793    2.267538    0.026043
      7          1           0        2.179964    0.367783    0.010261
      8          1           0       -1.272615   -1.756239    0.021526
      9          1           0       -2.163874    0.799003   -0.014409
 ---------------------------------------------------------------------

 SCF Done:  E(RAM1) =   2.56554027461     A.U. after   14 cycles

 Excitation energies and oscillator strengths:

 Excited State   1:      Singlet-A      5.3503 eV  231.73 nm  f=0.3318  <S**2>=0.000
      13 -> 14         0.69372
 This state for optimization and/or second-order correction.
 Total Energy, E(CIS) =   2.76216037667
 Copying the excited state density for this state as the 1-particle RhoCI density.

 Excited State   2:      Singlet-A      6.2237 eV  199.21 nm  f=0.0004  <S**2>=0.000
      11 -> 15         0.11497
      13 -> 15         0.67256
      13 -> 17        -0.10356

 Excited State   3:      Singlet-A      6.6410 eV  186.69 nm  f=0.0039  <S**2>=0.000
      12 -> 14         0.19319
      13 -> 16         0.63379
      13 -> 17        -0.15181
      13 -> 19         0.13301

 Excited State   4:      Singlet-A      6.7594 eV  183.42 nm  f=0.0035  <S**2>=0.000
      12 -> 14         0.66966
      13 -> 16        -0.18424

 Excited State   5:      Singlet-A      7.8801 eV  157.34 nm  f=0.0032  <S**2>=0.000
      10 -> 14        -0.27079
      11 -> 14         0.13373
      13 -> 16         0.13437
      13 -> 17         0.47094
      13 -> 18        -0.30484
      13 -> 21        -0.24118

 Excited State   6:      Singlet-A      7.9856 eV  155.26 nm  f=0.0062  <S**2>=0.000
      10 -> 14         0.53653
      11 -> 14        -0.23145
      13 -> 18        -0.33318
      13 -> 21        -0.16964

 Excited State   7:      Singlet-A      8.1858 eV  151.46 nm  f=0.0070  <S**2>=0.000
      10 -> 14         0.21188
      11 -> 14        -0.10239
      13 -> 15         0.12154
      13 -> 17         0.45929
      13 -> 18         0.38302
      13 -> 19         0.15216
      13 -> 21         0.17257

 Excited State   8:      Singlet-A      8.7829 eV  141.17 nm  f=0.0484  <S**2>=0.000
      10 -> 14         0.26239
      11 -> 14         0.58758
      12 -> 15        -0.22176

 Excited State   9:      Singlet-A      8.9373 eV  138.73 nm  f=0.0027  <S**2>=0.000
      11 -> 16         0.13089
      13 -> 16        -0.10795
      13 -> 18        -0.20476
      13 -> 19         0.62793

 Excited State  10:      Singlet-A      9.1657 eV  135.27 nm  f=0.1405  <S**2>=0.000
      11 -> 14         0.22340
      12 -> 15         0.56541
      12 -> 16        -0.18186
      12 -> 18        -0.16066

 Excited State  11:      Singlet-A      9.3510 eV  132.59 nm  f=0.0693  <S**2>=0.000
       9 -> 15        -0.13888
      10 -> 15         0.18508
      10 -> 17        -0.15390
      10 -> 18        -0.13920
      12 -> 15         0.26882
      12 -> 16         0.31471
      12 -> 17        -0.30861
      12 -> 18         0.18358
      13 -> 20        -0.13987

 Excited State  12:      Singlet-A      9.4570 eV  131.10 nm  f=0.0019  <S**2>=0.000
      13 -> 18        -0.29628
      13 -> 19        -0.15451
      13 -> 20        -0.12106
      13 -> 21         0.57517

 Excited State  13:      Singlet-A      9.8006 eV  126.51 nm  f=0.1087  <S**2>=0.000
      10 -> 15         0.12437
      11 -> 15         0.23170
      12 -> 16         0.10038
      13 -> 20         0.61423

 Excited State  14:      Singlet-A      9.8995 eV  125.24 nm  f=0.0151  <S**2>=0.000
       7 -> 15        -0.13187
      10 -> 15         0.13430
      11 -> 15         0.55545
      11 -> 16         0.12922
      12 -> 16         0.10760
      13 -> 15        -0.14233
      13 -> 20        -0.23874
      13 -> 21        -0.11238

 Excited State  15:      Singlet-A     10.0311 eV  123.60 nm  f=0.1407  <S**2>=0.000
       8 -> 16         0.16530
       9 -> 16         0.13080
      10 -> 15        -0.11043
      11 -> 15        -0.15917
      12 -> 16         0.40470
      12 -> 17         0.30006
      12 -> 18        -0.18352
      12 -> 19         0.15455
      12 -> 20        -0.12477

 The electronic state is 1-A.
 Alpha  occ. eigenvalues --   -1.72705  -1.16003  -0.95189  -0.80149  -0.76768
 Alpha  occ. eigenvalues --   -0.67184  -0.63877  -0.54262  -0.50343  -0.43617
 Alpha  occ. eigenvalues --   -0.43151  -0.39492  -0.28190
 Alpha virt. eigenvalues --    0.12251   0.16939   0.20365   0.25630   0.27774
 Alpha virt. eigenvalues --    0.29771   0.31638   0.33030   0.37609   0.47212
 Alpha virt. eigenvalues --    0.51066

 Mulliken charges:
               1
     1  C   -0.049037
     2  C   -1.936567
     3  O    3.224989
     4  C   -1.873533
     5  C   -0.085360
     6  H    0.117666
     7  H    0.234844
     8  H    0.252122
     9  H    0.114877
 Sum of Mulliken charges =   0.00000

 Dipole moment (field-independent basis, Debye):
    X=              6.6040    Y=             -9.0056    Z=             -0.2907  Tot=             11.1713
 N-N= 1.035740954870D+02 E-N=-1.683770461409D+02  KE=-1.502145662363D+01
 Orbital energies and kinetic energies (alpha):
                                 1                 2
   1         O                -1.727045         -1.214150
   2         O                -1.160027         -1.015047
   3         O                -0.951891         -0.870636
   4         O                -0.801492         -0.614345
   5         O                -0.767678         -0.685962
   6         O                -0.671844         -0.570118
   7         O                -0.638770         -0.523441

 Normal termination of Gaussian 09 at Tue Dec 15 17:06:13 2015.
