 Gaussian 09, Revision D.01,
 Gaussian 09:  ES64L-G09RevD.01 24-Apr-2013

 ------------------------------------------------------------
 #P AM1(Input,print) CIS(Singlets,NStates=15) pop(full) force
 ------------------------------------------------------------

 -----------------
 AM1-Reparam Input
 -----------------
 Symbolic Z-matrix:
 Charge =  0 Multiplicity = 1

                         Standard orientation:
 ---------------------------------------------------------------------
 Center     Atomic      Atomic             Coordinates (Angstroms)
 Number     Number       Type             X           Y           Z
 ---------------------------------------------------------------------
      1          6           0        0.233851    1.154702    0.003250
      2          6           0        1.135344    0.102583   -0.003083
      3          8           0        0.513178   -1.038706   -0.012188
      4          6           0       -0.894355   -0.752286    0.020260
      5          6           0       -1.039467    0.578183   -0.021205
      6          1           0       -1.994764    1.099424   -0.005095
      7          1           0       -1.506241   -1.562490    0.034581
      8          1           0        2.247521    0.079366    0.026829
      9          1           0        0.535823    2.194256    0.045854
 ---------------------------------------------------------------------

 SCF Done:  E(RAM1) =   1.80334082364     A.U. after   14 cycles

 Excitation energies and oscillator strengths:

 Excited State   1:      Singlet-A      5.5883 eV  221.86 nm  f=0.3272  <S**2>=0.000
      13 -> 14         0.68914
 This state for optimization and/or second-order correction.
 Total Energy, E(CIS) =   2.00870812515
 Copying the excited state density for this state as the 1-particle RhoCI density.

 Excited State   2:      Singlet-A      6.4879 eV  191.10 nm  f=0.0052  <S**2>=0.000
      13 -> 15         0.66993
      13 -> 17         0.16927

 Excited State   3:      Singlet-A      7.3371 eV  168.98 nm  f=0.0042  <S**2>=0.000
      13 -> 16         0.66925
      13 -> 18        -0.10559
      13 -> 19         0.12522

 Excited State   4:      Singlet-A      7.6796 eV  161.45 nm  f=0.0006  <S**2>=0.000
      12 -> 14         0.69775

 Excited State   5:      Singlet-A      8.2311 eV  150.63 nm  f=0.0067  <S**2>=0.000
      11 -> 14         0.68393

 Excited State   6:      Singlet-A      8.4044 eV  147.52 nm  f=0.0000  <S**2>=0.000
      11 -> 14        -0.13235
      13 -> 16         0.10303
      13 -> 17         0.22605
      13 -> 18         0.58815
      13 -> 21        -0.23289

 Excited State   7:      Singlet-A      8.9131 eV  139.10 nm  f=0.0093  <S**2>=0.000
      10 -> 15        -0.11540
      13 -> 15        -0.13556
      13 -> 17         0.61125
      13 -> 18        -0.25831

 Excited State   8:      Singlet-A      9.1503 eV  135.50 nm  f=0.0781  <S**2>=0.000
      10 -> 14         0.64080
      11 -> 15        -0.11583
      12 -> 17        -0.11971
      12 -> 18        -0.11086

 Excited State   9:      Singlet-A      9.7906 eV  126.64 nm  f=0.0001  <S**2>=0.000
      10 -> 16         0.15105
      13 -> 17         0.10253
      13 -> 19         0.65042

 Excited State  10:      Singlet-A      9.8619 eV  125.72 nm  f=0.1037  <S**2>=0.000
       9 -> 15         0.18080
      10 -> 14         0.22021
      11 -> 15         0.27920
      11 -> 16         0.25037
      11 -> 17         0.19947
      11 -> 18        -0.16057
      12 -> 15         0.23408
      12 -> 17         0.13228
      12 -> 18         0.26534
      13 -> 14         0.11393

 Excited State  11:      Singlet-A      9.9862 eV  124.16 nm  f=0.0556  <S**2>=0.000
      10 -> 15        -0.10529
      11 -> 15        -0.44799
      11 -> 17        -0.10107
      12 -> 15         0.47340
      12 -> 17         0.13207

 Excited State  12:      Singlet-A     10.2178 eV  121.34 nm  f=0.0142  <S**2>=0.000
       7 -> 15        -0.12316
      10 -> 15         0.64300
      13 -> 15        -0.12707

 Excited State  13:      Singlet-A     10.4386 eV  118.77 nm  f=0.0246  <S**2>=0.000
      13 -> 18         0.20762
      13 -> 19        -0.13565
      13 -> 20        -0.43096
      13 -> 21         0.48372

 Excited State  14:      Singlet-A     10.6126 eV  116.83 nm  f=0.2031  <S**2>=0.000
      11 -> 16         0.18542
      12 -> 16         0.62503
      12 -> 19         0.14768

 Excited State  15:      Singlet-A     10.7997 eV  114.80 nm  f=0.0722  <S**2>=0.000
       9 -> 15         0.14659
      10 -> 16        -0.10960
      11 -> 15         0.11206
      11 -> 18        -0.12086
      11 -> 19        -0.11600
      12 -> 15         0.18165
      12 -> 16         0.12045
      12 -> 17        -0.12748
      12 -> 18        -0.17383
      12 -> 19        -0.10361
      13 -> 20         0.39035
      13 -> 21         0.32761

 The electronic state is 1-A.
 Alpha  occ. eigenvalues --   -1.99827  -1.27826  -1.00529  -0.89652  -0.85408
 Alpha  occ. eigenvalues --   -0.76736  -0.74783  -0.64161  -0.61680  -0.52339
 Alpha  occ. eigenvalues --   -0.51624  -0.49929  -0.37250
 Alpha virt. eigenvalues --    0.04827   0.09431   0.14062   0.18999   0.20677
 Alpha virt. eigenvalues --    0.22964   0.25845   0.27256   0.28977   0.36921
 Alpha virt. eigenvalues --    0.42109

 Mulliken charges:
               1
     1  C   -0.212901
     2  C   -1.923421
     3  O    3.174038
     4  C   -1.867739
     5  C   -0.038878
     6  H    0.148122
     7  H    0.255257
     8  H    0.303719
     9  H    0.161802
 Sum of Mulliken charges =   0.00000

 Dipole moment (field-independent basis, Debye):
    X=              5.1968    Y=             -9.2807    Z=             -0.1755  Tot=             10.6381
 N-N= 1.056878647050D+02 E-N=-1.706583770278D+02  KE=-1.567575456122D+01
 Orbital energies and kinetic energies (alpha):
                                 1                 2
   1         O                -1.998265         -1.376022
   2         O                -1.278259         -1.055264
   3         O                -1.005295         -0.884109
   4         O                -0.896525         -0.586226
   5         O                -0.854082         -0.701930
   6         O                -0.767359         -0.606507
   7         O                -0.747835         -0.544242

 Normal termination of Gaussian 09 at Tue Dec 15 17:08:55 2015.
