 Gaussian 09, Revision D.01,
 Gaussian 09:  ES64L-G09RevD.01 24-Apr-2013

 --------------------------------------------------
 #P B3LYP/6-31G* CIS(Singlets,NStates=15) pop(full)
 --------------------------------------------------

 --------
 FuranDFT
 --------
 Symbolic Z-matrix:
 Charge =  0 Multiplicity = 1

                         Standard orientation:
 ---------------------------------------------------------------------
 Center     Atomic      Atomic             Coordinates (Angstroms)
 Number     Number       Type             X           Y           Z
 ---------------------------------------------------------------------
      1          6           0        0.000000    0.715963   -0.955475
      2          6           0        0.000000    1.092818    0.345627
      3          8           0        0.000000    0.000000    1.157305
      4          6           0        0.000000   -1.092818    0.345627
      5          6           0        0.000000   -0.715963   -0.955475
      6          1           0        0.000000   -1.369382   -1.810438
      7          1           0        0.000000   -2.046884    0.840307
      8          1           0        0.000000    2.046884    0.840307
      9          1           0        0.000000    1.369382   -1.810438
 ---------------------------------------------------------------------

 SCF Done:  E(RB3LYP) =  -230.020399623     A.U. after   13 cycles

 Excitation energies and oscillator strengths:

 Excited State   1:      Singlet-B2     7.0060 eV  176.97 nm  f=0.2193  <S**2>=0.000
      18 -> 19         0.68530
 This state for optimization and/or second-order correction.
 Total Energy, E(CIS) =  -229.762932359
 Copying the excited state density for this state as the 1-particle RhoCI density.

 Excited State   2:      Singlet-A1     7.0580 eV  175.66 nm  f=0.0004  <S**2>=0.000
      17 -> 19         0.51621
      18 -> 20        -0.47669

 Excited State   3:      Singlet-A2     8.1499 eV  152.13 nm  f=0.0000  <S**2>=0.000
      18 -> 21         0.69489
      18 -> 22        -0.10521

 Excited State   4:      Singlet-A2     8.8688 eV  139.80 nm  f=0.0000  <S**2>=0.000
      18 -> 21         0.10725
      18 -> 22         0.69019

 Excited State   5:      Singlet-B1     8.9333 eV  138.79 nm  f=0.0022  <S**2>=0.000
      16 -> 19         0.69230
      18 -> 23         0.11715

 Excited State   6:      Singlet-B1     9.1610 eV  135.34 nm  f=0.0000  <S**2>=0.000
      17 -> 21         0.23677
      18 -> 23         0.62861
      18 -> 24         0.14757
      18 -> 26         0.10587

 Excited State   7:      Singlet-B2     9.3753 eV  132.25 nm  f=0.1581  <S**2>=0.000
      17 -> 20         0.68420

 Excited State   8:      Singlet-B1     9.4570 eV  131.10 nm  f=0.0002  <S**2>=0.000
      17 -> 21         0.58988
      18 -> 23        -0.25880
      18 -> 24         0.24655

 Excited State   9:      Singlet-A1     9.4627 eV  131.02 nm  f=0.5900  <S**2>=0.000
      15 -> 25         0.10096
      17 -> 19         0.44325
      18 -> 20         0.48983

 Excited State  10:      Singlet-B1     9.6566 eV  128.39 nm  f=0.0000  <S**2>=0.000
      15 -> 19        -0.13408
      17 -> 21        -0.28557
      18 -> 24         0.62884

 Excited State  11:      Singlet-B1     9.8204 eV  126.25 nm  f=0.0010  <S**2>=0.000
      15 -> 19         0.67860
      18 -> 23        -0.10312
      18 -> 24         0.13995

 Excited State  12:      Singlet-A2    10.0704 eV  123.12 nm  f=0.0000  <S**2>=0.000
      14 -> 19         0.61569
      16 -> 20        -0.23485
      18 -> 25         0.23487

 Excited State  13:      Singlet-B1    10.1355 eV  122.33 nm  f=0.0009  <S**2>=0.000
      17 -> 21         0.10910
      17 -> 22         0.67280
      18 -> 26        -0.16125

 Excited State  14:      Singlet-A2    10.1673 eV  121.94 nm  f=0.0000  <S**2>=0.000
      14 -> 19        -0.21184
      16 -> 20         0.11413
      18 -> 25         0.65396

 Excited State  15:      Singlet-B1    10.4636 eV  118.49 nm  f=0.0042  <S**2>=0.000
      17 -> 22         0.16592
      18 -> 23        -0.10275
      18 -> 26         0.67448

 The electronic state is 1-A1.
 Alpha  occ. eigenvalues --  -19.21079 -10.23005 -10.23003 -10.18227 -10.18185
 Alpha  occ. eigenvalues --   -1.10500  -0.79418  -0.74085  -0.59420  -0.56652
 Alpha  occ. eigenvalues --   -0.53795  -0.44289  -0.44278  -0.40820  -0.39366
 Alpha  occ. eigenvalues --   -0.36667  -0.27380  -0.22502
 Alpha virt. eigenvalues --    0.02115   0.08045   0.11917   0.14299   0.15695
 Alpha virt. eigenvalues --    0.16802   0.19738   0.20754   0.31626   0.37967
 Alpha virt. eigenvalues --    0.43638   0.51473   0.53304   0.58317   0.58412

 Mulliken charges:
               1
     1  C   -0.175896
     2  C    0.079809
     3  O   -0.393858
     4  C    0.079809
     5  C   -0.175896
     6  H    0.139113
     7  H    0.153903
     8  H    0.153903
     9  H    0.139113
 Sum of Mulliken charges =   0.00000

 Dipole moment (field-independent basis, Debye):
    X=              0.0000    Y=              0.0000    Z=             -0.6285  Tot=              0.6285
 Quadrupole moment (field-independent basis, Debye-Ang):
   XX=            -30.9747   YY=            -23.6845   ZZ=            -27.6489
   XY=              0.0000   XZ=              0.0000   YZ=              0.0000

 Normal termination of Gaussian 09 at Mon Nov 23 16:22:10 2015.
