 Gaussian 09, Revision D.01,
 Gaussian 09:  ES64L-G09RevD.01 24-Apr-2013

 ----------------------------
 #P AM1(Input,print) Opt Freq
 ----------------------------

 -----------------
 AM1-Reparam Input
 -----------------
 Symbolic Z-matrix:
 Charge =  0 Multiplicity = 1

 SCF Done:  E(RAM1) =  0.737648426797     A.U. after   17 cycles
 SCF Done:  E(RAM1) =  0.732062614415     A.U. after   15 cycles
 SCF Done:  E(RAM1) =  0.731280034036     A.U. after   15 cycles
 SCF Done:  E(RAM1) =  0.731120567868     A.U. after   16 cycles
 SCF Done:  E(RAM1) =  0.730977360745     A.U. after   15 cycles
 SCF Done:  E(RAM1) =  0.730948599887     A.U. after   14 cycles
 SCF Done:  E(RAM1) =  0.730943632433     A.U. after   13 cycles
 SCF Done:  E(RAM1) =  0.730942366303     A.U. after   13 cycles
 Optimization completed.
    -- Stationary point found.
 Normal termination of Gaussian 09 at Sun Nov 29 12:22:34 2015.

 -------------------------------------------------------------
 #P Geom=AllCheck Guess=TCheck SCRF=Check GenChk RAM1/ZDO Freq
 -------------------------------------------------------------

 Structure from the checkpoint file:  "/home/Applications/g09/scratch/Gau-20959.chk"
 -----------------
 AM1-Reparam Input
 -----------------
 Charge =  0 Multiplicity = 1

                         Standard orientation:
 ---------------------------------------------------------------------
 Center     Atomic      Atomic             Coordinates (Angstroms)
 Number     Number       Type             X           Y           Z
 ---------------------------------------------------------------------
      1          6           0       -0.717697    0.955282   -0.000001
      2          6           0       -1.103188   -0.347737    0.000021
      3          8           0        0.000855   -1.164491   -0.000013
      4          6           0        1.103252   -0.346641    0.000053
      5          6           0        0.716531    0.956155   -0.000042
      6          1           0        1.315383    1.862301    0.000350
      7          1           0        2.071403   -0.853845   -0.000284
      8          1           0       -2.070592   -0.856512    0.000128
      9          1           0       -1.316427    1.861624   -0.000274
 ---------------------------------------------------------------------

 SCF Done:  E(RAM1) =  0.730942366303     A.U. after    2 cycles

 The electronic state is 1-A.
 Alpha  occ. eigenvalues --   -1.19312  -0.92071  -0.91464  -0.73936  -0.69639
 Alpha  occ. eigenvalues --   -0.65777  -0.61040  -0.52949  -0.52180  -0.49710
 Alpha  occ. eigenvalues --   -0.49213  -0.40991  -0.35304
 Alpha virt. eigenvalues --    0.01094   0.02232   0.12106   0.13136   0.15578
 Alpha virt. eigenvalues --    0.16138   0.19658   0.20659   0.22252   0.22329
 Alpha virt. eigenvalues --    0.23971

 Mulliken charges:
               1
     1  C   -0.578075
     2  C    0.210050
     3  O   -0.429544
     4  C    0.211182
     5  C   -0.579660
     6  H    0.308351
     7  H    0.274631
     8  H    0.274735
     9  H    0.308331
 Sum of Mulliken charges =   0.00000

 Dipole moment (field-independent basis, Debye):
    X=              0.0015    Y=             -0.5129    Z=              0.0001  Tot=              0.5129
 N-N= 1.023846752531D+02 E-N=-1.712649551029D+02  KE=-1.497074780642D+01
  Exact polarizability:  48.618   0.010  57.003   0.005  -0.003   8.786
 Approx polarizability:  29.735   0.004  40.305   0.001  -0.002   5.732
 Leave Link  601 at Sun Nov 29 12:22:34 2015, MaxMem=    33554432 cpu:         0.0
 (Enter /home/Applications/g09/g09/l701.exe)
 Compute integral second derivatives.
 ... and contract with generalized density number  0.
 Leave Link  701 at Sun Nov 29 12:22:34 2015, MaxMem=    33554432 cpu:         0.0
 (Enter /home/Applications/g09/g09/l702.exe)
 L702 exits ... SP integral derivatives will be done elsewhere.

                      1                      2                      3
                      A                      A                      A
 Frequencies --    493.8185               517.7728               747.4168
 Red. masses --      1.6051                 2.2290                 6.2399
 Frc consts  --      0.2306                 0.3521                 2.0538
 IR Inten    --      0.0019                63.8242                28.4428

                      4                      5                      6
                      A                      A                      A
 Frequencies --    753.7210               784.4161               811.7229
 Red. masses --      1.1876                 1.2756                 3.7560
 Frc consts  --      0.3975                 0.4625                 1.4581
 IR Inten    --    254.0723                 0.0090                10.4199

                      7                      8                      9
                      A                      A                      A
 Frequencies --    866.6539               910.8647               935.6451
 Red. masses --      1.7450                 1.5399                 2.1958
 Frc consts  --      0.7722                 0.7528                 1.1326
 IR Inten    --     21.2930                24.8306                 0.0001

                     10                     11                     12
                      A                      A                      A
 Frequencies --    941.7582              1026.7923              1060.2518
 Red. masses --      1.1494                 1.2244                 1.9907
 Frc consts  --      0.6006                 0.7606                 1.3185
 IR Inten    --     71.0206                37.3635                52.0118

                     13                     14                     15
                      A                      A                      A
 Frequencies --   1098.2603              1147.4112              1346.9053
 Red. masses --      1.4382                 6.3908                 6.5885
 Frc consts  --      1.0221                 4.9573                 7.0422
 IR Inten    --      0.4683                14.0720                 1.5890

                     16                     17                     18
                      A                      A                      A
 Frequencies --   1486.4928              1540.7786              2978.7114
 Red. masses --      7.1092                 7.5383                 1.0834
 Frc consts  --      9.2555                10.5440                 5.6634
 IR Inten    --     13.7728                39.8054               375.6419

                     19                     20                     21
                      A                      A                      A
 Frequencies --   2989.8303              3014.0991              3034.1755
 Red. masses --      1.0858                 1.0908                 1.0994
 Frc consts  --      5.7187                 5.8387                 5.9632
 IR Inten    --    391.2425               267.6689               335.8842

 - Thermochemistry -
 -------------------
 Temperature   298.150 Kelvin.  Pressure   1.00000 Atm.
 Atom     1 has atomic number  6 and mass  12.00000

 Molecular mass:    68.02621 amu.
 Principal axes and moments of inertia in atomic units:
                           1         2         3
     Eigenvalues --   191.72268 196.08047 387.80315
           X           -0.00306   1.00000   0.00000
           Y            1.00000   0.00306   0.00000
           Z            0.00000   0.00000   1.00000
 This molecule is an asymmetric top.
 Rotational symmetry number  1.
 Rotational temperatures (Kelvin)      0.45177     0.44173     0.22334
 Rotational constants (GHZ):           9.41329     9.20408     4.65376
 Zero-point vibrational energy     170393.1 (Joules/Mol)
                                   40.72492 (Kcal/Mol)
 Warning -- explicit consideration of   2 degrees of freedom as
           vibrations may cause significant error
 Vibrational temperatures:    710.49   744.96  1075.36  1084.43  1128.60
          (Kelvin)           1167.89  1246.92  1310.53  1346.18  1354.98
                             1477.32  1525.46  1580.15  1650.87  1937.89
                             2138.73  2216.83  4285.70  4301.69  4336.61
                             4365.50

 Zero-point correction=                           0.064899 (Hartree/Particle)
 Thermal correction to Energy=                    0.068851
 Thermal correction to Enthalpy=                  0.069795
 Thermal correction to Gibbs Free Energy=         0.038521
 Sum of electronic and zero-point Energies=              0.795842
 Sum of electronic and thermal Energies=                 0.799793
 Sum of electronic and thermal Enthalpies=               0.800737
 Sum of electronic and thermal Free Energies=            0.769464

                     E (Thermal)             CV                S
                      KCal/Mol        Cal/Mol-Kelvin    Cal/Mol-Kelvin
 Total                   43.205             14.606             65.821
 Electronic               0.000              0.000              0.000
 Translational            0.889              2.981             38.570
 Rotational               0.889              2.981             24.192
 Vibrational             41.427              8.644              3.059
 Vibration     1          0.849              1.264              0.674
 Vibration     2          0.873              1.211              0.615

 Optimization completed.
    -- Stationary point found.
 Normal termination of Gaussian 09 at Sun Nov 29 12:22:34 2015.
