 Gaussian 09, Revision D.01,
 Gaussian 09:  ES64L-G09RevD.01 24-Apr-2013

 ----------------------------
 #P AM1(Input,print) Opt Freq
 ----------------------------

 -----------------
 AM1-Reparam Input
 -----------------
 Symbolic Z-matrix:
 Charge =  0 Multiplicity = 1

 SCF Done:  E(RAM1) =  -3.67740996577     A.U. after   11 cycles
 SCF Done:  E(RAM1) =  -3.69493591063     A.U. after   11 cycles
 SCF Done:  E(RAM1) =  -3.69601258257     A.U. after   10 cycles
 SCF Done:  E(RAM1) =  -3.69621411241     A.U. after   10 cycles
 SCF Done:  E(RAM1) =  -3.69627173428     A.U. after   10 cycles
 SCF Done:  E(RAM1) =  -3.69628171907     A.U. after    9 cycles
 SCF Done:  E(RAM1) =  -3.69628332038     A.U. after    9 cycles
 SCF Done:  E(RAM1) =  -3.69628564690     A.U. after    8 cycles
 Optimization completed.
    -- Stationary point found.
 Normal termination of Gaussian 09 at Tue Nov 24 09:48:04 2015.

 -------------------------------------------------------------
 #P Geom=AllCheck Guess=TCheck SCRF=Check GenChk RAM1/ZDO Freq
 -------------------------------------------------------------

 Structure from the checkpoint file:  "/home/Applications/g09/scratch/Gau-12700.chk"
 -----------------
 AM1-Reparam Input
 -----------------
 Charge =  0 Multiplicity = 1

                         Standard orientation:
 ---------------------------------------------------------------------
 Center     Atomic      Atomic             Coordinates (Angstroms)
 Number     Number       Type             X           Y           Z
 ---------------------------------------------------------------------
      1          6           0       -0.974471   -0.711053   -0.000005
      2          6           0        0.346593   -1.074985   -0.000013
      3          8           0        1.187293   -0.001045   -0.000011
      4          6           0        0.348477    1.074389    0.000026
      5          6           0       -0.973222    0.712736   -0.000112
      6          1           0       -1.840889    1.357233    0.000283
      7          1           0        0.852709    2.031046    0.000143
      8          1           0        0.848855   -2.032593    0.000120
      9          1           0       -1.843278   -1.353849    0.000167
 ---------------------------------------------------------------------

 SCF Done:  E(RAM1) =  -3.69628564690     A.U. after    2 cycles

 The electronic state is 1-A.
 Alpha  occ. eigenvalues --   -1.85229  -1.39236  -1.23562  -1.02070  -0.94865
 Alpha  occ. eigenvalues --   -0.86493  -0.83777  -0.63998  -0.62469  -0.59910
 Alpha  occ. eigenvalues --   -0.58485  -0.55780  -0.46493
 Alpha virt. eigenvalues --   -0.03213   0.00802   0.03524   0.05933   0.08058
 Alpha virt. eigenvalues --    0.09157   0.12174   0.12584   0.12600   0.14301
 Alpha virt. eigenvalues --    0.16624

 Mulliken charges:
               1
     1  C   -0.378664
     2  C   -0.118382
     3  O   -0.104367
     4  C   -0.118422
     5  C   -0.378667
     6  H    0.282770
     7  H    0.266501
     8  H    0.266478
     9  H    0.282754
 Sum of Mulliken charges =   0.00000

 Dipole moment (field-independent basis, Debye):
    X=             -0.3033    Y=              0.0005    Z=              0.0011  Tot=              0.3033
 N-N= 1.011400419627D+02 E-N=-1.659583927273D+02  KE=-2.046691589810D+01
  Exact polarizability:  39.566   0.000  39.397   0.000   0.001   5.246
 Approx polarizability:  37.778  -0.005  31.877   0.001   0.001   4.070
 Leave Link  601 at Tue Nov 24 09:48:04 2015, MaxMem=    33554432 cpu:         0.0
 (Enter /home/Applications/g09/g09/l701.exe)
 Compute integral second derivatives.
 ... and contract with generalized density number  0.
 Leave Link  701 at Tue Nov 24 09:48:04 2015, MaxMem=    33554432 cpu:         0.0
 (Enter /home/Applications/g09/g09/l702.exe)
 L702 exits ... SP integral derivatives will be done elsewhere.

                      1                      2                      3
                      A                      A                      A
 Frequencies --    583.6531               615.5473               619.9319
 Red. masses --      6.9157                 1.9817                 2.7553
 Frc consts  --      1.3880                 0.4424                 0.6239
 IR Inten    --      0.0387                 0.0012                24.2463

                      4                      5                      6
                      A                      A                      A
 Frequencies --    693.0209               910.8023               959.1518
 Red. masses --      5.9913                 1.1832                 1.3078
 Frc consts  --      1.6954                 0.5783                 0.7089
 IR Inten    --      4.2280               263.2220                 0.0021

                      7                      8                      9
                      A                      A                      A
 Frequencies --   1010.2820              1055.9559              1058.2500
 Red. masses --      1.5098                 1.7008                 1.0614
 Frc consts  --      0.9080                 1.1174                 0.7004
 IR Inten    --      0.1446                 0.0001                47.5522

                     10                     11                     12
                      A                      A                      A
 Frequencies --   1090.2858              1186.9246              1242.7510
 Red. masses --      1.0853                 1.1046                 1.1961
 Frc consts  --      0.7601                 0.9168                 1.0884
 IR Inten    --     59.5073                51.0390                 2.3014

                     13                     14                     15
                      A                      A                      A
 Frequencies --   1400.4254              1613.4994              1622.7165
 Red. masses --      6.7201                 7.7559                 8.3734
 Frc consts  --      7.7651                11.8965                12.9909
 IR Inten    --     16.6638                 0.4613                 1.4722

                     16                     17                     18
                      A                      A                      A
 Frequencies --   1729.3206              1792.4854              3086.0756
 Red. masses --      8.4094                 9.1952                 1.0777
 Frc consts  --     14.8172                17.4070                 6.0475
 IR Inten    --     77.5018                 6.0574                27.1190

                     19                     20                     21
                      A                      A                      A
 Frequencies --   3097.8239              3114.5786              3122.2259
 Red. masses --      1.0855                 1.0938                 1.0992
 Frc consts  --      6.1375                 6.2517                 6.3133
 IR Inten    --    336.2270               390.6095                10.5576

 - Thermochemistry -
 -------------------
 Temperature   298.150 Kelvin.  Pressure   1.00000 Atm.
 Atom     1 has atomic number  6 and mass  12.00000

 Molecular mass:    68.02621 amu.
 Principal axes and moments of inertia in atomic units:
                           1         2         3
     Eigenvalues --   185.36285 201.58444 386.94729
           X            1.00000   0.00076  -0.00001
           Y           -0.00076   1.00000   0.00000
           Z            0.00001   0.00000   1.00000
 This molecule is an asymmetric top.
 Rotational symmetry number  1.
 Rotational temperatures (Kelvin)      0.46727     0.42967     0.22384
 Rotational constants (GHZ):           9.73626     8.95278     4.66405
 Zero-point vibrational energy     189044.1 (Joules/Mol)
                                   45.18263 (Kcal/Mol)
 Warning -- explicit consideration of   3 degrees of freedom as
           vibrations may cause significant error
 Vibrational temperatures:    839.75   885.63   891.94   997.10  1310.44
          (Kelvin)           1380.00  1453.57  1519.28  1522.58  1568.68
                             1707.72  1788.04  2014.90  2321.46  2334.72
                             2488.10  2578.98  4440.17  4457.07  4481.18
                             4492.18

 Zero-point correction=                           0.072003 (Hartree/Particle)
 Thermal correction to Energy=                    0.075685
 Thermal correction to Enthalpy=                  0.076629
 Thermal correction to Gibbs Free Energy=         0.045721
 Sum of electronic and zero-point Energies=             -3.624283
 Sum of electronic and thermal Energies=                -3.620601
 Sum of electronic and thermal Enthalpies=              -3.619656
 Sum of electronic and thermal Free Energies=           -3.650565

                     E (Thermal)             CV                S
                      KCal/Mol        Cal/Mol-Kelvin    Cal/Mol-Kelvin
 Total                   47.493             12.717             65.053
 Electronic               0.000              0.000              0.000
 Translational            0.889              2.981             38.570
 Rotational               0.889              2.981             24.184
 Vibrational             45.716              6.756              2.299
 Vibration     1          0.941              1.067              0.479
 Vibration     2          0.975              0.999              0.424
 Vibration     3          0.980              0.990              0.417

 Optimization completed.
    -- Stationary point found.
 Normal termination of Gaussian 09 at Tue Nov 24 09:48:04 2015.
