 Gaussian 09, Revision D.01,
 Gaussian 09:  ES64L-G09RevD.01 24-Apr-2013

 ----------------------------
 #P AM1(Input,print) Opt Freq
 ----------------------------

 -----------------
 AM1-Reparam Input
 -----------------
 Symbolic Z-matrix:
 Charge =  0 Multiplicity = 1

 SCF Done:  E(RAM1) =  0.747625247288     A.U. after   17 cycles
 SCF Done:  E(RAM1) =  0.732321135345     A.U. after   16 cycles
 SCF Done:  E(RAM1) =  0.731143850379     A.U. after   14 cycles
 SCF Done:  E(RAM1) =  0.730987535191     A.U. after   14 cycles
 SCF Done:  E(RAM1) =  0.730956557378     A.U. after   14 cycles
 SCF Done:  E(RAM1) =  0.730945421963     A.U. after   14 cycles
 SCF Done:  E(RAM1) =  0.730942661772     A.U. after   13 cycles
 Optimization completed.
    -- Stationary point found.
 Normal termination of Gaussian 09 at Sun Nov 29 12:22:36 2015.

 -------------------------------------------------------------
 #P Geom=AllCheck Guess=TCheck SCRF=Check GenChk RAM1/ZDO Freq
 -------------------------------------------------------------

 Structure from the checkpoint file:  "/home/Applications/g09/scratch/Gau-20963.chk"
 -----------------
 AM1-Reparam Input
 -----------------
 Charge =  0 Multiplicity = 1

                         Standard orientation:
 ---------------------------------------------------------------------
 Center     Atomic      Atomic             Coordinates (Angstroms)
 Number     Number       Type             X           Y           Z
 ---------------------------------------------------------------------
      1          6           0        0.717670    0.955310    0.000025
      2          6           0        1.102836   -0.348040   -0.000223
      3          8           0       -0.000609   -1.164515    0.000282
      4          6           0       -1.103362   -0.346433    0.000111
      5          6           0       -0.716490    0.956166   -0.000137
      6          1           0       -1.315545    1.862041   -0.000041
      7          1           0       -2.071555   -0.854642   -0.000945
      8          1           0        2.071510   -0.854866   -0.000794
      9          1           0        1.316535    1.861561    0.000874
 ---------------------------------------------------------------------

 SCF Done:  E(RAM1) =  0.730942661772     A.U. after    2 cycles

 The electronic state is 1-A.
 Alpha  occ. eigenvalues --   -1.19319  -0.92072  -0.91460  -0.73938  -0.69635
 Alpha  occ. eigenvalues --   -0.65777  -0.61045  -0.52947  -0.52179  -0.49708
 Alpha  occ. eigenvalues --   -0.49210  -0.40990  -0.35302
 Alpha virt. eigenvalues --    0.01096   0.02232   0.12108   0.13139   0.15572
 Alpha virt. eigenvalues --    0.16134   0.19657   0.20659   0.22256   0.22332
 Alpha virt. eigenvalues --    0.23973

 Mulliken charges:
               1
     1  C   -0.579375
     2  C    0.210790
     3  O   -0.429339
     4  C    0.210110
     5  C   -0.578337
     6  H    0.308256
     7  H    0.274805
     8  H    0.274708
     9  H    0.308383
 Sum of Mulliken charges =   0.00000

 Dipole moment (field-independent basis, Debye):
    X=             -0.0014    Y=             -0.5136    Z=             -0.0009  Tot=              0.5136
 N-N= 1.023846658589D+02 E-N=-1.712651265554D+02  KE=-1.497069104211D+01
  Exact polarizability:  48.630   0.018  57.002  -0.009  -0.002   8.787
 Approx polarizability:  29.743   0.013  40.302  -0.003  -0.003   5.733
 Leave Link  601 at Sun Nov 29 12:22:36 2015, MaxMem=    33554432 cpu:         0.0
 (Enter /home/Applications/g09/g09/l701.exe)
 Compute integral second derivatives.
 ... and contract with generalized density number  0.
 Leave Link  701 at Sun Nov 29 12:22:36 2015, MaxMem=    33554432 cpu:         0.0
 (Enter /home/Applications/g09/g09/l702.exe)
 L702 exits ... SP integral derivatives will be done elsewhere.

                      1                      2                      3
                      A                      A                      A
 Frequencies --    494.0226               518.4215               747.6107
 Red. masses --      1.6061                 2.2402                 6.2522
 Frc consts  --      0.2309                 0.3547                 2.0589
 IR Inten    --      0.0006                63.3331                28.4533

                      4                      5                      6
                      A                      A                      A
 Frequencies --    754.0068               785.4523               811.8501
 Red. masses --      1.1851                 1.2752                 3.7599
 Frc consts  --      0.3970                 0.4635                 1.4601
 IR Inten    --    255.6065                 0.0001                10.3115

                      7                      8                      9
                      A                      A                      A
 Frequencies --    867.2269               911.1906               935.7293
 Red. masses --      1.7436                 1.5373                 2.1956
 Frc consts  --      0.7726                 0.7520                 1.1326
 IR Inten    --     20.2792                25.1310                 0.0023

                     10                     11                     12
                      A                      A                      A
 Frequencies --    941.7266              1027.0846              1060.4253
 Red. masses --      1.1501                 1.2239                 2.0043
 Frc consts  --      0.6010                 0.7607                 1.3280
 IR Inten    --     70.8858                37.7196                51.6467

                     13                     14                     15
                      A                      A                      A
 Frequencies --   1098.4339              1147.7967              1347.1386
 Red. masses --      1.4329                 6.3721                 6.5852
 Frc consts  --      1.0186                 4.9461                 7.0412
 IR Inten    --      0.4991                13.9330                 1.5854

                     16                     17                     18
                      A                      A                      A
 Frequencies --   1486.3580              1540.6637              2976.2607
 Red. masses --      7.1074                 7.5390                 1.0835
 Frc consts  --      9.2515                10.5434                 5.6546
 IR Inten    --     13.7568                39.8576               386.3793

                     19                     20                     21
                      A                      A                      A
 Frequencies --   2987.5607              3014.3486              3034.3116
 Red. masses --      1.0861                 1.0907                 1.0991
 Frc consts  --      5.7113                 5.8392                 5.9624
 IR Inten    --    377.8646               257.6375               348.9393

 - Thermochemistry -
 -------------------
 Temperature   298.150 Kelvin.  Pressure   1.00000 Atm.
 Atom     1 has atomic number  6 and mass  12.00000

 Molecular mass:    68.02621 amu.
 Principal axes and moments of inertia in atomic units:
                           1         2         3
     Eigenvalues --   191.71421 196.07992 387.79410
           X           -0.00066   1.00000   0.00003
           Y            1.00000   0.00066   0.00005
           Z           -0.00005  -0.00003   1.00000
 This molecule is an asymmetric top.
 Rotational symmetry number  1.
 Rotational temperatures (Kelvin)      0.45179     0.44173     0.22335
 Rotational constants (GHZ):           9.41371     9.20411     4.65386
 Zero-point vibrational energy     170393.8 (Joules/Mol)
                                   40.72510 (Kcal/Mol)
 Warning -- explicit consideration of   2 degrees of freedom as
           vibrations may cause significant error
 Vibrational temperatures:    710.79   745.89  1075.64  1084.85  1130.09
          (Kelvin)           1168.07  1247.74  1311.00  1346.30  1354.93
                             1477.74  1525.71  1580.40  1651.42  1938.23
                             2138.53  2216.67  4282.17  4298.43  4336.97
                             4365.69

 Zero-point correction=                           0.064900 (Hartree/Particle)
 Thermal correction to Energy=                    0.068850
 Thermal correction to Enthalpy=                  0.069794
 Thermal correction to Gibbs Free Energy=         0.038522
 Sum of electronic and zero-point Energies=              0.795842
 Sum of electronic and thermal Energies=                 0.799792
 Sum of electronic and thermal Enthalpies=               0.800737
 Sum of electronic and thermal Free Energies=            0.769465

                     E (Thermal)             CV                S
                      KCal/Mol        Cal/Mol-Kelvin    Cal/Mol-Kelvin
 Total                   43.204             14.599             65.817
 Electronic               0.000              0.000              0.000
 Translational            0.889              2.981             38.570
 Rotational               0.889              2.981             24.192
 Vibrational             41.426              8.637              3.055
 Vibration     1          0.850              1.263              0.673
 Vibration     2          0.873              1.209              0.614

 Optimization completed.
    -- Stationary point found.
 Normal termination of Gaussian 09 at Sun Nov 29 12:22:36 2015.
