 Gaussian 09, Revision D.01,
 Gaussian 09:  ES64L-G09RevD.01 24-Apr-2013

 ----------------------------
 #P AM1(Input,print) Opt Freq
 ----------------------------

 -----------------
 AM1-Reparam Input
 -----------------
 Symbolic Z-matrix:
 Charge =  0 Multiplicity = 1

 SCF Done:  E(RAM1) =  0.802763668425     A.U. after   14 cycles
 SCF Done:  E(RAM1) =  0.701678906802     A.U. after   12 cycles
 SCF Done:  E(RAM1) =  0.570767644870     A.U. after   12 cycles
 SCF Done:  E(RAM1) =  0.500016886238     A.U. after   12 cycles
 SCF Done:  E(RAM1) =  0.476940552952     A.U. after   11 cycles
 SCF Done:  E(RAM1) =  0.469258457019     A.U. after   11 cycles
 SCF Done:  E(RAM1) =  0.470102830520     A.U. after   11 cycles
 SCF Done:  E(RAM1) =  0.467296859489     A.U. after    9 cycles
 SCF Done:  E(RAM1) =  0.468163134460     A.U. after   10 cycles
 SCF Done:  E(RAM1) =  0.465537579806     A.U. after    9 cycles
 SCF Done:  E(RAM1) =  0.464100956388     A.U. after   10 cycles
 SCF Done:  E(RAM1) =  0.464541682899     A.U. after   10 cycles
 SCF Done:  E(RAM1) =  0.464034070169     A.U. after    8 cycles
 SCF Done:  E(RAM1) =  0.464234871075     A.U. after   10 cycles
 SCF Done:  E(RAM1) =  0.463974879546     A.U. after    7 cycles
 SCF Done:  E(RAM1) =  0.464006706509     A.U. after   10 cycles
 SCF Done:  E(RAM1) =  0.463941167513     A.U. after   10 cycles
 SCF Done:  E(RAM1) =  0.463939408750     A.U. after    8 cycles
 SCF Done:  E(RAM1) =  0.463938468813     A.U. after    8 cycles
 Optimization completed.
    -- Stationary point found.
 Normal termination of Gaussian 09 at Mon Dec 28 17:52:07 2015.

 -------------------------------------------------------------
 #P Geom=AllCheck Guess=TCheck SCRF=Check GenChk RAM1/ZDO Freq
 -------------------------------------------------------------

 Structure from the checkpoint file:  "/opt/g09/scratch/Gau-29718.chk"
 -----------------
 AM1-Reparam Input
 -----------------
 Charge =  0 Multiplicity = 1

                         Standard orientation:
 ---------------------------------------------------------------------
 Center     Atomic      Atomic             Coordinates (Angstroms)
 Number     Number       Type             X           Y           Z
 ---------------------------------------------------------------------
      1          6           0       -0.761151    0.951553   -0.000012
      2          6           0       -1.150295   -0.340486    0.000072
      3          8           0        0.001276   -1.147925   -0.000062
      4          6           0        1.150205   -0.339067    0.000127
      5          6           0        0.759726    0.952668   -0.000196
      6          1           0        1.372699    1.847334    0.000378
      7          1           0        2.056203   -0.926423    0.000042
      8          1           0       -2.054450   -0.930654   -0.000045
      9          1           0       -1.375570    1.845134    0.000176
 ---------------------------------------------------------------------

 SCF Done:  E(RAM1) =  0.463938468814     A.U. after    2 cycles

 The electronic state is 1-A.
 Alpha  occ. eigenvalues --   -1.57937  -1.18374  -1.08330  -0.81589  -0.79778
 Alpha  occ. eigenvalues --   -0.66627  -0.55702  -0.52219  -0.44732  -0.41803
 Alpha  occ. eigenvalues --   -0.38713  -0.32560  -0.24117
 Alpha virt. eigenvalues --    0.20836   0.26252   0.26823   0.27157   0.31214
 Alpha virt. eigenvalues --    0.33379   0.35781   0.37776   0.42353   0.43579
 Alpha virt. eigenvalues --    0.45077

 Mulliken charges:
               1
     1  C   -0.008586
     2  C    0.319177
     3  O   -0.518293
     4  C    0.320067
     5  C   -0.009497
     6  H   -0.026746
     7  H   -0.024834
     8  H   -0.024485
     9  H   -0.026803
 Sum of Mulliken charges =   0.00000

 Dipole moment (field-independent basis, Debye):
    X=             -0.0044    Y=              1.8969    Z=              0.0006  Tot=              1.8969
 N-N= 1.039071679270D+02 E-N=-1.725606952329D+02  KE=-1.627615989286D+01
  Exact polarizability:  36.131   0.002  39.451   0.002  -0.003   4.844
 Approx polarizability:  26.862  -0.002  37.440   0.001  -0.005   3.661
 Leave Link  601 at Mon Dec 28 17:52:08 2015, MaxMem=    33554432 cpu:         0.0
 (Enter /opt/g09/g09/l701.exe)
 Compute integral second derivatives.
 ... and contract with generalized density number  0.
 Leave Link  701 at Mon Dec 28 17:52:08 2015, MaxMem=    33554432 cpu:         0.0
 (Enter /opt/g09/g09/l702.exe)
 L702 exits ... SP integral derivatives will be done elsewhere.

                      1                      2                      3
                      A                      A                      A
 Frequencies --    538.3805               578.0156               782.9947
 Red. masses --      3.7996                 3.0393                 7.1802
 Frc consts  --      0.6489                 0.5983                 2.5936
 IR Inten    --     29.3585                 0.0000                26.4418

                      4                      5                      6
                      A                      A                      A
 Frequencies --    801.0342               908.2798               926.9250
 Red. masses --      7.2250                 1.3264                 1.3224
 Frc consts  --      2.7314                 0.6447                 0.6694
 IR Inten    --     10.9379                 0.0002                 2.8260

                      7                      8                      9
                      A                      A                      A
 Frequencies --    941.2057               988.6359               995.5966
 Red. masses --      7.5284                 3.7356                 1.1902
 Frc consts  --      3.9294                 2.1512                 0.6951
 IR Inten    --     58.7472               112.4036                 1.2304

                     10                     11                     12
                      A                      A                      A
 Frequencies --   1031.6222              1060.3036              1248.5870
 Red. masses --      1.2632                 4.1277                 1.2552
 Frc consts  --      0.7921                 2.7341                 1.1529
 IR Inten    --      0.0001                27.9508                 0.3146

                     13                     14                     15
                      A                      A                      A
 Frequencies --   1250.9373              1409.4394              1409.5028
 Red. masses --      1.1615                 1.3655                 1.2409
 Frc consts  --      1.0709                 1.5982                 1.4525
 IR Inten    --     10.1366                39.3136                10.0414

                     16                     17                     18
                      A                      A                      A
 Frequencies --   1630.5848              1700.7357              3602.2399
 Red. masses --      4.6362                 5.7169                 1.0744
 Frc consts  --      7.2627                 9.7428                 8.2142
 IR Inten    --     76.6192                 0.6015                71.8743

                     19                     20                     21
                      A                      A                      A
 Frequencies --   3610.9247              3656.0570              3662.0168
 Red. masses --      1.0780                 1.0789                 1.0838
 Frc consts  --      8.2814                 8.4971                 8.5632
 IR Inten    --    131.1791               148.2297                19.7028

 - Thermochemistry -
 -------------------
 Temperature   298.150 Kelvin.  Pressure   1.00000 Atm.
 Atom     1 has atomic number  6 and mass  12.00000

 Molecular mass:    68.02621 amu.
 Principal axes and moments of inertia in atomic units:
                           1         2         3
     Eigenvalues --   193.42341 206.95446 400.37786
           X            1.00000   0.00125   0.00001
           Y           -0.00125   1.00000   0.00002
           Z           -0.00001  -0.00002   1.00000
 This molecule is an asymmetric top.
 Rotational symmetry number  1.
 Rotational temperatures (Kelvin)      0.44779     0.41852     0.21633
 Rotational constants (GHZ):           9.33052     8.72048     4.50759
 Zero-point vibrational energy     195792.9 (Joules/Mol)
                                   46.79563 (Kcal/Mol)
 Warning -- explicit consideration of   2 degrees of freedom as
           vibrations may cause significant error
 Vibrational temperatures:    774.61   831.63  1126.55  1152.51  1306.81
          (Kelvin)           1333.64  1354.18  1422.42  1432.44  1484.27
                             1525.54  1796.44  1799.82  2027.87  2027.96
                             2346.04  2446.98  5182.81  5195.31  5260.24
                             5268.82

 Zero-point correction=                           0.074574 (Hartree/Particle)
 Thermal correction to Energy=                    0.078269
 Thermal correction to Enthalpy=                  0.079213
 Thermal correction to Gibbs Free Energy=         0.048243
 Sum of electronic and zero-point Energies=              0.538512
 Sum of electronic and thermal Energies=                 0.542208
 Sum of electronic and thermal Enthalpies=               0.543152
 Sum of electronic and thermal Free Energies=            0.512181

                     E (Thermal)             CV                S
                      KCal/Mol        Cal/Mol-Kelvin    Cal/Mol-Kelvin
 Total                   49.115             13.002             65.183
 Electronic               0.000              0.000              0.000
 Translational            0.889              2.981             38.570
 Rotational               0.889              2.981             24.287
 Vibrational             47.337              7.041              2.327
 Vibration     1          0.893              1.165              0.569
 Vibration     2          0.935              1.079              0.489

 Optimization completed.
    -- Stationary point found.
 Normal termination of Gaussian 09 at Mon Dec 28 17:52:08 2015.
