 Gaussian 09, Revision D.01,
 Gaussian 09:  ES64L-G09RevD.01 24-Apr-2013

 -----------------------
 #P AM1(Input,print) Opt
 -----------------------

 -----------------
 AM1-Reparam Input
 -----------------
 Symbolic Z-matrix:
 Charge =  0 Multiplicity = 1

 SCF Done:  E(RAM1) =  -2.20912433012     A.U. after   13 cycles
 SCF Done:  E(RAM1) =  -2.22154728820     A.U. after   12 cycles
 SCF Done:  E(RAM1) =  -2.22257255724     A.U. after   12 cycles
 SCF Done:  E(RAM1) =  -2.22238175531     A.U. after   12 cycles
 SCF Done:  E(RAM1) =  -2.22269759968     A.U. after    8 cycles
 SCF Done:  E(RAM1) =  -2.22273661499     A.U. after   11 cycles
 SCF Done:  E(RAM1) =  -2.22275951763     A.U. after   11 cycles
 SCF Done:  E(RAM1) =  -2.22276464047     A.U. after   10 cycles
 SCF Done:  E(RAM1) =  -2.22276998009     A.U. after   10 cycles
 Optimization completed.
    -- Stationary point found.

                         Standard orientation:
 ---------------------------------------------------------------------
 Center     Atomic      Atomic             Coordinates (Angstroms)
 Number     Number       Type             X           Y           Z
 ---------------------------------------------------------------------
      1          6           0        0.705050    0.963743   -0.000069
      2          6           0        1.099829   -0.349435   -0.000041
      3          8           0       -0.000057   -1.187467   -0.000012
      4          6           0       -1.099913   -0.349259    0.000021
      5          6           0       -0.704879    0.963805   -0.000040
      6          1           0       -1.326441    1.845321    0.000173
      7          1           0       -2.090019   -0.781949    0.000119
      8          1           0        2.089949   -0.782150    0.000315
      9          1           0        1.326441    1.845386    0.000266
 ---------------------------------------------------------------------

 The electronic state is 1-A.
 Alpha  occ. eigenvalues --   -1.54127  -1.12516  -1.09746  -0.86224  -0.82770
 Alpha  occ. eigenvalues --   -0.79445  -0.73518  -0.49101  -0.44005  -0.42800
 Alpha  occ. eigenvalues --   -0.42642  -0.39760  -0.32877
 Alpha virt. eigenvalues --    0.17407   0.19058   0.26819   0.29319   0.30759
 Alpha virt. eigenvalues --    0.32543   0.34396   0.36015   0.40431   0.41779
 Alpha virt. eigenvalues --    0.44845

 Mulliken charges:
               1
     1  C   -0.292624
     2  C   -0.051984
     3  O    0.109243
     4  C   -0.052157
     5  C   -0.292440
     6  H    0.150886
     7  H    0.139092
     8  H    0.139069
     9  H    0.150916
 Sum of Mulliken charges =   0.00000

 Dipole moment (field-independent basis, Debye):
    X=             -0.0001    Y=             -0.9443    Z=              0.0009  Tot=              0.9443
 N-N= 1.012037885804D+02 E-N=-1.696868364624D+02  KE=-1.817565399252D+01
 Leave Link  601 at Mon Nov 23 13:23:33 2015, MaxMem=    33554432 cpu:         0.0
 (Enter /home/Applications/g09/g09/l9999.exe)
 1\1\GINC-DUSTIN-DESKTOP\FOpt\RAM1\ZDO\C4H4O1\DUSTIN\23-Nov-2015\0\\#P
 AM1(Input,print) Opt\\AM1-Reparam Input\\0,1\C,0.9319275703,-0.6947517
 846,-0.0101150239\C,-0.3821656689,-1.0859709563,0.0096724377\O,-1.2172
 123313,0.0161666702,0.0157498424\C,-0.37617942,1.113737669,-0.00094623
 43\C,0.9357137297,0.7151548382,-0.0169315242\H,1.8187896512,1.33432254
 51,-0.0317138136\H,-0.8062121492,2.1049996263,0.0002255134\H,-0.817449
 1507,-2.0749029784,0.0207151379\H,1.811849769,-1.3185186294,-0.0187443

 Normal termination of Gaussian 09 at Mon Nov 23 13:23:33 2015.
