 Gaussian 09, Revision D.01,
 Gaussian 09:  ES64L-G09RevD.01 24-Apr-2013

 -----------------------
 #P AM1(Input,print) Opt
 -----------------------

 -----------------
 AM1-Reparam Input
 -----------------
 Symbolic Z-matrix:
 Charge =  0 Multiplicity = 1

 SCF Done:  E(RAM1) =  -2.19241035018     A.U. after   13 cycles
 SCF Done:  E(RAM1) =  -2.21896613916     A.U. after   13 cycles
 SCF Done:  E(RAM1) =  -2.22133943697     A.U. after   12 cycles
 SCF Done:  E(RAM1) =  -2.22048660211     A.U. after   13 cycles
 SCF Done:  E(RAM1) =  -2.22241570193     A.U. after   10 cycles
 SCF Done:  E(RAM1) =  -2.22267834265     A.U. after   12 cycles
 SCF Done:  E(RAM1) =  -2.22257368790     A.U. after   12 cycles
 SCF Done:  E(RAM1) =  -2.22274943637     A.U. after    8 cycles
 SCF Done:  E(RAM1) =  -2.22276409544     A.U. after   11 cycles
 SCF Done:  E(RAM1) =  -2.22276971214     A.U. after   10 cycles
 SCF Done:  E(RAM1) =  -2.22276993720     A.U. after   10 cycles
 Optimization completed.
    -- Stationary point found.

                         Standard orientation:
 ---------------------------------------------------------------------
 Center     Atomic      Atomic             Coordinates (Angstroms)
 Number     Number       Type             X           Y           Z
 ---------------------------------------------------------------------
      1          6           0        0.704934    0.963869    0.000100
      2          6           0        1.099916   -0.349265    0.000034
      3          8           0        0.000079   -1.187523    0.000109
      4          6           0       -1.099880   -0.349386   -0.000092
      5          6           0       -0.705037    0.963742    0.000052
      6          1           0       -1.326676    1.845255   -0.000121
      7          1           0       -2.089899   -0.782300   -0.000318
      8          1           0        2.090027   -0.782074   -0.000703
      9          1           0        1.326318    1.845540   -0.000293
 ---------------------------------------------------------------------

 The electronic state is 1-A.
 Alpha  occ. eigenvalues --   -1.54120  -1.12512  -1.09744  -0.86223  -0.82766
 Alpha  occ. eigenvalues --   -0.79443  -0.73517  -0.49100  -0.44006  -0.42801
 Alpha  occ. eigenvalues --   -0.42646  -0.39761  -0.32877
 Alpha virt. eigenvalues --    0.17405   0.19057   0.26820   0.29318   0.30758
 Alpha virt. eigenvalues --    0.32541   0.34395   0.36013   0.40429   0.41779
 Alpha virt. eigenvalues --    0.44843

 Mulliken charges:
               1
     1  C   -0.292551
     2  C   -0.052008
     3  O    0.109151
     4  C   -0.052076
     5  C   -0.292468
     6  H    0.150893
     7  H    0.139081
     8  H    0.139068
     9  H    0.150910
 Sum of Mulliken charges =   0.00000

 Dipole moment (field-independent basis, Debye):
    X=              0.0000    Y=             -0.9440    Z=             -0.0013  Tot=              0.9440
 N-N= 1.012022489056D+02 E-N=-1.696842877448D+02  KE=-1.817542524600D+01
 Leave Link  601 at Mon Nov 23 13:23:31 2015, MaxMem=    33554432 cpu:         0.0
 (Enter /home/Applications/g09/g09/l9999.exe)
 1\1\GINC-DUSTIN-DESKTOP\FOpt\RAM1\ZDO\C4H4O1\DUSTIN\23-Nov-2015\0\\#P
 AM1(Input,print) Opt\\AM1-Reparam Input\\0,1\C,0.9425495753,-0.7068212
 397,-0.0047002768\C,-0.3729470305,-1.0937488398,0.0047328691\O,-1.2044
 127469,0.0112025707,0.0127330682\C,-0.3595661438,1.1060042606,0.007637
 2801\C,0.9510769272,0.7031232571,-0.0028050604\H,1.836361913,1.3193490
 07,-0.0088632503\H,-0.7863837672,2.0986565955,0.0120859723\H,-0.811817
 603,-2.0811872419,0.0059419619\H,1.8203608759,-1.3335943694,-0.0126915

 Normal termination of Gaussian 09 at Mon Nov 23 13:23:31 2015.
