 Gaussian 09, Revision D.01,
 Gaussian 09:  ES64L-G09RevD.01 24-Apr-2013

 -----------------------
 #P AM1(Input,print) Opt
 -----------------------

 -----------------
 AM1-Reparam Input
 -----------------
 Symbolic Z-matrix:
 Charge =  0 Multiplicity = 1

 SCF Done:  E(RAM1) =  -2.19871514432     A.U. after   13 cycles
 SCF Done:  E(RAM1) =  -2.21968096738     A.U. after   12 cycles
 SCF Done:  E(RAM1) =  -2.22217424900     A.U. after   12 cycles
 SCF Done:  E(RAM1) =  -2.22173014438     A.U. after   12 cycles
 SCF Done:  E(RAM1) =  -2.22257643853     A.U. after   10 cycles
 SCF Done:  E(RAM1) =  -2.22271216722     A.U. after   11 cycles
 SCF Done:  E(RAM1) =  -2.22275593057     A.U. after   11 cycles
 SCF Done:  E(RAM1) =  -2.22276356024     A.U. after   11 cycles
 SCF Done:  E(RAM1) =  -2.22276988109     A.U. after   10 cycles
 Optimization completed.
    -- Stationary point found.

                         Standard orientation:
 ---------------------------------------------------------------------
 Center     Atomic      Atomic             Coordinates (Angstroms)
 Number     Number       Type             X           Y           Z
 ---------------------------------------------------------------------
      1          6           0        0.705600    0.963229   -0.000011
      2          6           0        1.099530   -0.350275   -0.000018
      3          8           0       -0.000960   -1.187414    0.000024
      4          6           0       -1.100105   -0.348488   -0.000038
      5          6           0       -0.704128    0.964327    0.000065
      6          1           0       -1.324912    1.846330   -0.000035
      7          1           0       -2.090469   -0.780366   -0.000092
      8          1           0        2.089357   -0.783540    0.000037
      9          1           0        1.328319    1.844130   -0.000094
 ---------------------------------------------------------------------

 The electronic state is 1-A.
 Alpha  occ. eigenvalues --   -1.54137  -1.12521  -1.09751  -0.86225  -0.82776
 Alpha  occ. eigenvalues --   -0.79445  -0.73519  -0.49102  -0.44009  -0.42794
 Alpha  occ. eigenvalues --   -0.42638  -0.39762  -0.32873
 Alpha virt. eigenvalues --    0.17409   0.19060   0.26821   0.29322   0.30758
 Alpha virt. eigenvalues --    0.32543   0.34397   0.36017   0.40432   0.41781
 Alpha virt. eigenvalues --    0.44848

 Mulliken charges:
               1
     1  C   -0.292453
     2  C   -0.052255
     3  O    0.109433
     4  C   -0.052199
     5  C   -0.292475
     6  H    0.150899
     7  H    0.139095
     8  H    0.139098
     9  H    0.150856
 Sum of Mulliken charges =   0.00000

 Dipole moment (field-independent basis, Debye):
    X=             -0.0005    Y=             -0.9447    Z=             -0.0002  Tot=              0.9447
 N-N= 1.012057256005D+02 E-N=-1.696900233596D+02  KE=-1.817594392229D+01
 Leave Link  601 at Mon Nov 23 13:23:25 2015, MaxMem=    33554432 cpu:         0.0
 (Enter /home/Applications/g09/g09/l9999.exe)
 1\1\GINC-DUSTIN-DESKTOP\FOpt\RAM1\ZDO\C4H4O1\DUSTIN\23-Nov-2015\0\\#P
 AM1(Input,print) Opt\\AM1-Reparam Input\\0,1\C,0.9371119646,-0.6876502
 273,0.0060094845\C,-0.3748746955,-1.0862467874,-0.0109122732\O,-1.2158
 681752,0.0112589179,-0.0203530442\C,-0.3809338551,1.113379744,-0.00879
 83\C,0.9331798735,0.7220718413,0.0074520503\H,1.8128936905,1.345987159
 6,0.0190525939\H,-0.8163079556,2.1022017131,-0.0133399284\H,-0.8045721
 61,-2.077607543,-0.0172614682\H,1.8201603138,-1.3072328183,0.016418885

 Normal termination of Gaussian 09 at Mon Nov 23 13:23:25 2015.
