 Gaussian 09, Revision D.01,
 Gaussian 09:  ES64L-G09RevD.01 24-Apr-2013

 -----------------------
 #P AM1(Input,print) Opt
 -----------------------

 -----------------
 AM1-Reparam Input
 -----------------
 Symbolic Z-matrix:
 Charge =  0 Multiplicity = 1

 SCF Done:  E(RAM1) =  -2.20066471896     A.U. after   13 cycles
 SCF Done:  E(RAM1) =  -2.22157183968     A.U. after   13 cycles
 SCF Done:  E(RAM1) =  -2.22204514155     A.U. after   12 cycles
 SCF Done:  E(RAM1) =  -2.22242688444     A.U. after   12 cycles
 SCF Done:  E(RAM1) =  -2.22275750950     A.U. after   11 cycles
 SCF Done:  E(RAM1) =  -2.22272467784     A.U. after   11 cycles
 SCF Done:  E(RAM1) =  -2.22276975535     A.U. after   10 cycles
 Optimization completed.
    -- Stationary point found.

                         Standard orientation:
 ---------------------------------------------------------------------
 Center     Atomic      Atomic             Coordinates (Angstroms)
 Number     Number       Type             X           Y           Z
 ---------------------------------------------------------------------
      1          6           0        0.706305    0.962844    0.000134
      2          6           0        1.099522   -0.350883    0.000002
      3          8           0       -0.001709   -1.187368    0.000141
      4          6           0       -1.100366   -0.347927   -0.000197
      5          6           0       -0.703615    0.964830   -0.000004
      6          1           0       -1.324204    1.846886    0.000244
      7          1           0       -2.091307   -0.779348   -0.000044
      8          1           0        2.088922   -0.785039   -0.000544
      9          1           0        1.329190    1.843255   -0.000395
 ---------------------------------------------------------------------

 The electronic state is 1-A.
 Alpha  occ. eigenvalues --   -1.54124  -1.12518  -1.09745  -0.86225  -0.82771
 Alpha  occ. eigenvalues --   -0.79440  -0.73519  -0.49106  -0.44012  -0.42799
 Alpha  occ. eigenvalues --   -0.42636  -0.39760  -0.32875
 Alpha virt. eigenvalues --    0.17406   0.19056   0.26816   0.29316   0.30759
 Alpha virt. eigenvalues --    0.32547   0.34396   0.36015   0.40430   0.41778
 Alpha virt. eigenvalues --    0.44848

 Mulliken charges:
               1
     1  C   -0.292259
     2  C   -0.052408
     3  O    0.109363
     4  C   -0.051967
     5  C   -0.292743
     6  H    0.150924
     7  H    0.139062
     8  H    0.139145
     9  H    0.150883
 Sum of Mulliken charges =   0.00000

 Dipole moment (field-independent basis, Debye):
    X=             -0.0019    Y=             -0.9452    Z=             -0.0006  Tot=              0.9452
 N-N= 1.012028410109D+02 E-N=-1.696850884963D+02  KE=-1.817556797049D+01
 Leave Link  601 at Mon Nov 23 13:23:26 2015, MaxMem=    33554432 cpu:         0.0
 (Enter /home/Applications/g09/g09/l9999.exe)
 1\1\GINC-DUSTIN-DESKTOP\FOpt\RAM1\ZDO\C4H4O1\DUSTIN\23-Nov-2015\0\\#P
 AM1(Input,print) Opt\\AM1-Reparam Input\\0,1\C,0.9361091346,-0.7139166
 369,0.0176095875\C,-0.3787199125,-1.103431354,0.0158765624\O,-1.212074
 8378,0.0001155761,0.0049875133\C,-0.3695272853,1.0963770503,-0.0006013
 173\C,0.9420920295,0.6959528416,0.0070391169\H,1.8258969202,1.31404619
 26,0.0057217233\H,-0.7981352836,2.0885000212,-0.0092687138\H,-0.815674
 1174,-2.0915851607,0.0211646499\H,1.8147473523,-1.3392595302,0.0247178

 Normal termination of Gaussian 09 at Mon Nov 23 13:23:26 2015.
