 Gaussian 09, Revision D.01,
 Gaussian 09:  ES64L-G09RevD.01 24-Apr-2013

 -----------------------
 #P AM1(Input,print) Opt
 -----------------------

 -----------------
 AM1-Reparam Input
 -----------------
 Symbolic Z-matrix:
 Charge =  0 Multiplicity = 1

 SCF Done:  E(RAM1) =  -2.19443363661     A.U. after   13 cycles
 SCF Done:  E(RAM1) =  -2.22059009811     A.U. after   13 cycles
 SCF Done:  E(RAM1) =  -2.22245494976     A.U. after   12 cycles
 SCF Done:  E(RAM1) =  -2.22271063098     A.U. after   11 cycles
 SCF Done:  E(RAM1) =  -2.22264842031     A.U. after   12 cycles
 SCF Done:  E(RAM1) =  -2.22276899850     A.U. after   11 cycles
 Optimization completed.
    -- Stationary point found.

                         Standard orientation:
 ---------------------------------------------------------------------
 Center     Atomic      Atomic             Coordinates (Angstroms)
 Number     Number       Type             X           Y           Z
 ---------------------------------------------------------------------
      1          6           0        0.706284    0.962966   -0.000013
      2          6           0        1.099377   -0.350803    0.000241
      3          8           0       -0.001440   -1.187457   -0.000218
      4          6           0       -1.100283   -0.347778    0.000140
      5          6           0       -0.704050    0.964459   -0.000035
      6          1           0       -1.323331    1.847555    0.000447
      7          1           0       -2.090234   -0.780970   -0.000148
      8          1           0        2.089250   -0.784465    0.000344
      9          1           0        1.327875    1.844480   -0.000904
 ---------------------------------------------------------------------

 The electronic state is 1-A.
 Alpha  occ. eigenvalues --   -1.54128  -1.12519  -1.09746  -0.86215  -0.82771
 Alpha  occ. eigenvalues --   -0.79449  -0.73514  -0.49094  -0.43991  -0.42813
 Alpha  occ. eigenvalues --   -0.42649  -0.39755  -0.32883
 Alpha virt. eigenvalues --    0.17412   0.19055   0.26823   0.29314   0.30765
 Alpha virt. eigenvalues --    0.32538   0.34392   0.36014   0.40432   0.41777
 Alpha virt. eigenvalues --    0.44845

 Mulliken charges:
               1
     1  C   -0.293082
     2  C   -0.051628
     3  O    0.109012
     4  C   -0.051794
     5  C   -0.292435
     6  H    0.150936
     7  H    0.139010
     8  H    0.139014
     9  H    0.150967
 Sum of Mulliken charges =   0.00000

 Dipole moment (field-independent basis, Debye):
    X=             -0.0009    Y=             -0.9445    Z=             -0.0005  Tot=              0.9445
 N-N= 1.012035026800D+02 E-N=-1.696864220700D+02  KE=-1.817559103782D+01
 Leave Link  601 at Mon Nov 23 13:23:27 2015, MaxMem=    33554432 cpu:         0.0
 (Enter /home/Applications/g09/g09/l9999.exe)
 1\1\GINC-DUSTIN-DESKTOP\FOpt\RAM1\ZDO\C4H4O1\DUSTIN\23-Nov-2015\0\\#P
 AM1(Input,print) Opt\\AM1-Reparam Input\\0,1\C,0.9391746934,-0.7034540
 872,-0.002505148\C,-0.3745306285,-1.0965413975,0.0105698521\O,-1.21123
 73546,0.00423181,0.0075998334\C,-0.3716499002,1.1030492364,-0.00693438
 44\C,0.9405755769,0.7068356048,-0.0136814313\H,1.8236109634,1.32610665
 03,-0.0246229855\H,-0.8048962737,2.092964148,-0.0118399834\H,-0.808115
 8675,-2.0863856729,0.0217003813\H,1.8206987907,-1.3250272919,-0.005003

 Normal termination of Gaussian 09 at Mon Nov 23 13:23:27 2015.
