 Gaussian 09, Revision D.01,
 Gaussian 09:  ES64L-G09RevD.01 24-Apr-2013

 -----------------------
 #P AM1(Input,print) Opt
 -----------------------

 -----------------
 AM1-Reparam Input
 -----------------
 Symbolic Z-matrix:
 Charge =  0 Multiplicity = 1

 SCF Done:  E(RAM1) =  -2.21221415069     A.U. after   13 cycles
 SCF Done:  E(RAM1) =  -2.22107511972     A.U. after   13 cycles
 SCF Done:  E(RAM1) =  -2.22055902825     A.U. after   13 cycles
 SCF Done:  E(RAM1) =  -2.22231835508     A.U. after   10 cycles
 SCF Done:  E(RAM1) =  -2.22265380034     A.U. after   12 cycles
 SCF Done:  E(RAM1) =  -2.22259934936     A.U. after   12 cycles
 SCF Done:  E(RAM1) =  -2.22273808629     A.U. after    8 cycles
 SCF Done:  E(RAM1) =  -2.22276516695     A.U. after   10 cycles
 SCF Done:  E(RAM1) =  -2.22276966930     A.U. after   10 cycles
 SCF Done:  E(RAM1) =  -2.22276996351     A.U. after    9 cycles
 Optimization completed.
    -- Stationary point found.

                         Standard orientation:
 ---------------------------------------------------------------------
 Center     Atomic      Atomic             Coordinates (Angstroms)
 Number     Number       Type             X           Y           Z
 ---------------------------------------------------------------------
      1          6           0       -0.705131    0.963631   -0.000095
      2          6           0       -1.099844   -0.349452   -0.000014
      3          8           0        0.000195   -1.187485   -0.000003
      4          6           0        1.099945   -0.349130   -0.000072
      5          6           0        0.704835    0.963868   -0.000054
      6          1           0        1.326010    1.845679    0.000444
      7          1           0        2.090123   -0.781854    0.000363
      8          1           0       -2.089792   -0.782589    0.000396
      9          1           0       -1.326735    1.845145    0.000231
 ---------------------------------------------------------------------

 The electronic state is 1-A.
 Alpha  occ. eigenvalues --   -1.54124  -1.12514  -1.09745  -0.86224  -0.82767
 Alpha  occ. eigenvalues --   -0.79444  -0.73517  -0.49099  -0.44004  -0.42802
 Alpha  occ. eigenvalues --   -0.42645  -0.39760  -0.32879
 Alpha virt. eigenvalues --    0.17407   0.19058   0.26820   0.29317   0.30758
 Alpha virt. eigenvalues --    0.32542   0.34395   0.36014   0.40430   0.41779
 Alpha virt. eigenvalues --    0.44844

 Mulliken charges:
               1
     1  C   -0.292499
     2  C   -0.052015
     3  O    0.109106
     4  C   -0.051953
     5  C   -0.292577
     6  H    0.150910
     7  H    0.139060
     8  H    0.139069
     9  H    0.150898
 Sum of Mulliken charges =   0.00000

 Dipole moment (field-independent basis, Debye):
    X=              0.0001    Y=             -0.9439    Z=              0.0015  Tot=              0.9439
 N-N= 1.012033810534D+02 E-N=-1.696863070402D+02  KE=-1.817554964305D+01
 Leave Link  601 at Mon Nov 23 13:23:29 2015, MaxMem=    33554432 cpu:         0.0
 (Enter /home/Applications/g09/g09/l9999.exe)
 1\1\GINC-DUSTIN-DESKTOP\FOpt\RAM1\ZDO\C4H4O1\DUSTIN\23-Nov-2015\0\\#P
 AM1(Input,print) Opt\\AM1-Reparam Input\\0,1\C,0.9637822514,-0.6819438
 008,-0.0009692521\C,-0.3464961589,-1.0858476113,0.0033212743\O,-1.1922
 30511,0.0082707784,-0.0014128488\C,-0.361617882,1.1138554073,-0.008844
 3247\C,0.9541199067,0.7279678723,-0.0088443777\H,1.8315455783,1.355297
 5903,-0.0142569529\H,-0.8012830583,2.1009566755,-0.0140642689\H,-0.772
 6714888,-2.0787956544,0.0091296161\H,1.8496373626,-1.2973432572,0.0006

 Normal termination of Gaussian 09 at Mon Nov 23 13:23:29 2015.
