 Gaussian 09, Revision D.01,
 Gaussian 09:  ES64L-G09RevD.01 24-Apr-2013

 -----------------------
 #P AM1(Input,print) Opt
 -----------------------

 -----------------
 AM1-Reparam Input
 -----------------
 Symbolic Z-matrix:
 Charge =  0 Multiplicity = 1

 SCF Done:  E(RAM1) =  -2.19886358676     A.U. after   13 cycles
 SCF Done:  E(RAM1) =  -2.21930463772     A.U. after   12 cycles
 SCF Done:  E(RAM1) =  -2.22244142221     A.U. after   12 cycles
 SCF Done:  E(RAM1) =  -2.22270230913     A.U. after   11 cycles
 SCF Done:  E(RAM1) =  -2.22266042949     A.U. after   12 cycles
 SCF Done:  E(RAM1) =  -2.22276892417     A.U. after   11 cycles
 SCF Done:  E(RAM1) =  -2.22276883984     A.U. after   10 cycles
 SCF Done:  E(RAM1) =  -2.22276995943     A.U. after   10 cycles
 Optimization completed.
    -- Stationary point found.

                         Standard orientation:
 ---------------------------------------------------------------------
 Center     Atomic      Atomic             Coordinates (Angstroms)
 Number     Number       Type             X           Y           Z
 ---------------------------------------------------------------------
      1          6           0        0.706847    0.962463    0.000046
      2          6           0        1.099299   -0.351292   -0.000067
      3          8           0       -0.002225   -1.187426    0.000103
      4          6           0       -1.100630   -0.347285   -0.000023
      5          6           0       -0.703185    0.964963    0.000097
      6          1           0       -1.323054    1.847718   -0.000180
      7          1           0       -2.091584   -0.778167   -0.000510
      8          1           0        2.088565   -0.786150   -0.000271
      9          1           0        1.329895    1.842910   -0.000173
 ---------------------------------------------------------------------

 The electronic state is 1-A.
 Alpha  occ. eigenvalues --   -1.54121  -1.12514  -1.09741  -0.86225  -0.82766
 Alpha  occ. eigenvalues --   -0.79442  -0.73517  -0.49101  -0.44004  -0.42804
 Alpha  occ. eigenvalues --   -0.42641  -0.39758  -0.32880
 Alpha virt. eigenvalues --    0.17407   0.19058   0.26818   0.29316   0.30758
 Alpha virt. eigenvalues --    0.32543   0.34395   0.36014   0.40430   0.41778
 Alpha virt. eigenvalues --    0.44845

 Mulliken charges:
               1
     1  C   -0.292578
     2  C   -0.051925
     3  O    0.109065
     4  C   -0.051996
     5  C   -0.292524
     6  H    0.150880
     7  H    0.139094
     8  H    0.139063
     9  H    0.150920
 Sum of Mulliken charges =   0.00000

 Dipole moment (field-independent basis, Debye):
    X=             -0.0019    Y=             -0.9439    Z=             -0.0010  Tot=              0.9439
 N-N= 1.012029020041D+02 E-N=-1.696855738126D+02  KE=-1.817546306409D+01
 Leave Link  601 at Mon Nov 23 13:23:34 2015, MaxMem=    33554432 cpu:         0.0
 (Enter /home/Applications/g09/g09/l9999.exe)
 1\1\GINC-DUSTIN-DESKTOP\FOpt\RAM1\ZDO\C4H4O1\DUSTIN\23-Nov-2015\0\\#P
 AM1(Input,print) Opt\\AM1-Reparam Input\\0,1\C,0.9453990901,-0.6971069
 857,-0.0058921034\C,-0.3659658533,-1.0974092821,-0.0130352753\O,-1.208
 7089204,-0.0009585264,-0.0056428783\C,-0.3751947177,1.1024207788,0.006
 0625352\C,0.9394161027,0.7128610931,0.0063713231\H,1.818422299,1.33798
 76655,0.0139010959\H,-0.8120278046,2.090742194,0.01296215\H,-0.7948618
 036,-2.0892247848,-0.0230046311\H,1.8295766078,-1.3148421524,-0.009069

 Normal termination of Gaussian 09 at Mon Nov 23 13:23:34 2015.
