 Gaussian 09, Revision D.01,
 Gaussian 09:  ES64L-G09RevD.01 24-Apr-2013

 -------------------------------------------------------
 #P B3LYP/3-21G CIS(Singlets,NStates=15) pop(full) force
 -------------------------------------------------------

 --------
 FuranDFT
 --------
 Symbolic Z-matrix:
 Charge =  0 Multiplicity = 1

                         Standard orientation:
 ---------------------------------------------------------------------
 Center     Atomic      Atomic             Coordinates (Angstroms)
 Number     Number       Type             X           Y           Z
 ---------------------------------------------------------------------
      1          6           0        0.000000    0.715963   -0.955475
      2          6           0        0.000000    1.092818    0.345627
      3          8           0        0.000000    0.000000    1.157305
      4          6           0        0.000000   -1.092818    0.345627
      5          6           0        0.000000   -0.715963   -0.955475
      6          1           0        0.000000   -1.369382   -1.810438
      7          1           0        0.000000   -2.046884    0.840307
      8          1           0        0.000000    2.046884    0.840307
      9          1           0        0.000000    1.369382   -1.810438
 ---------------------------------------------------------------------

 SCF Done:  E(RB3LYP) =  -228.750961372     A.U. after   13 cycles

 Excitation energies and oscillator strengths:

 Excited State   1:      Singlet-A1     7.3081 eV  169.65 nm  f=0.0006  <S**2>=0.000
      17 -> 19         0.51539
      18 -> 20        -0.47478
 This state for optimization and/or second-order correction.
 Total Energy, E(CIS) =  -228.482392388
 Copying the excited state density for this state as the 1-particle RhoCI density.

 Excited State   2:      Singlet-B2     7.3466 eV  168.76 nm  f=0.2272  <S**2>=0.000
      18 -> 19         0.68441

 Excited State   3:      Singlet-A2     8.7178 eV  142.22 nm  f=0.0000  <S**2>=0.000
      18 -> 21         0.69319
      18 -> 22        -0.11735

 Excited State   4:      Singlet-B1     8.8880 eV  139.50 nm  f=0.0047  <S**2>=0.000
      16 -> 19         0.70200

 Excited State   5:      Singlet-A2     9.4210 eV  131.60 nm  f=0.0000  <S**2>=0.000
      18 -> 21         0.11605
      18 -> 22         0.68822

 Excited State   6:      Singlet-B2     9.6310 eV  128.73 nm  f=0.1631  <S**2>=0.000
      17 -> 20         0.68280

 Excited State   7:      Singlet-B1     9.6991 eV  127.83 nm  f=0.0004  <S**2>=0.000
      15 -> 19         0.12225
      17 -> 21         0.27526
      18 -> 23         0.62303
      18 -> 24         0.10604

 Excited State   8:      Singlet-A1     9.8316 eV  126.11 nm  f=0.5872  <S**2>=0.000
      17 -> 19         0.44039
      18 -> 20         0.49001

 Excited State   9:      Singlet-B1     9.9689 eV  124.37 nm  f=0.0010  <S**2>=0.000
      15 -> 19        -0.19913
      17 -> 21         0.61945
      18 -> 23        -0.24226

 Excited State  10:      Singlet-B1    10.1231 eV  122.48 nm  f=0.0007  <S**2>=0.000
      15 -> 19         0.65925
      17 -> 21         0.14300
      18 -> 23        -0.17821

 Excited State  11:      Singlet-A2    10.3679 eV  119.58 nm  f=0.0000  <S**2>=0.000
      14 -> 19         0.56434
      16 -> 20        -0.41326

 Excited State  12:      Singlet-B1    10.4668 eV  118.45 nm  f=0.0001  <S**2>=0.000
      18 -> 24         0.68712

 Excited State  13:      Singlet-B1    10.5914 eV  117.06 nm  f=0.0007  <S**2>=0.000
      17 -> 21         0.10108
      17 -> 22         0.69215

 Excited State  14:      Singlet-A2    10.8013 eV  114.79 nm  f=0.0000  <S**2>=0.000
      13 -> 19         0.13546
      14 -> 19         0.39745
      16 -> 20         0.55588

 Excited State  15:      Singlet-A2    11.0986 eV  111.71 nm  f=0.0000  <S**2>=0.000
      17 -> 23         0.67315
      17 -> 24         0.13910
      17 -> 25        -0.12429

 The electronic state is 1-A1.
 Alpha  occ. eigenvalues --  -19.11289 -10.17422 -10.17379 -10.12485 -10.12365
 Alpha  occ. eigenvalues --   -1.12917  -0.80598  -0.75025  -0.60321  -0.57105
 Alpha  occ. eigenvalues --   -0.54320  -0.44915  -0.44690  -0.41879  -0.40274
 Alpha  occ. eigenvalues --   -0.36278  -0.27802  -0.23297
 Alpha virt. eigenvalues --    0.02282   0.08209   0.13407   0.15454   0.17347
 Alpha virt. eigenvalues --    0.19035   0.22209   0.22794   0.35710   0.42134
 Alpha virt. eigenvalues --    0.47366   0.68723   0.69995   0.70651   0.74833

 Mulliken charges:
               1
     1  C   -0.253631
     2  C    0.091931
     3  O   -0.487744
     4  C    0.091931
     5  C   -0.253631
     6  H    0.188382
     7  H    0.217190
     8  H    0.217190
     9  H    0.188382
 Sum of Mulliken charges =   0.00000

 Dipole moment (field-independent basis, Debye):
    X=              0.0000    Y=              0.0000    Z=             -0.7055  Tot=              0.7055
 Quadrupole moment (field-independent basis, Debye-Ang):
   XX=            -31.7706   YY=            -23.5958   ZZ=            -28.0866
   XY=              0.0000   XZ=              0.0000   YZ=              0.0000

 Normal termination of Gaussian 09 at Sun Oct 18 13:38:09 2015.
