 Gaussian 09, Revision D.01,
 Gaussian 09:  ES64L-G09RevD.01 24-Apr-2013

 -----------------------
 #P AM1(Input,print) Opt
 -----------------------

 -----------------
 AM1-Reparam Input
 -----------------
 Symbolic Z-matrix:
 Charge =  0 Multiplicity = 1

 SCF Done:  E(RAM1) =  -2.20804759135     A.U. after   13 cycles
 SCF Done:  E(RAM1) =  -2.22063218570     A.U. after   12 cycles
 SCF Done:  E(RAM1) =  -2.22191421409     A.U. after   12 cycles
 SCF Done:  E(RAM1) =  -2.22225694882     A.U. after   12 cycles
 SCF Done:  E(RAM1) =  -2.22274692175     A.U. after   11 cycles
 SCF Done:  E(RAM1) =  -2.22273305985     A.U. after   10 cycles
 SCF Done:  E(RAM1) =  -2.22276979691     A.U. after   10 cycles
 Optimization completed.
    -- Stationary point found.

                         Standard orientation:
 ---------------------------------------------------------------------
 Center     Atomic      Atomic             Coordinates (Angstroms)
 Number     Number       Type             X           Y           Z
 ---------------------------------------------------------------------
      1          6           0        0.697575    0.968816    0.000031
      2          6           0        1.102666   -0.340963    0.000038
      3          8           0        0.009142   -1.187346    0.000036
      4          6           0       -1.097225   -0.357652   -0.000045
      5          6           0       -0.712456    0.958459    0.000109
      6          1           0       -1.340396    1.835550   -0.000278
      7          1           0       -2.084029   -0.797684   -0.000223
      8          1           0        2.095792   -0.766321   -0.000359
      9          1           0        1.312130    1.855269   -0.000229
 ---------------------------------------------------------------------

 The electronic state is 1-A.
 Alpha  occ. eigenvalues --   -1.54125  -1.12519  -1.09741  -0.86223  -0.82768
 Alpha  occ. eigenvalues --   -0.79445  -0.73520  -0.49104  -0.44001  -0.42805
 Alpha  occ. eigenvalues --   -0.42638  -0.39757  -0.32881
 Alpha virt. eigenvalues --    0.17408   0.19058   0.26820   0.29321   0.30759
 Alpha virt. eigenvalues --    0.32541   0.34395   0.36015   0.40432   0.41778
 Alpha virt. eigenvalues --    0.44847

 Mulliken charges:
               1
     1  C   -0.292459
     2  C   -0.052021
     3  O    0.109108
     4  C   -0.051918
     5  C   -0.292707
     6  H    0.150938
     7  H    0.139078
     8  H    0.139130
     9  H    0.150852
 Sum of Mulliken charges =   0.00000

 Dipole moment (field-independent basis, Debye):
    X=              0.0077    Y=             -0.9438    Z=             -0.0011  Tot=              0.9438
 N-N= 1.012039881930D+02 E-N=-1.696873509841D+02  KE=-1.817563603914D+01
 Leave Link  601 at Mon Nov 23 13:23:28 2015, MaxMem=    33554432 cpu:         0.0
 (Enter /home/Applications/g09/g09/l9999.exe)
 1\1\GINC-DUSTIN-DESKTOP\FOpt\RAM1\ZDO\C4H4O1\DUSTIN\23-Nov-2015\0\\#P
 AM1(Input,print) Opt\\AM1-Reparam Input\\0,1\C,0.9349971128,-0.6962018
 231,-0.0093957394\C,-0.3766622025,-1.0951488422,-0.0125820515\O,-1.217
 9167139,0.0023213883,-0.0096241235\C,-0.3830537726,1.1047812902,-0.004
 5336415\C,0.9312407431,0.7138526478,-0.0041055832\H,1.8112612365,1.337
 6730225,-0.001032328\H,-0.8184610855,2.0936309194,-0.0016232425\H,-0.8
 066634777,-2.0862627771,-0.0172088193\H,1.8185641599,-1.3148988258,-0.

 Normal termination of Gaussian 09 at Mon Nov 23 13:23:28 2015.
