 Gaussian 09, Revision D.01,
 Gaussian 09:  ES64L-G09RevD.01 24-Apr-2013

 ----------------------------
 #P AM1(Input,print) Opt Freq
 ----------------------------

 -----------------
 AM1-Reparam Input
 -----------------
 Symbolic Z-matrix:
 Charge =  0 Multiplicity = 1

 SCF Done:  E(RAM1) =  -2.28552464278     A.U. after   14 cycles
 SCF Done:  E(RAM1) =  -2.40741894599     A.U. after   13 cycles
 SCF Done:  E(RAM1) =  -2.62110012678     A.U. after   13 cycles
 SCF Done:  E(RAM1) =  -2.71983498716     A.U. after   12 cycles
 SCF Done:  E(RAM1) =  -2.71467325673     A.U. after   12 cycles
 SCF Done:  E(RAM1) =  -2.74745069054     A.U. after   11 cycles
 SCF Done:  E(RAM1) =  -2.74217963100     A.U. after   12 cycles
 SCF Done:  E(RAM1) =  -2.75882410011     A.U. after   10 cycles
 SCF Done:  E(RAM1) =  -2.76605392635     A.U. after   11 cycles
 SCF Done:  E(RAM1) =  -2.76964359896     A.U. after   11 cycles
 SCF Done:  E(RAM1) =  -2.77782567849     A.U. after    8 cycles
 SCF Done:  E(RAM1) =  -2.77831068234     A.U. after   10 cycles
 SCF Done:  E(RAM1) =  -2.77876817259     A.U. after   10 cycles
 SCF Done:  E(RAM1) =  -2.77894053268     A.U. after   10 cycles
 SCF Done:  E(RAM1) =  -2.77897764769     A.U. after   10 cycles
 SCF Done:  E(RAM1) =  -2.77905922552     A.U. after    9 cycles
 SCF Done:  E(RAM1) =  -2.77906609525     A.U. after    9 cycles
 SCF Done:  E(RAM1) =  -2.77906791613     A.U. after    9 cycles
 SCF Done:  E(RAM1) =  -2.77906929888     A.U. after    8 cycles
 Optimization completed.
    -- Stationary point found.
 Normal termination of Gaussian 09 at Sun Dec 27 19:00:00 2015.

 -------------------------------------------------------------
 #P Geom=AllCheck Guess=TCheck SCRF=Check GenChk RAM1/ZDO Freq
 -------------------------------------------------------------

 Structure from the checkpoint file:  "/opt/g09/scratch/Gau-6818.chk"
 -----------------
 AM1-Reparam Input
 -----------------
 Charge =  0 Multiplicity = 1

                         Standard orientation:
 ---------------------------------------------------------------------
 Center     Atomic      Atomic             Coordinates (Angstroms)
 Number     Number       Type             X           Y           Z
 ---------------------------------------------------------------------
      1          6           0        0.734698    0.955693    0.000041
      2          6           0        1.109561   -0.337947    0.000028
      3          8           0        0.000929   -1.169778    0.000147
      4          6           0       -1.109188   -0.339264    0.000003
      5          6           0       -0.736071    0.954574   -0.000155
      6          1           0       -1.348749    1.849027    0.000350
      7          1           0       -2.049267   -0.871972   -0.000411
      8          1           0        2.050728   -0.868451   -0.000821
      9          1           0        1.345847    1.851285    0.000203
 ---------------------------------------------------------------------

 SCF Done:  E(RAM1) =  -2.77906929888     A.U. after    2 cycles

 The electronic state is 1-A.
 Alpha  occ. eigenvalues --   -1.81747  -1.36638  -1.35158  -1.09497  -1.06730
 Alpha  occ. eigenvalues --   -0.97349  -0.88860  -0.75344  -0.72055  -0.71614
 Alpha  occ. eigenvalues --   -0.66700  -0.64859  -0.57795
 Alpha virt. eigenvalues --   -0.10315  -0.07082  -0.03192   0.00174   0.05301
 Alpha virt. eigenvalues --    0.06538   0.07232   0.08110   0.09437   0.10106
 Alpha virt. eigenvalues --    0.12523

 Mulliken charges:
               1
     1  C   -0.503174
     2  C   -0.028802
     3  O   -0.184633
     4  C   -0.029186
     5  C   -0.502814
     6  H    0.338271
     7  H    0.286090
     8  H    0.285959
     9  H    0.338289
 Sum of Mulliken charges =   0.00000

 Dipole moment (field-independent basis, Debye):
    X=             -0.0008    Y=              0.1535    Z=             -0.0004  Tot=              0.1535
 N-N= 1.084509054138D+02 E-N=-1.781475073478D+02  KE=-1.902552703137D+01
  Exact polarizability:  36.881   0.001  39.296  -0.002   0.001   4.215
 Approx polarizability:  28.392  -0.005  37.544  -0.001  -0.002   3.133
 Leave Link  601 at Sun Dec 27 19:00:00 2015, MaxMem=    33554432 cpu:         0.0
 (Enter /opt/g09/g09/l701.exe)
 Compute integral second derivatives.
 ... and contract with generalized density number  0.
 Leave Link  701 at Sun Dec 27 19:00:00 2015, MaxMem=    33554432 cpu:         0.0
 (Enter /opt/g09/g09/l702.exe)
 L702 exits ... SP integral derivatives will be done elsewhere.

                      1                      2                      3
                      A                      A                      A
 Frequencies --    606.7211               623.4069               776.4749
 Red. masses --      3.1279                 2.1432                 7.2995
 Frc consts  --      0.6784                 0.4908                 2.5930
 IR Inten    --     28.6314                 0.0002                10.4712

                      4                      5                      6
                      A                      A                      A
 Frequencies --    789.3406               889.4244              1024.7018
 Red. masses --      7.2603                 7.7683                 1.1678
 Frc consts  --      2.6652                 3.6207                 0.7225
 IR Inten    --      3.5341                 3.2001               256.5220

                      7                      8                      9
                      A                      A                      A
 Frequencies --   1050.3792              1083.0291              1114.9713
 Red. masses --      3.7417                 3.9109                 1.2796
 Frc consts  --      2.4323                 2.7028                 0.9373
 IR Inten    --     89.0713                 0.6062                 0.0037

                     10                     11                     12
                      A                      A                      A
 Frequencies --   1140.7490              1171.8977              1256.6573
 Red. masses --      1.4524                 1.6182                 1.2011
 Frc consts  --      1.1136                 1.3093                 1.1175
 IR Inten    --     11.8186                 0.0013                87.6958

                     13                     14                     15
                      A                      A                      A
 Frequencies --   1268.8792              1398.4259              1404.6570
 Red. masses --      1.1328                 1.6543                 1.2055
 Frc consts  --      1.0746                 1.9061                 1.4014
 IR Inten    --      0.1928                42.6094                10.7320

                     16                     17                     18
                      A                      A                      A
 Frequencies --   1545.8432              1621.5583              3799.3097
 Red. masses --      4.3070                 5.0869                 1.0759
 Frc consts  --      6.0640                 7.8808                 9.1506
 IR Inten    --     17.8594                19.2331               326.8539

                     19                     20                     21
                      A                      A                      A
 Frequencies --   3814.7913              3836.3357              3859.4296
 Red. masses --      1.0764                 1.0787                 1.0820
 Frc consts  --      9.2296                 9.3540                 9.4959
 IR Inten    --   1125.9084               818.6406                 1.2262

 - Thermochemistry -
 -------------------
 Temperature   298.150 Kelvin.  Pressure   1.00000 Atm.
 Atom     1 has atomic number  6 and mass  12.00000

 Molecular mass:    68.02621 amu.
 Principal axes and moments of inertia in atomic units:
                           1         2         3
     Eigenvalues --   195.14304 196.06747 391.21050
           X           -0.01369   0.99991  -0.00002
           Y            0.99991   0.01369   0.00004
           Z           -0.00004   0.00002   1.00000
 This molecule is an asymmetric top.
 Rotational symmetry number  1.
 Rotational temperatures (Kelvin)      0.44385     0.44176     0.22140
 Rotational constants (GHZ):           9.24830     9.20469     4.61322
 Zero-point vibrational energy     203825.6 (Joules/Mol)
                                   48.71549 (Kcal/Mol)
 Warning -- explicit consideration of   1 degrees of freedom as
           vibrations may cause significant error
 Vibrational temperatures:    872.94   896.94  1117.17  1135.68  1279.68
          (Kelvin)           1474.32  1511.26  1558.24  1604.19  1641.28
                             1686.10  1808.05  1825.63  2012.02  2020.99
                             2224.12  2333.06  5466.35  5488.63  5519.62
                             5552.85

 Zero-point correction=                           0.077633 (Hartree/Particle)
 Thermal correction to Energy=                    0.081194
 Thermal correction to Enthalpy=                  0.082139
 Thermal correction to Gibbs Free Energy=         0.051384
 Sum of electronic and zero-point Energies=             -2.701436
 Sum of electronic and thermal Energies=                -2.697875
 Sum of electronic and thermal Enthalpies=              -2.696931
 Sum of electronic and thermal Free Energies=           -2.727685

                     E (Thermal)             CV                S
                      KCal/Mol        Cal/Mol-Kelvin    Cal/Mol-Kelvin
 Total                   50.950             12.202             64.729
 Electronic               0.000              0.000              0.000
 Translational            0.889              2.981             38.570
 Rotational               0.889              2.981             24.219
 Vibrational             49.173              6.240              1.940
 Vibration     1          0.965              1.018              0.438

 Optimization completed.
    -- Stationary point found.
 Normal termination of Gaussian 09 at Sun Dec 27 19:00:00 2015.
