 Gaussian 09, Revision D.01,
 Gaussian 09:  ES64L-G09RevD.01 24-Apr-2013

 ------------------------
 #P AM1(Input,print) Freq
 ------------------------

 -----------------
 Furan freq at AM1
 -----------------
 Symbolic Z-matrix:
 Charge =  0 Multiplicity = 1

                         Standard orientation:
 ---------------------------------------------------------------------
 Center     Atomic      Atomic             Coordinates (Angstroms)
 Number     Number       Type             X           Y           Z
 ---------------------------------------------------------------------
      1          6           0        0.000000    0.715963   -0.955475
      2          6           0        0.000000    1.092818    0.345627
      3          8           0        0.000000    0.000000    1.157305
      4          6           0        0.000000   -1.092818    0.345627
      5          6           0        0.000000   -0.715963   -0.955475
      6          1           0        0.000000   -1.369382   -1.810438
      7          1           0        0.000000   -2.046884    0.840307
      8          1           0        0.000000    2.046884    0.840307
      9          1           0        0.000000    1.369382   -1.810438
 ---------------------------------------------------------------------

 SCF Done:  E(RAM1) =  0.210088466032     A.U. after   13 cycles

 The electronic state is 1-A1.
 Alpha  occ. eigenvalues --   -1.41919  -1.18318  -1.05785  -0.83396  -0.81642
 Alpha  occ. eigenvalues --   -0.69858  -0.63615  -0.57483  -0.53393  -0.51673
 Alpha  occ. eigenvalues --   -0.51137  -0.41445  -0.35439
 Alpha virt. eigenvalues --    0.02012   0.05674   0.06669   0.12493   0.13822
 Alpha virt. eigenvalues --    0.14059   0.16211   0.17413   0.18688   0.20292
 Alpha virt. eigenvalues --    0.20746

 Mulliken charges:
               1
     1  C   -0.160626
     2  C    0.049138
     3  O   -0.278682
     4  C    0.049138
     5  C   -0.160626
     6  H    0.112675
     7  H    0.138154
     8  H    0.138154
     9  H    0.112675
 Sum of Mulliken charges =   0.00000

 Dipole moment (field-independent basis, Debye):
    X=              0.0000    Y=              0.0000    Z=             -0.8058  Tot=              0.8058
 N-N= 1.033942141831D+02 E-N=-1.709839420241D+02  KE=-1.628226590831D+01
 Symmetry A1   KE=-8.736118552299D+00
 Symmetry A2   KE=-6.261529569541D-01
 Symmetry B1   KE=-1.778625827408D+00
 Symmetry B2   KE=-5.141368571654D+00
  Exact polarizability:   7.455   0.000  45.416   0.000   0.000  46.071
 Approx polarizability:   5.301   0.000  33.374   0.000   0.000  40.628
 Leave Link  601 at Sun Jan 10 14:42:37 2016, MaxMem=    33554432 cpu:         0.0
 (Enter /opt/g09/g09/l701.exe)
 Compute integral second derivatives.

                      1                      2                      3
                     B1                     A2                     B1
 Frequencies --    469.2386               554.6262               862.2349
 Red. masses --      3.5815                 1.8848                 1.1510
 Frc consts  --      0.4646                 0.3416                 0.5042
 IR Inten    --     12.5120                 0.0000                72.9602

                      4                      5                      6
                     A2                     A1                     B1
 Frequencies --    890.6765               932.5552               936.8897
 Red. masses --      1.3360                 4.6551                 1.3866
 Frc consts  --      0.6245                 2.3852                 0.7171
 IR Inten    --      0.0000                 5.5264                 0.4907

                      7                      8                      9
                     B2                     A2                     A1
 Frequencies --    955.3594               996.3457              1123.1681
 Red. masses --      6.2249                 1.7246                 1.1217
 Frc consts  --      3.3474                 1.0087                 0.8337
 IR Inten    --      0.0796                 0.0000                14.2153

                     10                     11                     12
                     B2                     A1                     B2
 Frequencies --   1134.5276              1188.8304              1264.3871
 Red. masses --      1.1211                 1.1863                 1.2292
 Frc consts  --      0.8502                 0.9879                 1.1578
 IR Inten    --      0.0451                 3.1724                 1.0168

                     13                     14                     15
                     A1                     B2                     A1
 Frequencies --   1358.7673              1468.2668              1547.3823
 Red. masses --      7.8031                 7.1381                 6.4095
 Frc consts  --      8.4880                 9.0665                 9.0421
 IR Inten    --     30.3010                16.4840                22.6019

                     16                     17                     18
                     A1                     B2                     B2
 Frequencies --   1649.5202              1678.1384              3239.8848
 Red. masses --      6.1668                 8.0328                 1.0812
 Frc consts  --      9.8861                13.3283                 6.6869
 IR Inten    --     35.6553                 3.2253                 6.8348

                     19                     20                     21
                     A1                     B2                     A1
 Frequencies --   3240.5544              3249.2748              3260.4309
 Red. masses --      1.0808                 1.0810                 1.0969
 Frc consts  --      6.6869                 6.7243                 6.8701
 IR Inten    --     71.1663                93.0032                 5.2879

 - Thermochemistry -
 -------------------
 Temperature   298.150 Kelvin.  Pressure   1.00000 Atm.
 Atom     1 has atomic number  6 and mass  12.00000

 Molecular mass:    68.02621 amu.
 Principal axes and moments of inertia in atomic units:
                           1         2         3
     Eigenvalues --   189.94244 193.46616 383.40860
           X            0.00000   0.00000   1.00000
           Y            0.00000   1.00000   0.00000
           Z            1.00000   0.00000   0.00000
 This molecule is an asymmetric top.
 Rotational symmetry number  2.
 Rotational temperatures (Kelvin)      0.45600     0.44769     0.22590
 Rotational constants (GHZ):           9.50152     9.32846     4.70710
 Zero-point vibrational energy     191408.8 (Joules/Mol)
                                   45.74781 (Kcal/Mol)
 Warning -- explicit consideration of   2 degrees of freedom as
           vibrations may cause significant error
 Vibrational temperatures:    675.13   797.98  1240.56  1281.48  1341.74
          (Kelvin)           1347.97  1374.55  1433.52  1615.99  1632.33
                             1710.46  1819.17  1954.96  2112.51  2226.34
                             2373.29  2414.46  4661.47  4662.43  4674.98
                             4691.03

 Zero-point correction=                           0.072904 (Hartree/Particle)
 Thermal correction to Energy=                    0.076563
 Thermal correction to Enthalpy=                  0.077507
 Thermal correction to Gibbs Free Energy=         0.047277
 Sum of electronic and zero-point Energies=              0.282992
 Sum of electronic and thermal Energies=                 0.286652
 Sum of electronic and thermal Enthalpies=               0.287596
 Sum of electronic and thermal Free Energies=            0.257366

                     E (Thermal)             CV                S
                      KCal/Mol        Cal/Mol-Kelvin    Cal/Mol-Kelvin
 Total                   48.044             12.439             63.624
 Electronic               0.000              0.000              0.000
 Translational            0.889              2.981             38.570
 Rotational               0.889              2.981             22.781
 Vibrational             46.267              6.477              2.274
 Vibration     1          0.826              1.318              0.740
 Vibration     2          0.910              1.130              0.535

 Normal termination of Gaussian 09 at Sun Jan 10 14:42:37 2016.
