 Gaussian 09, Revision D.01,
 Gaussian 09:  ES64L-G09RevD.01 24-Apr-2013

 ----------------------------
 #P AM1(Input,print) Opt Freq
 ----------------------------

 ------------
 Furan at AM1
 ------------
 Symbolic Z-matrix:
 Charge =  0 Multiplicity = 1

 SCF Done:  E(RAM1) = -0.505540152536     A.U. after   13 cycles
 SCF Done:  E(RAM1) = -0.505959285206     A.U. after   11 cycles
 SCF Done:  E(RAM1) = -0.506593371528     A.U. after   11 cycles
 SCF Done:  E(RAM1) = -0.506597288452     A.U. after    9 cycles
 SCF Done:  E(RAM1) = -0.506598287200     A.U. after    9 cycles
 Optimization completed.
    -- Stationary point found.
 Normal termination of Gaussian 09 at Sun Jan 10 14:42:38 2016.

 -------------------------------------------------------------
 #P Geom=AllCheck Guess=TCheck SCRF=Check GenChk RAM1/ZDO Freq
 -------------------------------------------------------------

 Structure from the checkpoint file:  "/opt/g09/scratch/Gau-886.chk"
 ------------
 Furan at AM1
 ------------
 Charge =  0 Multiplicity = 1

                         Standard orientation:
 ---------------------------------------------------------------------
 Center     Atomic      Atomic             Coordinates (Angstroms)
 Number     Number       Type             X           Y           Z
 ---------------------------------------------------------------------
      1          6           0        0.000000    0.709705   -0.964012
      2          6           0        0.000000    1.081759    0.347133
      3          8           0        0.000000    0.000000    1.174412
      4          6           0        0.000000   -1.081759    0.347133
      5          6           0        0.000000   -0.709705   -0.964012
      6          1           0        0.000000   -1.342464   -1.826110
      7          1           0        0.000000   -2.037918    0.829738
      8          1           0        0.000000    2.037918    0.829738
      9          1           0        0.000000    1.342464   -1.826110
 ---------------------------------------------------------------------

 SCF Done:  E(RAM1) = -0.506598287200     A.U. after    2 cycles

 The electronic state is 1-A1.
 Alpha  occ. eigenvalues --   -1.36878  -1.12830  -1.05734  -0.81539  -0.81142
 Alpha  occ. eigenvalues --   -0.67385  -0.57964  -0.55418  -0.50469  -0.50079
 Alpha  occ. eigenvalues --   -0.48623  -0.37510  -0.33733
 Alpha virt. eigenvalues --    0.04176   0.07595   0.09732   0.14726   0.15735
 Alpha virt. eigenvalues --    0.15973   0.18809   0.19596   0.20689   0.22649
 Alpha virt. eigenvalues --    0.24004

 Mulliken charges:
               1
     1  C   -0.099493
     2  C   -0.223143
     3  O    0.250732
     4  C   -0.223143
     5  C   -0.099493
     6  H    0.079550
     7  H    0.117719
     8  H    0.117719
     9  H    0.079550
 Sum of Mulliken charges =   0.00000

 Dipole moment (field-independent basis, Debye):
    X=              0.0000    Y=              0.0000    Z=              0.6375  Tot=              0.6375
 N-N= 1.024976849654D+02 E-N=-1.719396961500D+02  KE=-1.568279632442D+01
 Symmetry A1   KE=-8.390472160304D+00
 Symmetry A2   KE=-6.224555879260D-01
 Symmetry B1   KE=-1.571538595325D+00
 Symmetry B2   KE=-5.098329980867D+00
  Exact polarizability:   7.425   0.000  47.455   0.000   0.000  46.465
 Approx polarizability:   5.311   0.000  36.949   0.000   0.000  41.909
 Leave Link  601 at Sun Jan 10 14:42:39 2016, MaxMem=    33554432 cpu:         0.0
 (Enter /opt/g09/g09/l701.exe)
 Compute integral second derivatives.

                      1                      2                      3
                     A2                     B1                     B1
 Frequencies --    549.2563               553.3194               841.9571
 Red. masses --      1.8813                 3.0745                 1.1957
 Frc consts  --      0.3344                 0.5546                 0.4994
 IR Inten    --      0.0000                 0.0556                92.2479

                      4                      5                      6
                     A2                     B1                     A2
 Frequencies --    851.3527               896.6994               943.8864
 Red. masses --      1.3927                 1.4103                 1.6417
 Frc consts  --      0.5948                 0.6681                 0.8617
 IR Inten    --      0.0000                 2.1732                 0.0000

                      7                      8                      9
                     A1                     B2                     A1
 Frequencies --    976.7624               983.9769              1130.8699
 Red. masses --      3.7884                 6.1102                 1.1266
 Frc consts  --      2.1295                 3.4856                 0.8489
 IR Inten    --      0.4400                 1.0368                 6.3037

                     10                     11                     12
                     B2                     A1                     B2
 Frequencies --   1142.1275              1201.3298              1270.7566
 Red. masses --      1.1243                 1.2408                 1.2192
 Frc consts  --      0.8641                 1.0551                 1.1600
 IR Inten    --      1.5820                 3.0036                 0.0171

                     13                     14                     15
                     A1                     B2                     A1
 Frequencies --   1361.3149              1503.9181              1571.2549
 Red. masses --      9.1481                 7.4950                 6.9106
 Frc consts  --      9.9885                 9.9878                10.0522
 IR Inten    --     23.8621                 1.5684                10.0814

                     16                     17                     18
                     A1                     B2                     B2
 Frequencies --   1633.5257              1644.6783              3310.9376
 Red. masses --      5.4609                 8.0900                 1.0805
 Frc consts  --      8.5856                12.8931                 6.9790
 IR Inten    --     17.1590                 1.3681                 0.3906

                     19                     20                     21
                     A1                     B2                     A1
 Frequencies --   3311.3765              3313.8617              3325.8723
 Red. masses --      1.0788                 1.0795                 1.0978
 Frc consts  --      6.9698                 6.9846                 7.1545
 IR Inten    --     14.6247                42.0804                 2.0755

 - Thermochemistry -
 -------------------
 Temperature   298.150 Kelvin.  Pressure   1.00000 Atm.
 Atom     1 has atomic number  6 and mass  12.00000

 Molecular mass:    68.02621 amu.
 Principal axes and moments of inertia in atomic units:
                           1         2         3
     Eigenvalues --   186.32766 197.51104 383.83871
           X            0.00000   0.00000   1.00000
           Y            0.00000   1.00000   0.00000
           Z            1.00000   0.00000   0.00000
 This molecule is an asymmetric top.
 Rotational symmetry number  2.
 Rotational temperatures (Kelvin)      0.46485     0.43853     0.22565
 Rotational constants (GHZ):           9.68585     9.13742     4.70182
 Zero-point vibrational energy     193310.8 (Joules/Mol)
                                   46.20238 (Kcal/Mol)
 Warning -- explicit consideration of   2 degrees of freedom as
           vibrations may cause significant error
 Vibrational temperatures:    790.26   796.10  1211.39  1224.91  1290.15
          (Kelvin)           1358.04  1405.34  1415.72  1627.07  1643.26
                             1728.44  1828.33  1958.63  2163.80  2260.68
                             2350.28  2366.32  4763.69  4764.33  4767.90
                             4785.18

 Zero-point correction=                           0.073628 (Hartree/Particle)
 Thermal correction to Energy=                    0.077245
 Thermal correction to Enthalpy=                  0.078190
 Thermal correction to Gibbs Free Energy=         0.048030
 Sum of electronic and zero-point Energies=             -0.432970
 Sum of electronic and thermal Energies=                -0.429353
 Sum of electronic and thermal Enthalpies=              -0.428409
 Sum of electronic and thermal Free Energies=           -0.458568

                     E (Thermal)             CV                S
                      KCal/Mol        Cal/Mol-Kelvin    Cal/Mol-Kelvin
 Total                   48.472             12.347             63.476
 Electronic               0.000              0.000              0.000
 Translational            0.889              2.981             38.570
 Rotational               0.889              2.981             22.784
 Vibrational             46.695              6.385              2.123
 Vibration     1          0.905              1.141              0.546
 Vibration     2          0.909              1.132              0.537

 Optimization completed.
    -- Stationary point found.
 Normal termination of Gaussian 09 at Sun Jan 10 14:42:39 2016.
