 Gaussian 09, Revision D.01,
 Gaussian 09:  ES64L-G09RevD.01 24-Apr-2013

 ------------------------------------------------------------
 #P AM1(Input,print) CIS(Singlets,NStates=15) pop(full) force
 ------------------------------------------------------------

 -----------------
 AM1-Reparam Input
 -----------------
 Symbolic Z-matrix:
 Charge =  0 Multiplicity = 1

                         Standard orientation:
 ---------------------------------------------------------------------
 Center     Atomic      Atomic             Coordinates (Angstroms)
 Number     Number       Type             X           Y           Z
 ---------------------------------------------------------------------
      1          6           0        0.000000    0.715963   -0.955475
      2          6           0        0.000000    1.092818    0.345627
      3          8           0        0.000000    0.000000    1.157305
      4          6           0        0.000000   -1.092818    0.345627
      5          6           0        0.000000   -0.715963   -0.955475
      6          1           0        0.000000   -1.369382   -1.810438
      7          1           0        0.000000   -2.046884    0.840307
      8          1           0        0.000000    2.046884    0.840307
      9          1           0        0.000000    1.369382   -1.810438
 ---------------------------------------------------------------------

 SCF Done:  E(RAM1) = -0.967025327952E-02 A.U. after   13 cycles

 Excitation energies and oscillator strengths:

 Excited State   1:      Singlet-B2     4.1203 eV  300.91 nm  f=0.0659  <S**2>=0.000
      12 -> 15        -0.25750
      13 -> 14         0.64966
 This state for optimization and/or second-order correction.
 Total Energy, E(CIS) =  0.141748188766
 Copying the excited state density for this state as the 1-particle RhoCI density.

 Excited State   2:      Singlet-A1     4.9116 eV  252.43 nm  f=0.0056  <S**2>=0.000
      12 -> 14         0.42304
      13 -> 15         0.56195

 Excited State   3:      Singlet-A2     5.1524 eV  240.63 nm  f=0.0000  <S**2>=0.000
      13 -> 16         0.68923
      13 -> 22        -0.10038

 Excited State   4:      Singlet-A1     5.9842 eV  207.18 nm  f=0.4032  <S**2>=0.000
      10 -> 16        -0.11319
      12 -> 14         0.53707
      13 -> 15        -0.40655

 Excited State   5:      Singlet-B1     6.0568 eV  204.70 nm  f=0.0033  <S**2>=0.000
      12 -> 16        -0.33548
      12 -> 22         0.23823
      13 -> 17        -0.10606
      13 -> 19         0.46606
      13 -> 23         0.22709

 Excited State   6:      Singlet-A2     6.1199 eV  202.59 nm  f=0.0000  <S**2>=0.000
      12 -> 19         0.23634
      12 -> 23         0.16115
      12 -> 24        -0.12158
      13 -> 18         0.43204
      13 -> 21        -0.16628
      13 -> 22         0.40518

 Excited State   7:      Singlet-B2     6.1217 eV  202.53 nm  f=0.1396  <S**2>=0.000
      12 -> 15         0.64856
      13 -> 14         0.24969

 Excited State   8:      Singlet-B1     6.1360 eV  202.06 nm  f=0.0001  <S**2>=0.000
       7 -> 16        -0.17104
      12 -> 16         0.56154
      12 -> 18         0.17181
      12 -> 21        -0.13054
      13 -> 19         0.22160
      13 -> 23         0.17110
      13 -> 24        -0.10971

 Excited State   9:      Singlet-B1     6.4984 eV  190.79 nm  f=0.0002  <S**2>=0.000
      12 -> 18        -0.12071
      13 -> 17         0.63437
      13 -> 19         0.21818
      13 -> 20         0.10068

 Excited State  10:      Singlet-A2     6.9885 eV  177.41 nm  f=0.0000  <S**2>=0.000
      12 -> 17         0.46460
      12 -> 19         0.28521
      12 -> 20         0.20905
      13 -> 18        -0.27949
      13 -> 22         0.24359

 Excited State  11:      Singlet-B1     7.1079 eV  174.43 nm  f=0.0026  <S**2>=0.000
       9 -> 15        -0.31075
      10 -> 14         0.56039
      11 -> 14         0.24779

 Excited State  12:      Singlet-A2     7.3119 eV  169.57 nm  f=0.0000  <S**2>=0.000
       8 -> 14         0.12493
       9 -> 14         0.43286
      10 -> 15        -0.12301
      11 -> 15        -0.35455
      12 -> 17        -0.14557
      12 -> 20        -0.22007
      12 -> 23         0.14665
      13 -> 18        -0.16560
      13 -> 22         0.14699

 Excited State  13:      Singlet-A2     7.3414 eV  168.88 nm  f=0.0000  <S**2>=0.000
       9 -> 14         0.35165
      10 -> 15        -0.17372
      12 -> 17         0.15741
      12 -> 19        -0.19196
      12 -> 20         0.31384
      12 -> 23        -0.13034
      13 -> 18         0.33547
      13 -> 21         0.18611

 Excited State  14:      Singlet-B1     7.5380 eV  164.48 nm  f=0.0000  <S**2>=0.000
       7 -> 16        -0.13864
      12 -> 18        -0.28572
      12 -> 21        -0.22014
      12 -> 22        -0.27931
      13 -> 17        -0.16516
      13 -> 19         0.32989
      13 -> 20        -0.16692
      13 -> 23        -0.18455
      13 -> 24         0.24437

 Excited State  15:      Singlet-A2     7.5632 eV  163.93 nm  f=0.0000  <S**2>=0.000
      11 -> 15         0.13094
      12 -> 19        -0.35260
      12 -> 23         0.13423
      13 -> 18        -0.10253
      13 -> 21         0.37837
      13 -> 22         0.39072

 The electronic state is 1-A1.
 Alpha  occ. eigenvalues --   -1.46973  -1.16435  -1.04113  -0.79140  -0.77838
 Alpha  occ. eigenvalues --   -0.67370  -0.57912  -0.55343  -0.50312  -0.50084
 Alpha  occ. eigenvalues --   -0.49440  -0.38500  -0.34251
 Alpha virt. eigenvalues --    0.03596   0.06965   0.11314   0.15213   0.16262
 Alpha virt. eigenvalues --    0.16376   0.18881   0.19049   0.20131   0.21955
 Alpha virt. eigenvalues --    0.22902

 Mulliken charges:
               1
     1  C   -0.178140
     2  C   -0.057928
     3  O   -0.109626
     4  C   -0.057928
     5  C   -0.178140
     6  H    0.134667
     7  H    0.156214
     8  H    0.156214
     9  H    0.134667
 Sum of Mulliken charges =   0.00000

 Dipole moment (field-independent basis, Debye):
    X=              0.0000    Y=              0.0000    Z=             -0.4081  Tot=              0.4081
 N-N= 1.037713101205D+02 E-N=-1.727178249586D+02  KE=-1.628988187854D+01
 Symmetry A1   KE=-8.851721866976D+00
 Symmetry A2   KE=-6.441477764297D-01
 Symmetry B1   KE=-1.626674704962D+00
 Symmetry B2   KE=-5.167337530176D+00
 Orbital energies and kinetic energies (alpha):
                                 1                 2
   1         (A1)--O          -1.469733         -1.249245
   2         (A1)--O          -1.164350         -1.012995
   3         (B2)--O          -1.041134         -0.937081

 1\1\GINC-LINUX-CBNE\Force\RAM1-FC\STO-3G\C4H4O1\DUSTIN\07-Jan-2016\0\\
 #P AM1(Input,print) CIS(Singlets,NStates=15) pop(full) force\\AM1-Repa
 ram Input\\0,1\C,0.955475,-0.715963,0.\C,-0.345627,-1.092818,0.\O,-1.1
 57305,0.,0.\C,-0.345627,1.092818,0.\C,0.955475,0.715963,0.\H,1.810438,
 1.369382,0.\H,-0.840307,2.046884,0.\H,-0.840307,-2.046884,0.\H,1.81043
 8,-1.369382,0.\\Version=ES64L-G09RevD.01\State=1-A1\HF=-0.0096703\RMSD
 =5.527e-09\RMSF=2.834e-02\Dipole=0.2569148,0.,0.\PG=C02V [C2(O1),SGV(C
 4H4)]\\@

 Normal termination of Gaussian 09 at Thu Jan  7 16:47:17 2016.
