 Gaussian 09, Revision D.01,
 Gaussian 09:  ES64L-G09RevD.01 24-Apr-2013

 ----------------------------
 #P AM1(Input,print) Opt Freq
 ----------------------------

 -----------------
 AM1-Reparam Input
 -----------------
 Symbolic Z-matrix:
 Charge =  0 Multiplicity = 1

 SCF Done:  E(RAM1) =  0.739943235905     A.U. after   17 cycles
 SCF Done:  E(RAM1) =  0.731988620475     A.U. after   16 cycles
 SCF Done:  E(RAM1) =  0.731286725558     A.U. after   15 cycles
 SCF Done:  E(RAM1) =  0.731014795482     A.U. after   15 cycles
 SCF Done:  E(RAM1) =  0.730954774805     A.U. after   14 cycles
 SCF Done:  E(RAM1) =  0.730944875240     A.U. after   13 cycles
 SCF Done:  E(RAM1) =  0.730943068991     A.U. after   13 cycles
 Optimization completed.
    -- Stationary point found.
 Normal termination of Gaussian 09 at Sun Nov 29 12:22:31 2015.

 -------------------------------------------------------------
 #P Geom=AllCheck Guess=TCheck SCRF=Check GenChk RAM1/ZDO Freq
 -------------------------------------------------------------

 Structure from the checkpoint file:  "/home/Applications/g09/scratch/Gau-20952.chk"
 -----------------
 AM1-Reparam Input
 -----------------
 Charge =  0 Multiplicity = 1

                         Standard orientation:
 ---------------------------------------------------------------------
 Center     Atomic      Atomic             Coordinates (Angstroms)
 Number     Number       Type             X           Y           Z
 ---------------------------------------------------------------------
      1          6           0       -0.720585    0.953353    0.000326
      2          6           0       -1.102024   -0.350806   -0.000359
      3          8           0        0.004265   -1.164714    0.000482
      4          6           0        1.104015   -0.343666   -0.000460
      5          6           0        0.713684    0.958085    0.000080
      6          1           0        1.310122    1.866251   -0.000045
      7          1           0        2.074867   -0.846335   -0.000195
      8          1           0       -2.068022   -0.861748   -0.000919
      9          1           0       -1.321629    1.857743   -0.000218
 ---------------------------------------------------------------------

 SCF Done:  E(RAM1) =  0.730943068991     A.U. after    2 cycles

 The electronic state is 1-A.
 Alpha  occ. eigenvalues --   -1.19317  -0.92076  -0.91459  -0.73941  -0.69639
 Alpha  occ. eigenvalues --   -0.65781  -0.61044  -0.52950  -0.52185  -0.49705
 Alpha  occ. eigenvalues --   -0.49214  -0.40992  -0.35306
 Alpha virt. eigenvalues --    0.01093   0.02230   0.12108   0.13132   0.15579
 Alpha virt. eigenvalues --    0.16143   0.19656   0.20656   0.22249   0.22327
 Alpha virt. eigenvalues --    0.23969

 Mulliken charges:
               1
     1  C   -0.577500
     2  C    0.209668
     3  O   -0.429306
     4  C    0.211369
     5  C   -0.580279
     6  H    0.308454
     7  H    0.274666
     8  H    0.274685
     9  H    0.308244
 Sum of Mulliken charges =   0.00000

 Dipole moment (field-independent basis, Debye):
    X=              0.0062    Y=             -0.5104    Z=             -0.0040  Tot=              0.5105
 N-N= 1.023844813949D+02 E-N=-1.712641383376D+02  KE=-1.497075227402D+01
  Exact polarizability:  48.602  -0.009  57.004   0.003   0.028   8.787
 Approx polarizability:  29.731  -0.025  40.305  -0.001   0.013   5.733
 Leave Link  601 at Sun Nov 29 12:22:31 2015, MaxMem=    33554432 cpu:         0.0
 (Enter /home/Applications/g09/g09/l701.exe)
 Compute integral second derivatives.
 ... and contract with generalized density number  0.
 Leave Link  701 at Sun Nov 29 12:22:31 2015, MaxMem=    33554432 cpu:         0.0
 (Enter /home/Applications/g09/g09/l702.exe)
 L702 exits ... SP integral derivatives will be done elsewhere.

                      1                      2                      3
                      A                      A                      A
 Frequencies --    493.8615               517.9366               747.4230
 Red. masses --      1.6053                 2.2304                 6.2437
 Frc consts  --      0.2307                 0.3525                 2.0551
 IR Inten    --      0.0038                63.7742                28.4079

                      4                      5                      6
                      A                      A                      A
 Frequencies --    753.7672               784.5765               811.6848
 Red. masses --      1.1876                 1.2756                 3.7575
 Frc consts  --      0.3975                 0.4626                 1.4586
 IR Inten    --    253.9173                 0.3102                10.4018

                      7                      8                      9
                      A                      A                      A
 Frequencies --    866.7304               910.9242               935.7064
 Red. masses --      1.7444                 1.5387                 2.1953
 Frc consts  --      0.7721                 0.7523                 1.1324
 IR Inten    --     21.1504                24.9242                 0.0159

                     10                     11                     12
                      A                      A                      A
 Frequencies --    941.7905              1026.5719              1060.3579
 Red. masses --      1.1494                 1.2240                 1.9930
 Frc consts  --      0.6007                 0.7600                 1.3203
 IR Inten    --     70.9909                37.2578                52.0332

                     13                     14                     15
                      A                      A                      A
 Frequencies --   1097.9296              1147.5085              1346.8260
 Red. masses --      1.4374                 6.3998                 6.5886
 Frc consts  --      1.0209                 4.9651                 7.0416
 IR Inten    --      0.4617                14.1015                 1.5880

                     16                     17                     18
                      A                      A                      A
 Frequencies --   1486.5176              1540.8061              2978.0479
 Red. masses --      7.1125                 7.5417                 1.0834
 Frc consts  --      9.2601                10.5491                 5.6611
 IR Inten    --     13.7960                39.8592               376.4208

                     19                     20                     21
                      A                      A                      A
 Frequencies --   2989.6576              3013.8652              3034.2942
 Red. masses --      1.0858                 1.0909                 1.0993
 Frc consts  --      5.7181                 5.8382                 5.9630
 IR Inten    --    390.2613               265.8738               337.6637

 - Thermochemistry -
 -------------------
 Temperature   298.150 Kelvin.  Pressure   1.00000 Atm.
 Atom     1 has atomic number  6 and mass  12.00000

 Molecular mass:    68.02621 amu.
 Principal axes and moments of inertia in atomic units:
                           1         2         3
     Eigenvalues --   191.70180 196.10216 387.80389
           X           -0.01263   0.99992   0.00003
           Y            0.99992   0.01263   0.00001
           Z           -0.00001  -0.00003   1.00000
 This molecule is an asymmetric top.
 Rotational symmetry number  1.
 Rotational temperatures (Kelvin)      0.45182     0.44168     0.22334
 Rotational constants (GHZ):           9.41432     9.20307     4.65375
 Zero-point vibrational energy     170388.8 (Joules/Mol)
                                   40.72390 (Kcal/Mol)
 Warning -- explicit consideration of   2 degrees of freedom as
           vibrations may cause significant error
 Vibrational temperatures:    710.56   745.19  1075.37  1084.50  1128.83
          (Kelvin)           1167.83  1247.03  1310.62  1346.27  1355.02
                             1477.01  1525.62  1579.67  1651.01  1937.78
                             2138.76  2216.87  4284.74  4301.45  4336.27
                             4365.67

 Zero-point correction=                           0.064898 (Hartree/Particle)
 Thermal correction to Energy=                    0.068849
 Thermal correction to Enthalpy=                  0.069793
 Thermal correction to Gibbs Free Energy=         0.038520
 Sum of electronic and zero-point Energies=              0.795841
 Sum of electronic and thermal Energies=                 0.799792
 Sum of electronic and thermal Enthalpies=               0.800736
 Sum of electronic and thermal Free Energies=            0.769463

                     E (Thermal)             CV                S
                      KCal/Mol        Cal/Mol-Kelvin    Cal/Mol-Kelvin
 Total                   43.203             14.605             65.820
 Electronic               0.000              0.000              0.000
 Translational            0.889              2.981             38.570
 Rotational               0.889              2.981             24.192
 Vibrational             41.426              8.643              3.058
 Vibration     1          0.850              1.264              0.674
 Vibration     2          0.873              1.210              0.615

 Normal termination of Gaussian 09 at Sun Nov 29 12:22:31 2015.
