 Gaussian 09, Revision D.01,
 Gaussian 09:  ES64L-G09RevD.01 24-Apr-2013

 -----------------------
 #P AM1(Input,print) Opt
 -----------------------

 -----------------
 AM1-Reparam Input
 -----------------
 Symbolic Z-matrix:
 Charge =  0 Multiplicity = 1

 SCF Done:  E(RAM1) =  -2.32412885121     A.U. after   14 cycles
 SCF Done:  E(RAM1) =  -2.34069685773     A.U. after   13 cycles
 SCF Done:  E(RAM1) =  -2.34196225291     A.U. after   12 cycles
 SCF Done:  E(RAM1) =  -2.34259699069     A.U. after   12 cycles
 SCF Done:  E(RAM1) =  -2.34265710459     A.U. after   11 cycles
 SCF Done:  E(RAM1) =  -2.34265335760     A.U. after   11 cycles
 SCF Done:  E(RAM1) =  -2.34267355989     A.U. after   11 cycles
 Optimization completed.
    -- Stationary point found.

                         Standard orientation:
 ---------------------------------------------------------------------
 Center     Atomic      Atomic             Coordinates (Angstroms)
 Number     Number       Type             X           Y           Z
 ---------------------------------------------------------------------
      1          6           0        0.723473    0.968390    0.000146
      2          6           0        1.102972   -0.354209   -0.000252
      3          8           0       -0.005402   -1.184980    0.000278
      4          6           0       -1.105985   -0.344466   -0.000223
      5          6           0       -0.714768    0.974775   -0.000058
      6          1           0       -1.325925    1.856351    0.000503
      7          1           0       -2.060051   -0.834784   -0.000192
      8          1           0        2.052405   -0.853038   -0.000164
      9          1           0        1.342630    1.844372   -0.000056
 ---------------------------------------------------------------------

 The electronic state is 1-A.
 Alpha  occ. eigenvalues --   -1.66293  -1.21865  -1.00357  -0.80140  -0.78858
 Alpha  occ. eigenvalues --   -0.68952  -0.59300  -0.56131  -0.55342  -0.52349
 Alpha  occ. eigenvalues --   -0.51631  -0.42270  -0.39424
 Alpha virt. eigenvalues --   -0.01334   0.01260   0.10717   0.14402   0.18126
 Alpha virt. eigenvalues --    0.18316   0.19514   0.20222   0.20829   0.21579
 Alpha virt. eigenvalues --    0.22871

 Mulliken charges:
               1
     1  C   -0.471512
     2  C   -0.352372
     3  O    0.115685
     4  C   -0.352067
     5  C   -0.471874
     6  H    0.380174
     7  H    0.385911
     8  H    0.385895
     9  H    0.380159
 Sum of Mulliken charges =   0.00000

 Dipole moment (field-independent basis, Debye):
    X=             -0.0025    Y=             -0.4034    Z=              0.0010  Tot=              0.4034
 N-N= 1.022518597563D+02 E-N=-1.703674517407D+02  KE=-1.936338328035D+01
 Leave Link  601 at Mon Nov 23 02:20:18 2015, MaxMem=    33554432 cpu:         0.0
 (Enter /home/Applications/g09/g09/l9999.exe)
 1\1\GINC-DUSTIN-DESKTOP\FOpt\RAM1\ZDO\C4H4O1\DUSTIN\23-Nov-2015\0\\#P
 AM1(Input,print) Opt\\AM1-Reparam Input\\0,1\C,0.9624192763,-0.7077696
 018,-0.0211619946\C,-0.3552940535,-1.1038887727,-0.0179652\O,-1.199953
 7173,-0.0060621919,-0.0176384453\C,-0.3733683767,1.1050116516,-0.02199
 52172\C,0.9506910468,0.7304343701,-0.0240088916\H,1.8245004922,1.35264
 12474,-0.0264990539\H,-0.8756613141,2.0528284426,-0.022632845\H,-0.842
 1261136,-2.0595244839,-0.0150478342\H,1.8461257599,-1.3158496614,-0.02

 Normal termination of Gaussian 09 at Mon Nov 23 02:20:18 2015.
