 Gaussian 09, Revision D.01,
 Gaussian 09:  ES64L-G09RevD.01 24-Apr-2013

 -----------------------
 #P AM1(Input,print) Opt
 -----------------------

 -----------------
 AM1-Reparam Input
 -----------------
 Symbolic Z-matrix:
 Charge =  0 Multiplicity = 1

 SCF Done:  E(RAM1) =  -2.33130820374     A.U. after   14 cycles
 SCF Done:  E(RAM1) =  -2.34141110361     A.U. after   13 cycles
 SCF Done:  E(RAM1) =  -2.34238615042     A.U. after   12 cycles
 SCF Done:  E(RAM1) =  -2.34262170054     A.U. after   12 cycles
 SCF Done:  E(RAM1) =  -2.34262701785     A.U. after   12 cycles
 SCF Done:  E(RAM1) =  -2.34266573400     A.U. after   11 cycles
 SCF Done:  E(RAM1) =  -2.34267317989     A.U. after   11 cycles
 SCF Done:  E(RAM1) =  -2.34267403194     A.U. after   10 cycles
 Optimization completed.
    -- Stationary point found.

                         Standard orientation:
 ---------------------------------------------------------------------
 Center     Atomic      Atomic             Coordinates (Angstroms)
 Number     Number       Type             X           Y           Z
 ---------------------------------------------------------------------
      1          6           0        0.717385    0.972790   -0.000006
      2          6           0        1.105010   -0.347567   -0.000029
      3          8           0        0.001969   -1.185181    0.000020
      4          6           0       -1.103798   -0.351295   -0.000034
      5          6           0       -0.720604    0.970443    0.000037
      6          1           0       -1.337365    1.848063    0.000163
      7          1           0       -2.055418   -0.845872   -0.000120
      8          1           0        2.058015   -0.839560    0.000188
      9          1           0        1.331049    1.852592   -0.000201
 ---------------------------------------------------------------------

 The electronic state is 1-A.
 Alpha  occ. eigenvalues --   -1.66293  -1.21872  -1.00353  -0.80148  -0.78853
 Alpha  occ. eigenvalues --   -0.68957  -0.59301  -0.56139  -0.55339  -0.52344
 Alpha  occ. eigenvalues --   -0.51637  -0.42273  -0.39421
 Alpha virt. eigenvalues --   -0.01337   0.01260   0.10713   0.14404   0.18129
 Alpha virt. eigenvalues --    0.18322   0.19512   0.20221   0.20828   0.21577
 Alpha virt. eigenvalues --    0.22871

 Mulliken charges:
               1
     1  C   -0.471618
     2  C   -0.352370
     3  O    0.115997
     4  C   -0.352304
     5  C   -0.471808
     6  H    0.380160
     7  H    0.385889
     8  H    0.385899
     9  H    0.380155
 Sum of Mulliken charges =   0.00000

 Dipole moment (field-independent basis, Debye):
    X=              0.0002    Y=             -0.4005    Z=              0.0001  Tot=              0.4005
 N-N= 1.022519777515D+02 E-N=-1.703672184392D+02  KE=-1.936351627837D+01
 Leave Link  601 at Mon Nov 23 02:20:21 2015, MaxMem=    33554432 cpu:         0.0
 (Enter /home/Applications/g09/g09/l9999.exe)
 1\1\GINC-DUSTIN-DESKTOP\FOpt\RAM1\ZDO\C4H4O1\DUSTIN\23-Nov-2015\0\\#P
 AM1(Input,print) Opt\\AM1-Reparam Input\\0,1\C,0.9366269873,-0.7337224
 541,-0.0102139949\C,-0.3875227991,-1.1074951554,0.0124779399\O,-1.2134
 231866,0.0042591864,0.026191989\C,-0.3681302032,1.1012302269,0.0113170
 222\C,0.9493332905,0.7042122656,-0.0109247121\H,1.8332352215,1.3117460
 178,-0.0260958109\H,-0.8526494032,2.0579791662,0.0191344553\H,-0.88938
 93353,-2.055294134,0.0216054252\H,1.809826428,-1.3565681193,-0.0250643

 Normal termination of Gaussian 09 at Mon Nov 23 02:20:21 2015.
