 Gaussian 09, Revision D.01,
 Gaussian 09:  ES64L-G09RevD.01 24-Apr-2013

 -----------------------
 #P AM1(Input,print) Opt
 -----------------------

 -----------------
 AM1-Reparam Input
 -----------------
 Symbolic Z-matrix:
 Charge =  0 Multiplicity = 1

 SCF Done:  E(RAM1) =  -2.32084066936     A.U. after   14 cycles
 SCF Done:  E(RAM1) =  -2.34083646132     A.U. after   13 cycles
 SCF Done:  E(RAM1) =  -2.34223498048     A.U. after   12 cycles
 SCF Done:  E(RAM1) =  -2.34262563786     A.U. after   12 cycles
 SCF Done:  E(RAM1) =  -2.34265622769     A.U. after   11 cycles
 SCF Done:  E(RAM1) =  -2.34266987956     A.U. after   11 cycles
 SCF Done:  E(RAM1) =  -2.34267383354     A.U. after   10 cycles
 Optimization completed.
    -- Stationary point found.

                         Standard orientation:
 ---------------------------------------------------------------------
 Center     Atomic      Atomic             Coordinates (Angstroms)
 Number     Number       Type             X           Y           Z
 ---------------------------------------------------------------------
      1          6           0        0.717730    0.972502    0.000324
      2          6           0        1.104922   -0.348099   -0.000396
      3          8           0        0.001468   -1.185055    0.000261
      4          6           0       -1.103944   -0.350942   -0.000063
      5          6           0       -0.720227    0.970614   -0.000166
      6          1           0       -1.336186    1.848773   -0.000357
      7          1           0       -2.056065   -0.844591    0.000048
      8          1           0        2.057909   -0.840144   -0.000456
      9          1           0        1.331709    1.851945    0.000492
 ---------------------------------------------------------------------

 The electronic state is 1-A.
 Alpha  occ. eigenvalues --   -1.66300  -1.21871  -1.00355  -0.80149  -0.78854
 Alpha  occ. eigenvalues --   -0.68960  -0.59304  -0.56145  -0.55334  -0.52344
 Alpha  occ. eigenvalues --   -0.51637  -0.42273  -0.39420
 Alpha virt. eigenvalues --   -0.01336   0.01260   0.10710   0.14405   0.18129
 Alpha virt. eigenvalues --    0.18323   0.19513   0.20223   0.20829   0.21579
 Alpha virt. eigenvalues --    0.22872

 Mulliken charges:
               1
     1  C   -0.471669
     2  C   -0.352470
     3  O    0.116191
     4  C   -0.352279
     5  C   -0.471898
     6  H    0.380160
     7  H    0.385906
     8  H    0.385925
     9  H    0.380134
 Sum of Mulliken charges =   0.00000

 Dipole moment (field-independent basis, Debye):
    X=              0.0001    Y=             -0.4000    Z=              0.0002  Tot=              0.4000
 N-N= 1.022532748755D+02 E-N=-1.703692485086D+02  KE=-1.936373900494D+01
 Leave Link  601 at Mon Nov 23 02:20:20 2015, MaxMem=    33554432 cpu:         0.0
 (Enter /home/Applications/g09/g09/l9999.exe)
 1\1\GINC-DUSTIN-DESKTOP\FOpt\RAM1\ZDO\C4H4O1\DUSTIN\23-Nov-2015\0\\#P
 AM1(Input,print) Opt\\AM1-Reparam Input\\0,1\C,0.9680000232,-0.7236364
 64,0.0098372179\C,-0.355540671,-1.0997325136,-0.0165781947\O,-1.183151
 3502,0.0106944317,-0.0274211014\C,-0.3400015098,1.1090653069,-0.008461
 025\C,0.9780912151,0.7142785613,0.0144139989\H,1.8612015348,1.32284738
 78,0.0325819832\H,-0.8256256189,2.0652885137,-0.014063995\H,-0.8554170
 855,-2.0485525177,-0.0290811371\H,1.8421484624,-1.3449687061,0.0240242

 Normal termination of Gaussian 09 at Mon Nov 23 02:20:20 2015.
