 Gaussian 09, Revision D.01,
 Gaussian 09:  ES64L-G09RevD.01 24-Apr-2013

 -----------------------
 #P AM1(Input,print) Opt
 -----------------------

 -----------------
 AM1-Reparam Input
 -----------------
 Symbolic Z-matrix:
 Charge =  0 Multiplicity = 1

 SCF Done:  E(RAM1) =  -2.31905889393     A.U. after   14 cycles
 SCF Done:  E(RAM1) =  -2.33794071471     A.U. after   13 cycles
 SCF Done:  E(RAM1) =  -2.34142811538     A.U. after   13 cycles
 SCF Done:  E(RAM1) =  -2.34246413612     A.U. after   12 cycles
 SCF Done:  E(RAM1) =  -2.34263187652     A.U. after   11 cycles
 SCF Done:  E(RAM1) =  -2.34266142787     A.U. after   11 cycles
 SCF Done:  E(RAM1) =  -2.34267184810     A.U. after   11 cycles
 SCF Done:  E(RAM1) =  -2.34267368776     A.U. after   10 cycles
 SCF Done:  E(RAM1) =  -2.34267391017     A.U. after   10 cycles
 Optimization completed.
    -- Stationary point found.

                         Standard orientation:
 ---------------------------------------------------------------------
 Center     Atomic      Atomic             Coordinates (Angstroms)
 Number     Number       Type             X           Y           Z
 ---------------------------------------------------------------------
      1          6           0       -0.716746    0.973137   -0.000088
      2          6           0       -1.105116   -0.347027    0.000232
      3          8           0       -0.002595   -1.185080   -0.000293
      4          6           0        1.103492   -0.351803    0.000227
      5          6           0        0.721041    0.969991    0.000018
      6          1           0        1.338496    1.847149   -0.000637
      7          1           0        2.054766   -0.847237    0.000408
      8          1           0       -2.058470   -0.838218    0.000123
      9          1           0       -1.330055    1.853161    0.000121
 ---------------------------------------------------------------------

 The electronic state is 1-A.
 Alpha  occ. eigenvalues --   -1.66303  -1.21880  -1.00355  -0.80148  -0.78857
 Alpha  occ. eigenvalues --   -0.68960  -0.59306  -0.56138  -0.55339  -0.52341
 Alpha  occ. eigenvalues --   -0.51639  -0.42275  -0.39420
 Alpha virt. eigenvalues --   -0.01334   0.01263   0.10715   0.14409   0.18130
 Alpha virt. eigenvalues --    0.18323   0.19513   0.20223   0.20830   0.21580
 Alpha virt. eigenvalues --    0.22875

 Mulliken charges:
               1
     1  C   -0.471659
     2  C   -0.352432
     3  O    0.116109
     4  C   -0.352381
     5  C   -0.471724
     6  H    0.380151
     7  H    0.385897
     8  H    0.385894
     9  H    0.380144
 Sum of Mulliken charges =   0.00000

 Dipole moment (field-independent basis, Debye):
    X=             -0.0001    Y=             -0.4013    Z=             -0.0009  Tot=              0.4013
 N-N= 1.022557890711D+02 E-N=-1.703736810426D+02  KE=-1.936402981927D+01
 Leave Link  601 at Mon Nov 23 02:20:24 2015, MaxMem=    33554432 cpu:         0.0
 (Enter /home/Applications/g09/g09/l9999.exe)
 1\1\GINC-DUSTIN-DESKTOP\FOpt\RAM1\ZDO\C4H4O1\DUSTIN\23-Nov-2015\0\\#P
 AM1(Input,print) Opt\\AM1-Reparam Input\\0,1\C,0.9526628662,-0.7171253
 73,-0.0094270611\C,-0.3666956799,-1.1081755465,-0.015650505\O,-1.20702
 66348,-0.0075544278,0.0034072841\C,-0.3760393196,1.1001170297,0.020833
 9306\C,0.9465432393,0.7204582904,0.0142146997\H,1.8224227086,1.3396365
 517,0.0247277839\H,-0.8734399926,2.0502345392,0.0365559583\H,-0.855913
 3686,-2.062417992,-0.0310978079\H,1.8339531814,-1.3285190716,-0.020106

 Normal termination of Gaussian 09 at Mon Nov 23 02:20:24 2015.
