 Gaussian 09, Revision D.01,
 Gaussian 09:  ES64L-G09RevD.01 24-Apr-2013

 -----------------------
 #P AM1(Input,print) Opt
 -----------------------

 -----------------
 AM1-Reparam Input
 -----------------
 Symbolic Z-matrix:
 Charge =  0 Multiplicity = 1

 SCF Done:  E(RAM1) =  -2.33459346500     A.U. after   14 cycles
 SCF Done:  E(RAM1) =  -2.34170956398     A.U. after   13 cycles
 SCF Done:  E(RAM1) =  -2.34243216712     A.U. after   12 cycles
 SCF Done:  E(RAM1) =  -2.34260500828     A.U. after   11 cycles
 SCF Done:  E(RAM1) =  -2.34266464912     A.U. after   11 cycles
 SCF Done:  E(RAM1) =  -2.34267275830     A.U. after   11 cycles
 SCF Done:  E(RAM1) =  -2.34267389250     A.U. after   10 cycles
 Optimization completed.
    -- Stationary point found.

                         Standard orientation:
 ---------------------------------------------------------------------
 Center     Atomic      Atomic             Coordinates (Angstroms)
 Number     Number       Type             X           Y           Z
 ---------------------------------------------------------------------
      1          6           0        0.718809    0.971607   -0.000028
      2          6           0        1.104369   -0.349307    0.000318
      3          8           0        0.000133   -1.185139   -0.000299
      4          6           0       -1.104316   -0.349507    0.000233
      5          6           0       -0.719022    0.971529   -0.000142
      6          1           0       -1.334236    1.850080    0.000290
      7          1           0       -2.056554   -0.842893    0.000163
      8          1           0        2.056680   -0.842314    0.000167
      9          1           0        1.334005    1.850303   -0.000510
 ---------------------------------------------------------------------

 The electronic state is 1-A.
 Alpha  occ. eigenvalues --   -1.66299  -1.21882  -1.00357  -0.80151  -0.78856
 Alpha  occ. eigenvalues --   -0.68961  -0.59305  -0.56140  -0.55340  -0.52343
 Alpha  occ. eigenvalues --   -0.51639  -0.42275  -0.39421
 Alpha virt. eigenvalues --   -0.01336   0.01262   0.10714   0.14407   0.18131
 Alpha virt. eigenvalues --    0.18325   0.19513   0.20222   0.20831   0.21579
 Alpha virt. eigenvalues --    0.22873

 Mulliken charges:
               1
     1  C   -0.471726
     2  C   -0.352336
     3  O    0.116054
     4  C   -0.352369
     5  C   -0.471673
     6  H    0.380138
     7  H    0.385892
     8  H    0.385872
     9  H    0.380149
 Sum of Mulliken charges =   0.00000

 Dipole moment (field-independent basis, Debye):
    X=              0.0002    Y=             -0.4007    Z=             -0.0007  Tot=              0.4007
 N-N= 1.022552607742D+02 E-N=-1.703725002664D+02  KE=-1.936399974202D+01
 Leave Link  601 at Mon Nov 23 02:20:28 2015, MaxMem=    33554432 cpu:         0.0
 (Enter /home/Applications/g09/g09/l9999.exe)
 1\1\GINC-DUSTIN-DESKTOP\FOpt\RAM1\ZDO\C4H4O1\DUSTIN\23-Nov-2015\0\\#P
 AM1(Input,print) Opt\\AM1-Reparam Input\\0,1\C,0.9562524382,-0.7213110
 634,0.0016753222\C,-0.3651505481,-1.1044737331,-0.0218331004\O,-1.1990
 547435,0.001217189,-0.0239316585\C,-0.3617053552,1.1040965181,0.000378
 8578\C,0.9585476395,0.7164468033,0.0160769709\H,1.8380050378,1.3300408
 85,0.0359977115\H,-0.8534626921,2.0571746646,0.0024677331\H,-0.8596689
 766,-2.0558453555,-0.0390491259\H,1.8338391999,-1.338052908,0.00826028

 Normal termination of Gaussian 09 at Mon Nov 23 02:20:28 2015.
