 Gaussian 09, Revision D.01,
 Gaussian 09:  ES64L-G09RevD.01 24-Apr-2013

 -----------------------
 #P AM1(Input,print) Opt
 -----------------------

 -----------------
 AM1-Reparam Input
 -----------------
 Symbolic Z-matrix:
 Charge =  0 Multiplicity = 1

 SCF Done:  E(RAM1) =  -2.32668493541     A.U. after   14 cycles
 SCF Done:  E(RAM1) =  -2.33994978918     A.U. after   12 cycles
 SCF Done:  E(RAM1) =  -2.34235716036     A.U. after   11 cycles
 SCF Done:  E(RAM1) =  -2.34263634216     A.U. after   11 cycles
 SCF Done:  E(RAM1) =  -2.34266130909     A.U. after   12 cycles
 SCF Done:  E(RAM1) =  -2.34267159110     A.U. after   11 cycles
 SCF Done:  E(RAM1) =  -2.34267396304     A.U. after   10 cycles
 Optimization completed.
    -- Stationary point found.

                         Standard orientation:
 ---------------------------------------------------------------------
 Center     Atomic      Atomic             Coordinates (Angstroms)
 Number     Number       Type             X           Y           Z
 ---------------------------------------------------------------------
      1          6           0       -0.717681    0.972520   -0.000038
      2          6           0       -1.104929   -0.347891   -0.000038
      3          8           0       -0.001570   -1.185188    0.000144
      4          6           0        1.103833   -0.350942   -0.000134
      5          6           0        0.720320    0.970625    0.000062
      6          1           0        1.336759    1.848504   -0.000236
      7          1           0        2.055617   -0.845318    0.000031
      8          1           0       -2.057827   -0.839956   -0.000531
      9          1           0       -1.331251    1.852398    0.000476
 ---------------------------------------------------------------------

 The electronic state is 1-A.
 Alpha  occ. eigenvalues --   -1.66293  -1.21875  -1.00354  -0.80149  -0.78852
 Alpha  occ. eigenvalues --   -0.68957  -0.59301  -0.56138  -0.55339  -0.52345
 Alpha  occ. eigenvalues --   -0.51634  -0.42273  -0.39422
 Alpha virt. eigenvalues --   -0.01336   0.01261   0.10714   0.14403   0.18131
 Alpha virt. eigenvalues --    0.18323   0.19513   0.20221   0.20827   0.21577
 Alpha virt. eigenvalues --    0.22872

 Mulliken charges:
               1
     1  C   -0.471589
     2  C   -0.352370
     3  O    0.115969
     4  C   -0.352181
     5  C   -0.471930
     6  H    0.380170
     7  H    0.385884
     8  H    0.385889
     9  H    0.380157
 Sum of Mulliken charges =   0.00000

 Dipole moment (field-independent basis, Debye):
    X=              0.0007    Y=             -0.3998    Z=             -0.0001  Tot=              0.3998
 N-N= 1.022527466916D+02 E-N=-1.703685696313D+02  KE=-1.936360943185D+01
 Leave Link  601 at Mon Nov 23 02:20:26 2015, MaxMem=    33554432 cpu:         0.0
 (Enter /home/Applications/g09/g09/l9999.exe)
 1\1\GINC-DUSTIN-DESKTOP\FOpt\RAM1\ZDO\C4H4O1\DUSTIN\23-Nov-2015\0\\#P
 AM1(Input,print) Opt\\AM1-Reparam Input\\0,1\C,0.9771337062,-0.7226939
 862,-0.0327598958\C,-0.3434457314,-1.10903363,-0.0167342563\O,-1.17988
 44826,-0.0051022556,-0.003567878\C,-0.344911134,1.0997236409,-0.011380
 9852\C,0.9762686504,0.7153042939,-0.0294381465\H,1.8545217999,1.331137
 5085,-0.0389474684\H,-0.8385658679,2.0518448762,-0.0029556114\H,-0.836
 1473815,-2.061591875,-0.0121793304\H,1.8564924408,-1.3368655727,-0.046

 Normal termination of Gaussian 09 at Mon Nov 23 02:20:26 2015.
