 Gaussian 09, Revision D.01,
 Gaussian 09:  ES64L-G09RevD.01 24-Apr-2013

 -----------------------
 #P AM1(Input,print) Opt
 -----------------------

 -----------------
 AM1-Reparam Input
 -----------------
 Symbolic Z-matrix:
 Charge =  0 Multiplicity = 1

 SCF Done:  E(RAM1) =  -2.32794137539     A.U. after   14 cycles
 SCF Done:  E(RAM1) =  -2.34048182711     A.U. after   13 cycles
 SCF Done:  E(RAM1) =  -2.34219097067     A.U. after   12 cycles
 SCF Done:  E(RAM1) =  -2.34259021204     A.U. after   12 cycles
 SCF Done:  E(RAM1) =  -2.34262720033     A.U. after   12 cycles
 SCF Done:  E(RAM1) =  -2.34266371979     A.U. after   12 cycles
 SCF Done:  E(RAM1) =  -2.34267122845     A.U. after   11 cycles
 SCF Done:  E(RAM1) =  -2.34267403056     A.U. after   11 cycles
 Optimization completed.
    -- Stationary point found.

                         Standard orientation:
 ---------------------------------------------------------------------
 Center     Atomic      Atomic             Coordinates (Angstroms)
 Number     Number       Type             X           Y           Z
 ---------------------------------------------------------------------
      1          6           0       -0.721678    0.969642   -0.000021
      2          6           0       -1.103461   -0.352532    0.000028
      3          8           0        0.003297   -1.185061   -0.000046
      4          6           0        1.105514   -0.346357    0.000032
      5          6           0        0.716152    0.973553   -0.000012
      6          1           0        1.329228    1.853743   -0.000074
      7          1           0        2.059117   -0.837109    0.000131
      8          1           0       -2.054347   -0.848503    0.000053
      9          1           0       -1.339532    1.846521    0.000096
 ---------------------------------------------------------------------

 The electronic state is 1-A.
 Alpha  occ. eigenvalues --   -1.66294  -1.21872  -1.00354  -0.80148  -0.78854
 Alpha  occ. eigenvalues --   -0.68957  -0.59301  -0.56140  -0.55337  -0.52342
 Alpha  occ. eigenvalues --   -0.51639  -0.42274  -0.39419
 Alpha virt. eigenvalues --   -0.01338   0.01261   0.10710   0.14409   0.18128
 Alpha virt. eigenvalues --    0.18322   0.19511   0.20220   0.20830   0.21577
 Alpha virt. eigenvalues --    0.22873

 Mulliken charges:
               1
     1  C   -0.471727
     2  C   -0.352363
     3  O    0.116063
     4  C   -0.352535
     5  C   -0.471545
     6  H    0.380129
     7  H    0.385920
     8  H    0.385901
     9  H    0.380159
 Sum of Mulliken charges =   0.00000

 Dipole moment (field-independent basis, Debye):
    X=              0.0011    Y=             -0.4010    Z=              0.0003  Tot=              0.4010
 N-N= 1.022526195823D+02 E-N=-1.703683260690D+02  KE=-1.936359586161D+01
 Leave Link  601 at Mon Nov 23 02:20:19 2015, MaxMem=    33554432 cpu:         0.0
 (Enter /home/Applications/g09/g09/l9999.exe)
 1\1\GINC-DUSTIN-DESKTOP\FOpt\RAM1\ZDO\C4H4O1\DUSTIN\23-Nov-2015\0\\#P
 AM1(Input,print) Opt\\AM1-Reparam Input\\0,1\C,0.9626178845,-0.7332530
 363,0.0166907201\C,-0.3616553263,-1.1073648845,0.0011231251\O,-1.18777
 23726,0.0041837064,-0.00185161\C,-0.3427970876,1.101510549,0.012205520
 9\C,0.9747852758,0.7045127013,0.0238969705\H,1.8584335894,1.3124715273
 ,0.0360807643\H,-0.8280376541,2.0579291989,0.0118130598\H,-0.863052098
 8,-2.0553499399,-0.0087529289\H,1.8358887897,-1.3561688221,0.022518378

 Normal termination of Gaussian 09 at Mon Nov 23 02:20:19 2015.
