 Gaussian 09, Revision D.01,
 Gaussian 09:  ES64L-G09RevD.01 24-Apr-2013

 -----------------------
 #P AM1(Input,print) Opt
 -----------------------

 -----------------
 AM1-Reparam Input
 -----------------
 Symbolic Z-matrix:
 Charge =  0 Multiplicity = 1

 SCF Done:  E(RAM1) =  -2.32550356593     A.U. after   14 cycles
 SCF Done:  E(RAM1) =  -2.34062736373     A.U. after   13 cycles
 SCF Done:  E(RAM1) =  -2.34227647478     A.U. after   12 cycles
 SCF Done:  E(RAM1) =  -2.34261849952     A.U. after   12 cycles
 SCF Done:  E(RAM1) =  -2.34266591859     A.U. after   11 cycles
 SCF Done:  E(RAM1) =  -2.34267266431     A.U. after   11 cycles
 SCF Done:  E(RAM1) =  -2.34267327801     A.U. after   10 cycles
 SCF Done:  E(RAM1) =  -2.34267396120     A.U. after   10 cycles
 Optimization completed.
    -- Stationary point found.

                         Standard orientation:
 ---------------------------------------------------------------------
 Center     Atomic      Atomic             Coordinates (Angstroms)
 Number     Number       Type             X           Y           Z
 ---------------------------------------------------------------------
      1          6           0       -0.725159    0.967070    0.000033
      2          6           0       -1.102213   -0.356322   -0.000056
      3          8           0        0.007564   -1.185064    0.000182
      4          6           0        1.106683   -0.342500   -0.000284
      5          6           0        0.712806    0.976052    0.000180
      6          1           0        1.322268    1.858646    0.000085
      7          1           0        2.062154   -0.829729   -0.000137
      8          1           0       -2.051319   -0.855795   -0.000257
      9          1           0       -1.346314    1.841586   -0.000388
 ---------------------------------------------------------------------

 The electronic state is 1-A.
 Alpha  occ. eigenvalues --   -1.66293  -1.21872  -1.00356  -0.80146  -0.78854
 Alpha  occ. eigenvalues --   -0.68957  -0.59301  -0.56140  -0.55338  -0.52345
 Alpha  occ. eigenvalues --   -0.51637  -0.42273  -0.39422
 Alpha virt. eigenvalues --   -0.01337   0.01260   0.10711   0.14406   0.18128
 Alpha virt. eigenvalues --    0.18321   0.19512   0.20221   0.20831   0.21578
 Alpha virt. eigenvalues --    0.22872

 Mulliken charges:
               1
     1  C   -0.471633
     2  C   -0.352418
     3  O    0.115984
     4  C   -0.352294
     5  C   -0.471743
     6  H    0.380138
     7  H    0.385914
     8  H    0.385903
     9  H    0.380150
 Sum of Mulliken charges =   0.00000

 Dipole moment (field-independent basis, Debye):
    X=              0.0020    Y=             -0.4011    Z=             -0.0009  Tot=              0.4011
 N-N= 1.022524297376D+02 E-N=-1.703680102913D+02  KE=-1.936356875923D+01
 Leave Link  601 at Mon Nov 23 02:20:23 2015, MaxMem=    33554432 cpu:         0.0
 (Enter /home/Applications/g09/g09/l9999.exe)
 1\1\GINC-DUSTIN-DESKTOP\FOpt\RAM1\ZDO\C4H4O1\DUSTIN\23-Nov-2015\0\\#P
 AM1(Input,print) Opt\\AM1-Reparam Input\\0,1\C,0.9642577585,-0.7150650
 758,0.0050056393\C,-0.3583543597,-1.0948448931,0.003927169\O,-1.189368
 9139,0.0132019451,-0.0042340156\C,-0.3490656539,1.114045248,-0.0076153
 491\C,0.9702888952,0.7228950546,-0.0028040555\H,1.8516274386,1.3341698
 781,-0.0038434175\H,-0.8382525841,2.0684932107,-0.0140395667\H,-0.8558
 77721,-2.044965557,0.0079995533\H,1.8400421402,-1.3344018105,0.0108490

 Normal termination of Gaussian 09 at Mon Nov 23 02:20:23 2015.
