 Gaussian 09, Revision D.01,
 Gaussian 09:  ES64L-G09RevD.01 24-Apr-2013

 -----------------------
 #P AM1(Input,print) Opt
 -----------------------

 -----------------
 AM1-Reparam Input
 -----------------
 Symbolic Z-matrix:
 Charge =  0 Multiplicity = 1

 SCF Done:  E(RAM1) =  -2.32942245376     A.U. after   14 cycles
 SCF Done:  E(RAM1) =  -2.34026217531     A.U. after   13 cycles
 SCF Done:  E(RAM1) =  -2.34246882352     A.U. after   12 cycles
 SCF Done:  E(RAM1) =  -2.34262204221     A.U. after   11 cycles
 SCF Done:  E(RAM1) =  -2.34265786128     A.U. after   11 cycles
 SCF Done:  E(RAM1) =  -2.34267248472     A.U. after   11 cycles
 SCF Done:  E(RAM1) =  -2.34267383475     A.U. after    9 cycles
 Optimization completed.
    -- Stationary point found.

                         Standard orientation:
 ---------------------------------------------------------------------
 Center     Atomic      Atomic             Coordinates (Angstroms)
 Number     Number       Type             X           Y           Z
 ---------------------------------------------------------------------
      1          6           0        0.719408    0.971231    0.000056
      2          6           0        1.104409   -0.349960    0.000128
      3          8           0       -0.000476   -1.184937   -0.000078
      4          6           0       -1.104701   -0.349026   -0.000213
      5          6           0       -0.718644    0.971749    0.000107
      6          1           0       -1.333417    1.850715    0.000831
      7          1           0       -2.057314   -0.841720    0.000150
      8          1           0        2.056808   -0.843177    0.000656
      9          1           0        1.334899    1.849716   -0.001476
 ---------------------------------------------------------------------

 The electronic state is 1-A.
 Alpha  occ. eigenvalues --   -1.66296  -1.21869  -1.00360  -0.80145  -0.78853
 Alpha  occ. eigenvalues --   -0.68959  -0.59302  -0.56145  -0.55332  -0.52346
 Alpha  occ. eigenvalues --   -0.51634  -0.42271  -0.39422
 Alpha virt. eigenvalues --   -0.01335   0.01260   0.10707   0.14406   0.18129
 Alpha virt. eigenvalues --    0.18323   0.19514   0.20222   0.20830   0.21579
 Alpha virt. eigenvalues --    0.22873

 Mulliken charges:
               1
     1  C   -0.471823
     2  C   -0.352337
     3  O    0.116104
     4  C   -0.352367
     5  C   -0.471715
     6  H    0.380139
     7  H    0.385921
     8  H    0.385930
     9  H    0.380149
 Sum of Mulliken charges =   0.00000

 Dipole moment (field-independent basis, Debye):
    X=              0.0001    Y=             -0.4001    Z=              0.0001  Tot=              0.4001
 N-N= 1.022529195676D+02 E-N=-1.703688438687D+02  KE=-1.936364999603D+01
 Leave Link  601 at Mon Nov 23 02:20:16 2015, MaxMem=    33554432 cpu:         0.0
 (Enter /home/Applications/g09/g09/l9999.exe)
 1\1\GINC-DUSTIN-DESKTOP\FOpt\RAM1\ZDO\C4H4O1\DUSTIN\23-Nov-2015\0\\#P
 AM1(Input,print) Opt\\AM1-Reparam Input\\0,1\C,0.975144394,-0.71448985
 89,-0.0268187995\C,-0.3422793147,-1.1120478788,-0.0160992517\O,-1.1874
 434941,-0.0153759675,0.014989784\C,-0.3619384621,1.0966151985,0.023799
 0608\C,0.9622601994,0.7232641466,-0.0005725578\H,1.8353879374,1.346302
 2325,-0.0003979695\H,-0.8634383555,2.0443098044,0.04810669\H,-0.826546
 2499,-2.0689735135,-0.026330801\H,1.8592253457,-1.3214231634,-0.051310

 Normal termination of Gaussian 09 at Mon Nov 23 02:20:16 2015.
