 Gaussian 09, Revision D.01,
 Gaussian 09:  ES64L-G09RevD.01 24-Apr-2013

 -----------------------
 #P AM1(Input,print) Opt
 -----------------------

 -----------------
 AM1-Reparam Input
 -----------------
 Symbolic Z-matrix:
 Charge =  0 Multiplicity = 1

 SCF Done:  E(RAM1) =  -2.31181877850     A.U. after   14 cycles
 SCF Done:  E(RAM1) =  -2.34040455013     A.U. after   12 cycles
 SCF Done:  E(RAM1) =  -2.34216157210     A.U. after   12 cycles
 SCF Done:  E(RAM1) =  -2.34263937385     A.U. after   12 cycles
 SCF Done:  E(RAM1) =  -2.34266398969     A.U. after   11 cycles
 SCF Done:  E(RAM1) =  -2.34267282200     A.U. after   11 cycles
 SCF Done:  E(RAM1) =  -2.34267392144     A.U. after    9 cycles
 Optimization completed.
    -- Stationary point found.

                         Standard orientation:
 ---------------------------------------------------------------------
 Center     Atomic      Atomic             Coordinates (Angstroms)
 Number     Number       Type             X           Y           Z
 ---------------------------------------------------------------------
      1          6           0        0.720132    0.970629   -0.000004
      2          6           0        1.104071   -0.350820    0.000025
      3          8           0       -0.001549   -1.185001   -0.000092
      4          6           0       -1.104806   -0.348129    0.000018
      5          6           0       -0.717842    0.972459    0.000041
      6          1           0       -1.331511    1.852357    0.000527
      7          1           0       -2.057636   -0.840588   -0.000201
      8          1           0        2.055797   -0.845187    0.000745
      9          1           0        1.336416    1.848590   -0.000816
 ---------------------------------------------------------------------

 The electronic state is 1-A.
 Alpha  occ. eigenvalues --   -1.66300  -1.21870  -1.00355  -0.80148  -0.78855
 Alpha  occ. eigenvalues --   -0.68957  -0.59304  -0.56140  -0.55336  -0.52344
 Alpha  occ. eigenvalues --   -0.51634  -0.42272  -0.39420
 Alpha virt. eigenvalues --   -0.01334   0.01261   0.10713   0.14406   0.18129
 Alpha virt. eigenvalues --    0.18322   0.19514   0.20223   0.20827   0.21579
 Alpha virt. eigenvalues --    0.22873

 Mulliken charges:
               1
     1  C   -0.471639
     2  C   -0.352505
     3  O    0.116064
     4  C   -0.352171
     5  C   -0.471893
     6  H    0.380184
     7  H    0.385906
     8  H    0.385915
     9  H    0.380138
 Sum of Mulliken charges =   0.00000

 Dipole moment (field-independent basis, Debye):
    X=             -0.0003    Y=             -0.4007    Z=              0.0002  Tot=              0.4007
 N-N= 1.022536498568D+02 E-N=-1.703701988227D+02  KE=-1.936371599323D+01
 Leave Link  601 at Mon Nov 23 02:20:25 2015, MaxMem=    33554432 cpu:         0.0
 (Enter /home/Applications/g09/g09/l9999.exe)
 1\1\GINC-DUSTIN-DESKTOP\FOpt\RAM1\ZDO\C4H4O1\DUSTIN\23-Nov-2015\0\\#P
 AM1(Input,print) Opt\\AM1-Reparam Input\\0,1\C,0.9747883333,-0.7134663
 052,0.0092488908\C,-0.341039999,-1.1162444824,0.007735718\O,-1.1909332
 07,-0.0226582446,0.0098894112\C,-0.36991025,1.0924386143,0.013046274\C
 ,0.9560714144,0.7243821,0.0127556069\H,1.8271116131,1.350556532,0.0151
 297599\H,-0.87593267,2.0381331057,0.0148897882\H,-0.8217587779,-2.0749
 361431,0.0059347902\H,1.8614645433,-1.3171401768,0.0073647609\\Version

 Normal termination of Gaussian 09 at Mon Nov 23 02:20:25 2015.
